Unloading slurm/anatra/current
  ERROR: No such file or directory on
    '/cm/local/modulefiles/slurm/anatra/current'
environment: line 0: unalias: gv: not found
environment: line 0: unalias: sl: not found
 Entering Gaussian System, Link 0=g16
 Initial command:
 /apps/gaussian/g16/C.01/g16/l1.exe "/local/jobs/1153191/Gau-3246672.inp" -scrdir="/local/jobs/1153191/"
 Entering Link 1 = /apps/gaussian/g16/C.01/g16/l1.exe PID=   3246675.
  
 Copyright (c) 1988-2019, Gaussian, Inc.  All Rights Reserved.
  
 This is part of the Gaussian(R) 16 program.  It is based on
 the Gaussian(R) 09 system (copyright 2009, Gaussian, Inc.),
 the Gaussian(R) 03 system (copyright 2003, Gaussian, Inc.),
 the Gaussian(R) 98 system (copyright 1998, Gaussian, Inc.),
 the Gaussian(R) 94 system (copyright 1995, Gaussian, Inc.),
 the Gaussian 92(TM) system (copyright 1992, Gaussian, Inc.),
 the Gaussian 90(TM) system (copyright 1990, Gaussian, Inc.),
 the Gaussian 88(TM) system (copyright 1988, Gaussian, Inc.),
 the Gaussian 86(TM) system (copyright 1986, Carnegie Mellon
 University), and the Gaussian 82(TM) system (copyright 1983,
 Carnegie Mellon University). Gaussian is a federally registered
 trademark of Gaussian, Inc.
  
 This software contains proprietary and confidential information,
 including trade secrets, belonging to Gaussian, Inc.
  
 This software is provided under written license and may be
 used, copied, transmitted, or stored only in accord with that
 written license.
  
 The following legend is applicable only to US Government
 contracts under FAR:
  
                    RESTRICTED RIGHTS LEGEND
  
 Use, reproduction and disclosure by the US Government is
 subject to restrictions as set forth in subparagraphs (a)
 and (c) of the Commercial Computer Software - Restricted
 Rights clause in FAR 52.227-19.
  
 Gaussian, Inc.
 340 Quinnipiac St., Bldg. 40, Wallingford CT 06492
  
  
 ---------------------------------------------------------------
 Warning -- This program may not be used in any manner that
 competes with the business of Gaussian, Inc. or will provide
 assistance to any competitor of Gaussian, Inc.  The licensee
 of this program is prohibited from giving any competitor of
 Gaussian, Inc. access to this program.  By using this program,
 the user acknowledges that Gaussian, Inc. is engaged in the
 business of creating and licensing software in the field of
 computational chemistry and represents and warrants to the
 licensee that it is not a competitor of Gaussian, Inc. and that
 it will not use this program in any manner prohibited above.
 ---------------------------------------------------------------
  

 Cite this work as:
 Gaussian 16, Revision C.01,
 M. J. Frisch, G. W. Trucks, H. B. Schlegel, G. E. Scuseria, 
 M. A. Robb, J. R. Cheeseman, G. Scalmani, V. Barone, 
 G. A. Petersson, H. Nakatsuji, X. Li, M. Caricato, A. V. Marenich, 
 J. Bloino, B. G. Janesko, R. Gomperts, B. Mennucci, H. P. Hratchian, 
 J. V. Ortiz, A. F. Izmaylov, J. L. Sonnenberg, D. Williams-Young, 
 F. Ding, F. Lipparini, F. Egidi, J. Goings, B. Peng, A. Petrone, 
 T. Henderson, D. Ranasinghe, V. G. Zakrzewski, J. Gao, N. Rega, 
 G. Zheng, W. Liang, M. Hada, M. Ehara, K. Toyota, R. Fukuda, 
 J. Hasegawa, M. Ishida, T. Nakajima, Y. Honda, O. Kitao, H. Nakai, 
 T. Vreven, K. Throssell, J. A. Montgomery, Jr., J. E. Peralta, 
 F. Ogliaro, M. J. Bearpark, J. J. Heyd, E. N. Brothers, K. N. Kudin, 
 V. N. Staroverov, T. A. Keith, R. Kobayashi, J. Normand, 
 K. Raghavachari, A. P. Rendell, J. C. Burant, S. S. Iyengar, 
 J. Tomasi, M. Cossi, J. M. Millam, M. Klene, C. Adamo, R. Cammi, 
 J. W. Ochterski, R. L. Martin, K. Morokuma, O. Farkas, 
 J. B. Foresman, and D. J. Fox, Gaussian, Inc., Wallingford CT, 2019.
 
 ******************************************
 Gaussian 16:  ES64L-G16RevC.01  3-Jul-2019
                30-Dec-2023 
 ******************************************
 %chk=TS-92_opt_sqm_re4_freq.chk
 %nprocshared=12
 Will use up to   12 processors via shared memory.
 %mem=48GB
 -----------------------------------------------------------
 # wb97xd def2svp scrf=(iefpcm,solvent=toluene) freq=noraman
 -----------------------------------------------------------
 1/10=4,30=1,38=1/1,3;
 2/12=2,17=6,18=5,40=1/2;
 3/5=43,7=101,11=2,25=1,30=1,70=2201,71=2,72=13,74=-58,140=1/1,2,3;
 4//1;
 5/5=2,38=5,53=13,98=1/2;
 8/6=4,10=90,11=11/1;
 11/6=1,8=1,9=11,15=111,16=1/1,2,10;
 10/6=1/2;
 6/7=2,8=2,9=2,10=2,28=1/1;
 7/8=1,10=1,25=1/1,2,3,16;
 1/10=4,30=1/3;
 99//99;
 ---------------------
 TS-92_opt_sqm_re4.out
 ---------------------
 Symbolic Z-matrix:
 Charge =  0 Multiplicity = 1
 C                    -0.90908  -0.70554   0.18674 
 C                    -2.28931  -0.46055   0.15152 
 O                    -2.85669   0.63997   0.02888 
 C                     0.04987   0.41219   0.2711 
 C                    -0.80192   2.6373   -1.05717 
 H                    -0.19051   3.33575  -0.47627 
 H                    -0.91477   3.01805  -2.08086 
 H                    -1.78364   2.48889  -0.59523 
 N                    -0.14136   1.31949  -1.10943 
 H                    -0.70406   0.67533  -1.67436 
 H                     0.77286   1.39691  -1.56225 
 C                     1.49455  -0.07373   0.16148 
 C                     1.83916  -0.97832  -0.85557 
 C                     3.15039  -1.41896  -1.01291 
 C                     4.14913  -0.96801  -0.14949 
 C                     3.8213   -0.07319   0.86575 
 C                     2.50772   0.37403   1.01628 
 H                     1.0587   -1.35286  -1.52243 
 H                     3.39179  -2.12571  -1.80994 
 H                     5.17769  -1.3159   -0.26674 
 H                     4.59274   0.28332   1.5519 
 H                     2.28154   1.07267   1.822 
 C                    -0.18495   1.36884   1.43879 
 H                    -1.24389   1.64965   1.47135 
 H                     0.04548   0.82449   2.36403 
 H                     0.43663   2.27726   1.41013 
 H                    -0.54333  -1.72916   0.23731 
 O                    -3.0509   -1.59958   0.22205 
 C                    -4.43975  -1.42639   0.09861 
 H                    -4.71504  -0.97484  -0.86864 
 H                    -4.88744  -2.42638   0.17328 
 H                    -4.84722  -0.78291   0.89446 
 

 GradGradGradGradGradGradGradGradGradGradGradGradGradGradGradGradGradGrad
 Berny optimization.
 Initialization pass.
 Trust Radius=3.00D-01 FncErr=1.00D-07 GrdErr=1.00D-07 EigMax=2.50D+02 EigMin=1.00D-04
 Number of steps in this run=      2 maximum allowed number of steps=      2.
 GradGradGradGradGradGradGradGradGradGradGradGradGradGradGradGradGradGrad

                          Input orientation:                          
 ---------------------------------------------------------------------
 Center     Atomic      Atomic             Coordinates (Angstroms)
 Number     Number       Type             X           Y           Z
 ---------------------------------------------------------------------
      1          6           0       -0.909080   -0.705540    0.186740
      2          6           0       -2.289310   -0.460550    0.151520
      3          8           0       -2.856690    0.639970    0.028880
      4          6           0        0.049870    0.412190    0.271100
      5          6           0       -0.801920    2.637300   -1.057170
      6          1           0       -0.190510    3.335750   -0.476270
      7          1           0       -0.914770    3.018050   -2.080860
      8          1           0       -1.783640    2.488890   -0.595230
      9          7           0       -0.141360    1.319490   -1.109430
     10          1           0       -0.704060    0.675330   -1.674360
     11          1           0        0.772860    1.396910   -1.562250
     12          6           0        1.494550   -0.073730    0.161480
     13          6           0        1.839160   -0.978320   -0.855570
     14          6           0        3.150390   -1.418960   -1.012910
     15          6           0        4.149130   -0.968010   -0.149490
     16          6           0        3.821300   -0.073190    0.865750
     17          6           0        2.507720    0.374030    1.016280
     18          1           0        1.058700   -1.352860   -1.522430
     19          1           0        3.391790   -2.125710   -1.809940
     20          1           0        5.177690   -1.315900   -0.266740
     21          1           0        4.592740    0.283320    1.551900
     22          1           0        2.281540    1.072670    1.822000
     23          6           0       -0.184950    1.368840    1.438790
     24          1           0       -1.243890    1.649650    1.471350
     25          1           0        0.045480    0.824490    2.364030
     26          1           0        0.436630    2.277260    1.410130
     27          1           0       -0.543330   -1.729160    0.237310
     28          8           0       -3.050900   -1.599580    0.222050
     29          6           0       -4.439750   -1.426390    0.098610
     30          1           0       -4.715040   -0.974840   -0.868640
     31          1           0       -4.887440   -2.426380    0.173280
     32          1           0       -4.847220   -0.782910    0.894460
 ---------------------------------------------------------------------
                    Distance matrix (angstroms):
                    1          2          3          4          5
     1  C    0.000000
     2  C    1.402247   0.000000
     3  O    2.372446   1.244229   0.000000
     4  C    1.475135   2.499547   2.925516   0.000000
     5  C    3.568385   3.642792   3.064459   2.727813   0.000000
     6  H    4.157878   4.383033   3.825039   3.027135   1.095034
     7  H    4.359721   4.355863   3.725228   3.640433   1.098020
     8  H    3.403045   3.084240   2.226983   2.902580   1.095075
     9  N    2.523925   3.061409   3.021674   1.663017   1.475023
    10  H    2.326484   2.671531   2.745194   2.102966   2.059084
    11  H    3.210636   3.970397   4.034636   2.203080   2.067270
    12  C    2.485409   3.803594   4.411376   1.528148   3.756137
    13  C    2.951888   4.280956   5.045010   2.530704   4.482037
    14  C    4.292718   5.644890   6.435024   3.822959   5.663564
    15  C    5.076163   6.465418   7.190197   4.345777   6.191530
    16  C    4.820520   6.164392   6.767902   3.848751   5.693728
    17  C    3.678061   4.945284   5.461005   2.568614   4.513901
    18  H    2.685599   3.848051   4.659207   2.711068   4.427161
    19  H    4.949858   6.236584   7.076281   4.684025   6.390628
    20  H    6.134081   7.527460   8.274302   5.437840   7.211678
    21  H    5.754262   7.062366   7.611885   4.721729   6.438231
    22  H    4.002020   5.102346   5.459296   2.796762   4.499490
    23  C    2.528843   3.071166   3.107618   1.527684   2.866960
    24  H    2.703561   2.699592   2.387739   2.155394   2.750310
    25  H    2.827148   3.463780   3.729553   2.133159   3.963455
    26  H    3.493525   4.063306   3.928680   2.219337   2.784098
    27  H    1.088177   2.159902   3.317809   2.222253   4.561636
    28  O    2.321195   1.372000   2.256239   3.696539   4.964420
    29  C    3.604584   2.357973   2.603994   4.854567   5.575232
    30  H    3.958747   2.681303   2.620423   5.091879   5.328753
    31  H    4.334607   3.258104   3.680666   5.695970   6.621657
    32  H    4.001975   2.683054   2.595386   5.079206   5.645454
                    6          7          8          9         10
     6  H    0.000000
     7  H    1.788909   0.000000
     8  H    1.808145   1.800567   0.000000
     9  N    2.113909   2.104031   2.080620   0.000000
    10  H    2.962598   2.387044   2.370446   1.025046   0.000000
    11  H    2.422093   2.396903   2.943338   1.023151   1.647586
    12  C    3.856255   4.515752   4.229203   2.496493   2.960622
    13  C    4.782743   5.005641   5.021355   3.044148   3.142124
    14  C    5.835826   6.111718   6.307963   4.282995   4.436254
    15  C    6.120589   6.727700   6.880887   4.956051   5.345956
    16  C    5.432910   6.377196   6.333567   4.641505   5.243217
    17  C    4.275504   5.319451   5.048303   3.525644   4.200697
    18  H    4.963672   4.828176   4.868022   2.958406   2.691461
    19  H    6.666265   6.714024   7.039540   4.984302   4.963889
    20  H    7.106287   7.693648   7.940053   5.995640   6.367211
    21  H    6.025801   7.142014   7.080461   5.528836   6.214380
    22  H    4.063817   5.406775   4.937040   3.811121   4.614783
    23  C    2.745218   3.954803   2.819142   2.549071   3.231429
    24  H    2.783122   3.820868   2.294865   2.825775   3.337096
    25  H    3.798608   5.048845   3.856569   3.513525   4.110067
    26  H    2.252157   3.816027   2.999309   2.756733   3.658064
    27  H    5.127084   5.296025   4.474756   3.357016   3.076018
    28  O    5.746909   5.584707   4.357692   4.331193   3.778789
    29  C    6.408159   6.076892   4.781815   5.241696   4.638537
    30  H    6.261510   5.643997   4.545909   5.122546   4.411372
    31  H    7.462252   7.106692   5.863792   6.180790   5.525853
    32  H    6.366098   6.226073   4.723280   5.529989   5.088327
                   11         12         13         14         15
    11  H    0.000000
    12  C    2.377996   0.000000
    13  C    2.697797   1.404076   0.000000
    14  C    3.726063   2.435291   1.392208   0.000000
    15  C    4.357515   2.818374   2.415495   1.395110   0.000000
    16  C    4.165257   2.431000   2.776883   2.406363   1.392439
    17  C    3.271825   1.399173   2.404089   2.783065   2.419570
    18  H    2.764873   2.159095   1.092749   2.153868   3.403503
    19  H    4.396475   3.420035   2.153598   1.092257   2.161233
    20  H    5.332936   3.910483   3.406826   2.162715   1.092113
    21  H    5.052672   3.414606   3.869089   3.399468   2.158088
    22  H    3.719462   2.165852   3.401712   3.872962   3.396916
    23  C    3.150306   2.556022   3.856199   4.990707   5.173756
    24  H    3.651560   3.490681   4.671828   5.907420   6.209986
    25  H    4.033909   2.785288   4.102833   5.106590   5.135249
    26  H    3.118190   2.864520   4.207052   5.186295   5.171736
    27  H    3.839673   2.626624   2.726611   3.911885   4.769501
    28  O    5.175309   4.795102   5.045782   6.325642   7.237220
    29  C    6.156361   6.086835   6.366784   7.671099   8.604680
    30  H    6.018583   6.358628   6.554214   7.879280   8.893297
    31  H    7.047596   6.801830   6.957195   8.187103   9.159182
    32  H    6.509404   6.423258   6.914367   8.246477   9.058610
                   16         17         18         19         20
    16  C    0.000000
    17  C    1.395764   0.000000
    18  H    3.869485   3.395122   0.000000
    19  H    3.399505   3.875281   2.474524   0.000000
    20  H    2.160244   3.410388   4.306298   2.495335   0.000000
    21  H    1.092255   2.154629   4.961656   4.306701   2.491410
    22  H    2.144358   1.090156   4.308567   4.965207   4.296020
    23  C    4.296262   2.901488   4.209886   5.963153   6.234947
    24  H    5.384336   3.988593   4.824905   6.819805   7.283690
    25  H    4.160227   2.842881   4.568593   6.109296   6.151569
    26  H    4.156556   2.840214   4.707935   6.203867   6.180642
    27  H    4.710326   3.786702   2.409312   4.453499   5.758031
    28  O    7.069042   5.951823   4.471341   6.775991   8.247975
    29  C    8.406224   7.235397   5.732899   8.091022   9.625011
    30  H    8.757293   7.585554   5.822921   8.242041   9.916890
    31  H    9.047606   7.952442   6.275704   8.518757  10.135760
    32  H    8.697572   7.446374   6.406722   8.774861  10.106002
                   21         22         23         24         25
    21  H    0.000000
    22  H    2.457168   0.000000
    23  C    4.900762   2.513591   0.000000
    24  H    5.994964   3.589501   1.096024   0.000000
    25  H    4.650806   2.314164   1.097945   1.772073   0.000000
    26  H    4.611848   2.241510   1.101095   1.794934   1.781422
    27  H    5.670753   4.282684   3.342094   3.664696   3.375021
    28  O    7.983674   6.175409   4.301819   3.922184   4.477919
    29  C    9.307042   7.375033   5.264287   4.643270   5.505986
    30  H    9.699317   7.770712   5.598105   4.940889   6.029121
    31  H    9.955746   8.145913   6.174028   5.619116   6.300892
    32  H    9.522705   7.424468   5.163631   4.385674   5.355547
                   26         27         28         29         30
    26  H    0.000000
    27  H    4.288033   0.000000
    28  O    5.348298   2.510962   0.000000
    29  C    6.262283   3.910626   1.405040   0.000000
    30  H    6.504510   4.381243   2.085490   1.102386   0.000000
    31  H    7.211085   4.400171   2.014660   1.098172   1.795073
    32  H    6.127775   4.455413   2.084670   1.101579   1.778435
                   31         32
    31  H    0.000000
    32  H    1.795191   0.000000
 Stoichiometry    C12H17NO2
 Framework group  C1[X(C12H17NO2)]
 Deg. of freedom    90
 Full point group                 C1      NOp   1
 Largest Abelian subgroup         C1      NOp   1
 Largest concise Abelian subgroup C1      NOp   1
                         Standard orientation:                         
 ---------------------------------------------------------------------
 Center     Atomic      Atomic             Coordinates (Angstroms)
 Number     Number       Type             X           Y           Z
 ---------------------------------------------------------------------
      1          6           0       -0.909080   -0.705541    0.186740
      2          6           0       -2.289310   -0.460551    0.151520
      3          8           0       -2.856690    0.639969    0.028880
      4          6           0        0.049870    0.412189    0.271100
      5          6           0       -0.801920    2.637299   -1.057170
      6          1           0       -0.190510    3.335749   -0.476270
      7          1           0       -0.914770    3.018049   -2.080860
      8          1           0       -1.783640    2.488889   -0.595230
      9          7           0       -0.141360    1.319489   -1.109430
     10          1           0       -0.704060    0.675329   -1.674360
     11          1           0        0.772860    1.396909   -1.562250
     12          6           0        1.494550   -0.073731    0.161480
     13          6           0        1.839160   -0.978321   -0.855570
     14          6           0        3.150390   -1.418961   -1.012910
     15          6           0        4.149130   -0.968011   -0.149490
     16          6           0        3.821300   -0.073191    0.865750
     17          6           0        2.507720    0.374029    1.016280
     18          1           0        1.058700   -1.352861   -1.522430
     19          1           0        3.391790   -2.125711   -1.809940
     20          1           0        5.177690   -1.315901   -0.266740
     21          1           0        4.592740    0.283319    1.551900
     22          1           0        2.281540    1.072669    1.822000
     23          6           0       -0.184950    1.368839    1.438790
     24          1           0       -1.243890    1.649649    1.471350
     25          1           0        0.045480    0.824489    2.364030
     26          1           0        0.436630    2.277259    1.410130
     27          1           0       -0.543330   -1.729161    0.237310
     28          8           0       -3.050900   -1.599581    0.222050
     29          6           0       -4.439750   -1.426391    0.098610
     30          1           0       -4.715040   -0.974841   -0.868640
     31          1           0       -4.887440   -2.426381    0.173280
     32          1           0       -4.847220   -0.782911    0.894460
 ---------------------------------------------------------------------
 Rotational constants (GHZ):           1.1152884           0.3327545           0.2966627
 Standard basis: def2SVP (5D, 7F)
 There are   310 symmetry adapted cartesian basis functions of A   symmetry.
 There are   295 symmetry adapted basis functions of A   symmetry.
   295 basis functions,   494 primitive gaussians,   310 cartesian basis functions
    56 alpha electrons       56 beta electrons
       nuclear repulsion energy      1010.5099068463 Hartrees.
 NAtoms=   32 NActive=   32 NUniq=   32 SFac= 1.00D+00 NAtFMM=   60 NAOKFM=F Big=F
 Integral buffers will be    131072 words long.
 Raffenetti 2 integral format.
 Two-electron integral symmetry is turned on.
 Nuclear repulsion after empirical dispersion term =     1010.4861192181 Hartrees.
 Force inversion solution in PCM.
 ------------------------------------------------------------------------------
 Polarizable Continuum Model (PCM)
 =================================
 Model                : PCM.
 Atomic radii         : UFF (Universal Force Field).
 Polarization charges : Total charges.
 Charge compensation  : None.
 Solution method      : Matrix inversion.
 Cavity type          : Scaled VdW (van der Waals Surface) (Alpha=1.100).
 Cavity algorithm     : GePol (No added spheres)
                        Default sphere list used, NSphG=   32.
                        Lebedev-Laikov grids with approx.  5.0 points / Ang**2.
                        Smoothing algorithm: York/Karplus (Gamma=1.0000).
                        Polarization charges: spherical gaussians, with
                                              point-specific exponents (IZeta= 3).
                        Self-potential: point-specific (ISelfS= 7).
                        Self-field    : sphere-specific E.n sum rule (ISelfD= 2).
 1st derivatives      : Analytical E(r).r(x)/FMM algorithm (CHGder, D1EAlg=3).
                        Cavity 1st derivative terms included.
 2nd derivatives      : Analytical E(r).r(xy)/FMM algorithm (CHGder, D2EAlg=3).
                        Cavity 2nd derivative terms included.
 Solvent              : Toluene, Eps=   2.374100 Eps(inf)=   2.238315
 ------------------------------------------------------------------------------
 One-electron integrals computed using PRISM.
   1 Symmetry operations used in ECPInt.
 ECPInt:  NShTT=   10011 NPrTT=   35491 LenC2=    9437 LenP2D=   24603.
 LDataN:  DoStor=T MaxTD1= 4 Len=   56
 NBasis=   295 RedAO= T EigKep=  2.79D-04  NBF=   295
 NBsUse=   295 1.00D-06 EigRej= -1.00D+00 NBFU=   295
 ExpMin= 1.22D-01 ExpMax= 2.27D+03 ExpMxC= 3.41D+02 IAcc=3 IRadAn=         5 AccDes= 0.00D+00
 Harris functional with IExCor= 4639 and IRadAn=       5 diagonalized for initial guess.
 HarFok:  IExCor= 4639 AccDes= 0.00D+00 IRadAn=         5 IDoV= 1 UseB2=F ITyADJ=14
 ICtDFT=  3500011 ScaDFX=  1.000000  1.000000  1.000000  1.000000
 FoFCou: FMM=F IPFlag=           0 FMFlag=      100000 FMFlg1=           0
         NFxFlg=           0 DoJE=T BraDBF=F KetDBF=T FulRan=T
         wScrn=  0.000000 ICntrl=       500 IOpCl=  0 I1Cent=   200000004 NGrid=           0
         NMat0=    1 NMatS0=      1 NMatT0=    0 NMatD0=    1 NMtDS0=    0 NMtDT0=    0
 Petite list used in FoFCou.
 Requested convergence on RMS density matrix=1.00D-08 within 128 cycles.
 Requested convergence on MAX density matrix=1.00D-06.
 Requested convergence on             energy=1.00D-06.
 No special actions if energy rises.
 Inv3:  Mode=1 IEnd=    14665563.
 Iteration    1 A*A^-1 deviation from unit magnitude is 2.78D-15 for   1145.
 Iteration    1 A*A^-1 deviation from orthogonality  is 3.01D-15 for   1853    726.
 Iteration    1 A^-1*A deviation from unit magnitude is 2.89D-15 for   1994.
 Iteration    1 A^-1*A deviation from orthogonality  is 4.66D-15 for   1945   1914.
 Error on total polarization charges =  0.00655
 SCF Done:  E(RwB97XD) =  -671.970647950     A.U. after   14 cycles
            NFock= 14  Conv=0.73D-08     -V/T= 2.0108
 DoSCS=F DFT=T ScalE2(SS,OS)=  1.000000  1.000000
 Range of M.O.s used for correlation:     1   295
 NBasis=   295 NAE=    56 NBE=    56 NFC=     0 NFV=     0
 NROrb=    295 NOA=    56 NOB=    56 NVA=   239 NVB=   239

 **** Warning!!: The largest alpha MO coefficient is  0.14180896D+02

   1 Symmetry operations used in ECPInt.
 ECPInt:  NShTT=   10011 NPrTT=   35491 LenC2=    9437 LenP2D=   24603.
 LDataN:  DoStor=T MaxTD1= 5 Len=  102
 Symmetrizing basis deriv contribution to polar:
 IMax=3 JMax=2 DiffMx= 0.00D+00
 G2DrvN: will do    33 centers at a time, making    1 passes.
 Calling FoFCou, ICntrl=  3107 FMM=F I1Cent=   0 AccDes= 0.00D+00.
 NEqPCM:  Using equilibrium solvation (IEInf=0, Eps=   2.3741, EpsInf=   2.2383)
 G2PCM: DoFxE=T DoFxN=T DoGrad=T DoDP/DQ/DG/TGxP=FFFF NFrqRd=   0 IEInf=0 SqF1=F DoCFld=F IF1Alg=4.
 End of G2Drv F.D. properties file   721 does not exist.
 End of G2Drv F.D. properties file   722 does not exist.
 End of G2Drv F.D. properties file   788 does not exist.
          IDoAtm=11111111111111111111111111111111
 NEqPCM:  Using equilibrium solvation (IEInf=0, Eps=   2.3741, EpsInf=   2.2383)
          Differentiating once with respect to electric field.
                with respect to dipole field.
          Differentiating once with respect to nuclear coordinates.
 Keep R1 ints in memory in canonical form, NReq=1934262512.
          There are    99 degrees of freedom in the 1st order CPHF.  IDoFFX=6 NUNeed=     3.
     96 vectors produced by pass  0 Test12= 1.35D-14 1.01D-09 XBig12= 8.30D+01 3.09D+00.
 AX will form    96 AO Fock derivatives at one time.
     96 vectors produced by pass  1 Test12= 1.35D-14 1.01D-09 XBig12= 6.23D+00 3.93D-01.
     96 vectors produced by pass  2 Test12= 1.35D-14 1.01D-09 XBig12= 1.08D-01 8.08D-02.
     96 vectors produced by pass  3 Test12= 1.35D-14 1.01D-09 XBig12= 1.34D-03 5.92D-03.
     96 vectors produced by pass  4 Test12= 1.35D-14 1.01D-09 XBig12= 9.84D-06 3.80D-04.
     96 vectors produced by pass  5 Test12= 1.35D-14 1.01D-09 XBig12= 5.13D-08 1.95D-05.
     87 vectors produced by pass  6 Test12= 1.35D-14 1.01D-09 XBig12= 2.63D-10 1.40D-06.
     21 vectors produced by pass  7 Test12= 1.35D-14 1.01D-09 XBig12= 1.12D-12 7.82D-08.
      3 vectors produced by pass  8 Test12= 1.35D-14 1.01D-09 XBig12= 4.51D-15 5.95D-09.
 InvSVY:  IOpt=1 It=  1 EMax= 1.24D-14
 Solved reduced A of dimension   687 with    99 vectors.
 Isotropic polarizability for W=    0.000000      162.81 Bohr**3.
 End of Minotr F.D. properties file   721 does not exist.
 End of Minotr F.D. properties file   722 does not exist.
 End of Minotr F.D. properties file   788 does not exist.

 **********************************************************************

            Population analysis using the SCF Density.

 **********************************************************************

 Orbital symmetries:
       Occupied  (A) (A) (A) (A) (A) (A) (A) (A) (A) (A) (A) (A)
                 (A) (A) (A) (A) (A) (A) (A) (A) (A) (A) (A) (A)
                 (A) (A) (A) (A) (A) (A) (A) (A) (A) (A) (A) (A)
                 (A) (A) (A) (A) (A) (A) (A) (A) (A) (A) (A) (A)
                 (A) (A) (A) (A) (A) (A) (A) (A)
       Virtual   (A) (A) (A) (A) (A) (A) (A) (A) (A) (A) (A) (A)
                 (A) (A) (A) (A) (A) (A) (A) (A) (A) (A) (A) (A)
                 (A) (A) (A) (A) (A) (A) (A) (A) (A) (A) (A) (A)
                 (A) (A) (A) (A) (A) (A) (A) (A) (A) (A) (A) (A)
                 (A) (A) (A) (A) (A) (A) (A) (A) (A) (A) (A) (A)
                 (A) (A) (A) (A) (A) (A) (A) (A) (A) (A) (A) (A)
                 (A) (A) (A) (A) (A) (A) (A) (A) (A) (A) (A) (A)
                 (A) (A) (A) (A) (A) (A) (A) (A) (A) (A) (A) (A)
                 (A) (A) (A) (A) (A) (A) (A) (A) (A) (A) (A) (A)
                 (A) (A) (A) (A) (A) (A) (A) (A) (A) (A) (A) (A)
                 (A) (A) (A) (A) (A) (A) (A) (A) (A) (A) (A) (A)
                 (A) (A) (A) (A) (A) (A) (A) (A) (A) (A) (A) (A)
                 (A) (A) (A) (A) (A) (A) (A) (A) (A) (A) (A) (A)
                 (A) (A) (A) (A) (A) (A) (A) (A) (A) (A) (A) (A)
                 (A) (A) (A) (A) (A) (A) (A) (A) (A) (A) (A) (A)
                 (A) (A) (A) (A) (A) (A) (A) (A) (A) (A) (A) (A)
                 (A) (A) (A) (A) (A) (A) (A) (A) (A) (A) (A) (A)
                 (A) (A) (A) (A) (A) (A) (A) (A) (A) (A) (A) (A)
                 (A) (A) (A) (A) (A) (A) (A) (A) (A) (A) (A) (A)
                 (A) (A) (A) (A) (A) (A) (A) (A) (A) (A) (A)
 The electronic state is 1-A.
 Alpha  occ. eigenvalues --  -19.24620 -19.17821 -14.54337 -10.36532 -10.36362
 Alpha  occ. eigenvalues --  -10.34730 -10.32111 -10.31934 -10.31140 -10.31126
 Alpha  occ. eigenvalues --  -10.31095 -10.31049 -10.31005 -10.28936 -10.22716
 Alpha  occ. eigenvalues --   -1.13994  -1.07631  -1.03757  -0.96408  -0.89827
 Alpha  occ. eigenvalues --   -0.84787  -0.83123  -0.80998  -0.79896  -0.75076
 Alpha  occ. eigenvalues --   -0.71462  -0.69854  -0.66554  -0.65820  -0.62397
 Alpha  occ. eigenvalues --   -0.60918  -0.58526  -0.57616  -0.55609  -0.54046
 Alpha  occ. eigenvalues --   -0.53587  -0.52957  -0.52139  -0.51676  -0.50916
 Alpha  occ. eigenvalues --   -0.49318  -0.48658  -0.46590  -0.46312  -0.46076
 Alpha  occ. eigenvalues --   -0.45526  -0.44039  -0.43312  -0.42337  -0.41807
 Alpha  occ. eigenvalues --   -0.39539  -0.34172  -0.34020  -0.33903  -0.30970
 Alpha  occ. eigenvalues --   -0.23594
 Alpha virt. eigenvalues --    0.04212   0.05020   0.11321   0.13416   0.14063
 Alpha virt. eigenvalues --    0.15162   0.16707   0.18041   0.18345   0.18437
 Alpha virt. eigenvalues --    0.19102   0.20534   0.21306   0.21871   0.22311
 Alpha virt. eigenvalues --    0.23271   0.23554   0.23787   0.24239   0.24664
 Alpha virt. eigenvalues --    0.25277   0.25613   0.27289   0.28472   0.30905
 Alpha virt. eigenvalues --    0.32672   0.35833   0.36513   0.36775   0.38715
 Alpha virt. eigenvalues --    0.39372   0.40551   0.42621   0.45105   0.45950
 Alpha virt. eigenvalues --    0.46306   0.48353   0.48751   0.50166   0.51843
 Alpha virt. eigenvalues --    0.52871   0.54650   0.55388   0.55925   0.56237
 Alpha virt. eigenvalues --    0.56777   0.57679   0.59204   0.60330   0.60558
 Alpha virt. eigenvalues --    0.62015   0.62723   0.64715   0.65042   0.66337
 Alpha virt. eigenvalues --    0.67604   0.69090   0.70173   0.71593   0.71770
 Alpha virt. eigenvalues --    0.72644   0.73054   0.73399   0.73702   0.74080
 Alpha virt. eigenvalues --    0.74716   0.75042   0.75673   0.75982   0.76202
 Alpha virt. eigenvalues --    0.76892   0.77493   0.77857   0.79161   0.79441
 Alpha virt. eigenvalues --    0.79614   0.80080   0.81710   0.82315   0.82835
 Alpha virt. eigenvalues --    0.83318   0.84170   0.85560   0.86692   0.87089
 Alpha virt. eigenvalues --    0.88662   0.90185   0.90795   0.91839   0.94248
 Alpha virt. eigenvalues --    0.96160   0.97003   1.02454   1.02926   1.04204
 Alpha virt. eigenvalues --    1.05938   1.10129   1.13335   1.14984   1.16666
 Alpha virt. eigenvalues --    1.18077   1.20153   1.21419   1.23531   1.27626
 Alpha virt. eigenvalues --    1.28819   1.30565   1.32051   1.32675   1.33407
 Alpha virt. eigenvalues --    1.35599   1.37007   1.37812   1.38448   1.39787
 Alpha virt. eigenvalues --    1.40973   1.43068   1.48324   1.50283   1.51395
 Alpha virt. eigenvalues --    1.53209   1.55313   1.57689   1.59922   1.61173
 Alpha virt. eigenvalues --    1.62877   1.63642   1.64138   1.68609   1.70844
 Alpha virt. eigenvalues --    1.72901   1.74536   1.76809   1.77558   1.78516
 Alpha virt. eigenvalues --    1.80175   1.80580   1.80979   1.82437   1.83381
 Alpha virt. eigenvalues --    1.83696   1.84282   1.84818   1.85230   1.86070
 Alpha virt. eigenvalues --    1.87639   1.88726   1.90314   1.90855   1.91738
 Alpha virt. eigenvalues --    1.93379   1.94378   1.95446   1.95717   1.98164
 Alpha virt. eigenvalues --    1.98678   1.98989   1.99545   2.00562   2.02191
 Alpha virt. eigenvalues --    2.03197   2.04935   2.05894   2.07368   2.08089
 Alpha virt. eigenvalues --    2.08719   2.09639   2.11902   2.12655   2.13012
 Alpha virt. eigenvalues --    2.15950   2.16475   2.19007   2.20270   2.21273
 Alpha virt. eigenvalues --    2.23362   2.24040   2.25513   2.28892   2.32138
 Alpha virt. eigenvalues --    2.35354   2.35462   2.37599   2.38759   2.39490
 Alpha virt. eigenvalues --    2.40509   2.41329   2.43102   2.43677   2.45024
 Alpha virt. eigenvalues --    2.46120   2.48520   2.50291   2.50527   2.52539
 Alpha virt. eigenvalues --    2.56569   2.59018   2.61863   2.62664   2.67331
 Alpha virt. eigenvalues --    2.70936   2.71548   2.73053   2.73981   2.76629
 Alpha virt. eigenvalues --    2.77526   2.78871   2.80003   2.81067   2.81841
 Alpha virt. eigenvalues --    2.82467   2.83819   2.87100   2.89980   2.91666
 Alpha virt. eigenvalues --    2.93261   2.96239   2.97176   2.99616   3.02717
 Alpha virt. eigenvalues --    3.03820   3.04190   3.05972   3.08711   3.09985
 Alpha virt. eigenvalues --    3.12355   3.13225   3.16289   3.20928   3.24448
 Alpha virt. eigenvalues --    3.28880   3.31409   3.32511   3.34469   3.47555
 Alpha virt. eigenvalues --    3.58546   3.71238   3.74155   3.82656
          Condensed to atoms (all electrons):
               1          2          3          4          5          6
     1  C    5.738141   0.352990  -0.141301   0.255392   0.002721  -0.000579
     2  C    0.352990   4.449361   0.636626  -0.016477  -0.000907   0.000199
     3  O   -0.141301   0.636626   7.928232   0.016856  -0.017135   0.000479
     4  C    0.255392  -0.016477   0.016856   5.474429  -0.031427  -0.012681
     5  C    0.002721  -0.000907  -0.017135  -0.031427   4.540164   0.395581
     6  H   -0.000579   0.000199   0.000479  -0.012681   0.395581   0.592400
     7  H   -0.000490   0.000013   0.000255   0.005242   0.397472  -0.021130
     8  H   -0.002440   0.000393   0.041305  -0.003708   0.385465  -0.012185
     9  N   -0.092126  -0.004912   0.001552   0.095455   0.303752  -0.015109
    10  H    0.001666   0.006784   0.002441   0.012824  -0.014503   0.005527
    11  H    0.006532  -0.000331  -0.000008  -0.004784  -0.015637  -0.006064
    12  C   -0.051516   0.010347   0.000818   0.166197   0.004265   0.000662
    13  C   -0.014884   0.000362  -0.000004  -0.097483   0.000064   0.000154
    14  C    0.000757  -0.000005  -0.000000   0.013079   0.000009  -0.000001
    15  C    0.000004   0.000000  -0.000000  -0.001744  -0.000001  -0.000000
    16  C   -0.000469   0.000007  -0.000000   0.021154  -0.000001  -0.000005
    17  C    0.007212  -0.000553  -0.000003  -0.089719   0.000139  -0.000152
    18  H    0.018654  -0.000763  -0.000036  -0.014649   0.000026  -0.000023
    19  H   -0.000018  -0.000001   0.000000  -0.000297  -0.000000  -0.000000
    20  H    0.000001   0.000000   0.000000   0.000020   0.000000   0.000000
    21  H    0.000005  -0.000000   0.000000  -0.000276  -0.000000  -0.000000
    22  H    0.000441  -0.000025   0.000004  -0.034901  -0.000089  -0.000080
    23  C   -0.043445  -0.016348  -0.016167   0.402109   0.020667   0.007120
    24  H   -0.024600   0.003020   0.024909   0.007927   0.004759  -0.002373
    25  H   -0.000225  -0.001285   0.000018  -0.009016  -0.000055   0.000110
    26  H    0.009570   0.000999   0.000053   0.004273  -0.002091   0.001062
    27  H    0.404052  -0.010864   0.004199  -0.062935  -0.000052   0.000004
    28  O   -0.131489   0.364731  -0.083522   0.005267  -0.000041   0.000001
    29  C    0.010640  -0.039267   0.001374  -0.000479   0.000006   0.000000
    30  H    0.001087  -0.003950   0.008323   0.000047  -0.000005  -0.000000
    31  H    0.000165   0.005688   0.001056   0.000001  -0.000000  -0.000000
    32  H    0.000781  -0.005487   0.009401   0.000055   0.000004  -0.000000
               7          8          9         10         11         12
     1  C   -0.000490  -0.002440  -0.092126   0.001666   0.006532  -0.051516
     2  C    0.000013   0.000393  -0.004912   0.006784  -0.000331   0.010347
     3  O    0.000255   0.041305   0.001552   0.002441  -0.000008   0.000818
     4  C    0.005242  -0.003708   0.095455   0.012824  -0.004784   0.166197
     5  C    0.397472   0.385465   0.303752  -0.014503  -0.015637   0.004265
     6  H   -0.021130  -0.012185  -0.015109   0.005527  -0.006064   0.000662
     7  H    0.588695  -0.014129  -0.016520  -0.006380  -0.005446  -0.000278
     8  H   -0.014129   0.520895  -0.016645  -0.004428   0.005269   0.000368
     9  N   -0.016520  -0.016645   6.306171   0.320782   0.332746  -0.025173
    10  H   -0.006380  -0.004428   0.320782   0.491665  -0.007055  -0.008733
    11  H   -0.005446   0.005269   0.332746  -0.007055   0.509023  -0.008660
    12  C   -0.000278   0.000368  -0.025173  -0.008733  -0.008660   5.496658
    13  C   -0.000073  -0.000020  -0.010234   0.005240   0.005572   0.273907
    14  C   -0.000001  -0.000001  -0.000342   0.000123  -0.000337   0.071191
    15  C    0.000000   0.000000   0.000046   0.000008  -0.000030  -0.142766
    16  C    0.000000  -0.000001  -0.000177   0.000003  -0.000306   0.065550
    17  C   -0.000005  -0.000017  -0.000180  -0.000370   0.002135   0.344505
    18  H   -0.000012   0.000008  -0.003161   0.002184   0.001870  -0.080226
    19  H    0.000000   0.000000   0.000003  -0.000006   0.000013   0.014306
    20  H   -0.000000   0.000000  -0.000000   0.000000  -0.000003  -0.001482
    21  H    0.000000   0.000000   0.000002  -0.000000   0.000002   0.014433
    22  H    0.000000   0.000011   0.000377  -0.000021   0.000106  -0.050051
    23  C   -0.000267  -0.001558  -0.060144   0.006037   0.002688  -0.069457
    24  H    0.000183  -0.001097  -0.010358   0.000259  -0.000160   0.007032
    25  H   -0.000018   0.000088   0.005999  -0.000250  -0.000241  -0.008945
    26  H    0.000314  -0.000664  -0.002470  -0.000740   0.000621  -0.016190
    27  H    0.000011  -0.000131   0.003454   0.000462  -0.000100  -0.004251
    28  O    0.000001   0.000299   0.000052  -0.000510   0.000003  -0.000017
    29  C    0.000000  -0.000037   0.000012  -0.000041  -0.000001   0.000005
    30  H   -0.000002   0.000043  -0.000027   0.000167   0.000001  -0.000004
    31  H   -0.000000   0.000001   0.000000  -0.000002   0.000000  -0.000001
    32  H    0.000000  -0.000046   0.000004  -0.000032  -0.000000   0.000001
              13         14         15         16         17         18
     1  C   -0.014884   0.000757   0.000004  -0.000469   0.007212   0.018654
     2  C    0.000362  -0.000005   0.000000   0.000007  -0.000553  -0.000763
     3  O   -0.000004  -0.000000  -0.000000  -0.000000  -0.000003  -0.000036
     4  C   -0.097483   0.013079  -0.001744   0.021154  -0.089719  -0.014649
     5  C    0.000064   0.000009  -0.000001  -0.000001   0.000139   0.000026
     6  H    0.000154  -0.000001  -0.000000  -0.000005  -0.000152  -0.000023
     7  H   -0.000073  -0.000001   0.000000   0.000000  -0.000005  -0.000012
     8  H   -0.000020  -0.000001   0.000000  -0.000001  -0.000017   0.000008
     9  N   -0.010234  -0.000342   0.000046  -0.000177  -0.000180  -0.003161
    10  H    0.005240   0.000123   0.000008   0.000003  -0.000370   0.002184
    11  H    0.005572  -0.000337  -0.000030  -0.000306   0.002135   0.001870
    12  C    0.273907   0.071191  -0.142766   0.065550   0.344505  -0.080226
    13  C    5.177303   0.323165   0.073149  -0.131979   0.031715   0.453619
    14  C    0.323165   5.021697   0.296308   0.075202  -0.122566  -0.055160
    15  C    0.073149   0.296308   5.076878   0.305248   0.068684   0.013102
    16  C   -0.131979   0.075202   0.305248   5.061504   0.301164  -0.002029
    17  C    0.031715  -0.122566   0.068684   0.301164   5.068296   0.012880
    18  H    0.453619  -0.055160   0.013102  -0.002029   0.012880   0.643077
    19  H   -0.063371   0.449284  -0.067072   0.012344  -0.001626  -0.011541
    20  H    0.012520  -0.064075   0.447530  -0.062607   0.012556  -0.000187
    21  H   -0.001599   0.012221  -0.067266   0.445031  -0.058964   0.000021
    22  H    0.013413  -0.001868   0.013116  -0.067823   0.448235  -0.000137
    23  C    0.014783  -0.000475   0.000143  -0.000907   0.009333   0.000965
    24  H   -0.000096   0.000006   0.000003  -0.000045   0.000707   0.000051
    25  H   -0.000134   0.000024  -0.000048   0.000671   0.000077  -0.000029
    26  H   -0.001273  -0.000002  -0.000050   0.000934   0.004106  -0.000095
    27  H   -0.003703   0.000733  -0.000097   0.000005   0.000462   0.000716
    28  O   -0.000021  -0.000000  -0.000000   0.000000   0.000000  -0.000018
    29  C    0.000000   0.000000  -0.000000   0.000000  -0.000000  -0.000005
    30  H    0.000001   0.000000  -0.000000   0.000000  -0.000000   0.000000
    31  H    0.000000  -0.000000   0.000000  -0.000000   0.000000   0.000000
    32  H   -0.000000  -0.000000  -0.000000  -0.000000   0.000000  -0.000000
              19         20         21         22         23         24
     1  C   -0.000018   0.000001   0.000005   0.000441  -0.043445  -0.024600
     2  C   -0.000001   0.000000  -0.000000  -0.000025  -0.016348   0.003020
     3  O    0.000000   0.000000   0.000000   0.000004  -0.016167   0.024909
     4  C   -0.000297   0.000020  -0.000276  -0.034901   0.402109   0.007927
     5  C   -0.000000   0.000000  -0.000000  -0.000089   0.020667   0.004759
     6  H   -0.000000   0.000000  -0.000000  -0.000080   0.007120  -0.002373
     7  H    0.000000  -0.000000   0.000000   0.000000  -0.000267   0.000183
     8  H    0.000000   0.000000   0.000000   0.000011  -0.001558  -0.001097
     9  N    0.000003  -0.000000   0.000002   0.000377  -0.060144  -0.010358
    10  H   -0.000006   0.000000  -0.000000  -0.000021   0.006037   0.000259
    11  H    0.000013  -0.000003   0.000002   0.000106   0.002688  -0.000160
    12  C    0.014306  -0.001482   0.014433  -0.050051  -0.069457   0.007032
    13  C   -0.063371   0.012520  -0.001599   0.013413   0.014783  -0.000096
    14  C    0.449284  -0.064075   0.012221  -0.001868  -0.000475   0.000006
    15  C   -0.067072   0.447530  -0.067266   0.013116   0.000143   0.000003
    16  C    0.012344  -0.062607   0.445031  -0.067823  -0.000907  -0.000045
    17  C   -0.001626   0.012556  -0.058964   0.448235   0.009333   0.000707
    18  H   -0.011541  -0.000187   0.000021  -0.000137   0.000965   0.000051
    19  H    0.647173  -0.010563  -0.000208   0.000023   0.000004  -0.000000
    20  H   -0.010563   0.644719  -0.010587  -0.000202   0.000000   0.000000
    21  H   -0.000208  -0.010587   0.649003  -0.011790  -0.000002  -0.000000
    22  H    0.000023  -0.000202  -0.011790   0.653590   0.019740   0.000023
    23  C    0.000004   0.000000  -0.000002   0.019740   4.543024   0.373667
    24  H   -0.000000   0.000000  -0.000000   0.000023   0.373667   0.594150
    25  H    0.000000  -0.000000   0.000011   0.000633   0.388097  -0.012009
    26  H    0.000000  -0.000000   0.000019  -0.001146   0.355335  -0.027058
    27  H    0.000040  -0.000001   0.000000   0.000011   0.002022   0.000048
    28  O    0.000000  -0.000000   0.000000   0.000000  -0.000166   0.000068
    29  C   -0.000000   0.000000  -0.000000  -0.000000   0.000009  -0.000067
    30  H   -0.000000  -0.000000   0.000000  -0.000000   0.000014  -0.000049
    31  H   -0.000000  -0.000000   0.000000  -0.000000   0.000002  -0.000003
    32  H    0.000000  -0.000000  -0.000000  -0.000000  -0.000037   0.000159
              25         26         27         28         29         30
     1  C   -0.000225   0.009570   0.404052  -0.131489   0.010640   0.001087
     2  C   -0.001285   0.000999  -0.010864   0.364731  -0.039267  -0.003950
     3  O    0.000018   0.000053   0.004199  -0.083522   0.001374   0.008323
     4  C   -0.009016   0.004273  -0.062935   0.005267  -0.000479   0.000047
     5  C   -0.000055  -0.002091  -0.000052  -0.000041   0.000006  -0.000005
     6  H    0.000110   0.001062   0.000004   0.000001   0.000000  -0.000000
     7  H   -0.000018   0.000314   0.000011   0.000001   0.000000  -0.000002
     8  H    0.000088  -0.000664  -0.000131   0.000299  -0.000037   0.000043
     9  N    0.005999  -0.002470   0.003454   0.000052   0.000012  -0.000027
    10  H   -0.000250  -0.000740   0.000462  -0.000510  -0.000041   0.000167
    11  H   -0.000241   0.000621  -0.000100   0.000003  -0.000001   0.000001
    12  C   -0.008945  -0.016190  -0.004251  -0.000017   0.000005  -0.000004
    13  C   -0.000134  -0.001273  -0.003703  -0.000021   0.000000   0.000001
    14  C    0.000024  -0.000002   0.000733  -0.000000   0.000000   0.000000
    15  C   -0.000048  -0.000050  -0.000097  -0.000000  -0.000000  -0.000000
    16  C    0.000671   0.000934   0.000005   0.000000   0.000000   0.000000
    17  C    0.000077   0.004106   0.000462   0.000000  -0.000000  -0.000000
    18  H   -0.000029  -0.000095   0.000716  -0.000018  -0.000005   0.000000
    19  H    0.000000   0.000000   0.000040   0.000000  -0.000000  -0.000000
    20  H   -0.000000  -0.000000  -0.000001  -0.000000   0.000000  -0.000000
    21  H    0.000011   0.000019   0.000000   0.000000  -0.000000   0.000000
    22  H    0.000633  -0.001146   0.000011   0.000000  -0.000000  -0.000000
    23  C    0.388097   0.355335   0.002022  -0.000166   0.000009   0.000014
    24  H   -0.012009  -0.027058   0.000048   0.000068  -0.000067  -0.000049
    25  H    0.604329  -0.024927   0.000785  -0.000010  -0.000001  -0.000000
    26  H   -0.024927   0.682684  -0.000158  -0.000000   0.000000  -0.000001
    27  H    0.000785  -0.000158   0.658652   0.006001  -0.000183   0.000032
    28  O   -0.000010  -0.000000   0.006001   8.011961   0.289114  -0.031991
    29  C   -0.000001   0.000000  -0.000183   0.289114   4.392625   0.397289
    30  H   -0.000000  -0.000001   0.000032  -0.031991   0.397289   0.676442
    31  H   -0.000000   0.000000  -0.000177  -0.025949   0.395435  -0.027676
    32  H    0.000001   0.000001   0.000027  -0.030504   0.401676  -0.038577
              31         32
     1  C    0.000165   0.000781
     2  C    0.005688  -0.005487
     3  O    0.001056   0.009401
     4  C    0.000001   0.000055
     5  C   -0.000000   0.000004
     6  H   -0.000000  -0.000000
     7  H   -0.000000   0.000000
     8  H    0.000001  -0.000046
     9  N    0.000000   0.000004
    10  H   -0.000002  -0.000032
    11  H    0.000000  -0.000000
    12  C   -0.000001   0.000001
    13  C    0.000000  -0.000000
    14  C   -0.000000  -0.000000
    15  C    0.000000  -0.000000
    16  C   -0.000000  -0.000000
    17  C    0.000000   0.000000
    18  H    0.000000  -0.000000
    19  H   -0.000000   0.000000
    20  H   -0.000000  -0.000000
    21  H    0.000000  -0.000000
    22  H   -0.000000  -0.000000
    23  C    0.000002  -0.000037
    24  H   -0.000003   0.000159
    25  H   -0.000000   0.000001
    26  H    0.000000   0.000001
    27  H   -0.000177   0.000027
    28  O   -0.025949  -0.030504
    29  C    0.395435   0.401676
    30  H   -0.027676  -0.038577
    31  H    0.645782  -0.027317
    32  H   -0.027317   0.663670
 Mulliken charges:
               1
     1  C   -0.307229
     2  C    0.269654
     3  O   -0.419724
     4  C   -0.099749
     5  C    0.026850
     6  H    0.067084
     7  H    0.072563
     8  H    0.102965
     9  N   -0.112829
    10  H    0.186898
    11  H    0.182583
    12  C   -0.002497
    13  C   -0.060095
    14  C   -0.018967
    15  C   -0.015144
    16  C   -0.022470
    17  C   -0.038050
    18  H    0.020899
    19  H    0.031514
    20  H    0.032361
    21  H    0.029944
    22  H    0.018412
    23  C    0.063216
    24  H    0.060945
    25  H    0.056349
    26  H    0.016892
    27  H    0.000936
    28  O   -0.373259
    29  C    0.151896
    30  H    0.018837
    31  H    0.032995
    32  H    0.026220
 Sum of Mulliken charges =  -0.00000
 Mulliken charges with hydrogens summed into heavy atoms:
               1
     1  C   -0.306292
     2  C    0.269654
     3  O   -0.419724
     4  C   -0.099749
     5  C    0.269463
     9  N    0.256652
    12  C   -0.002497
    13  C   -0.039195
    14  C    0.012547
    15  C    0.017217
    16  C    0.007474
    17  C   -0.019638
    23  C    0.197402
    28  O   -0.373259
    29  C    0.229948
 APT charges:
               1
     1  C   -1.046688
     2  C    1.704741
     3  O   -1.058035
     4  C    0.958162
     5  C    0.154799
     6  H    0.030767
     7  H    0.007561
     8  H    0.131227
     9  N   -0.592175
    10  H    0.221651
    11  H    0.208973
    12  C   -0.002963
    13  C   -0.106205
    14  C   -0.021517
    15  C   -0.049849
    16  C   -0.023038
    17  C   -0.083946
    18  H    0.074738
    19  H    0.035286
    20  H    0.038190
    21  H    0.033547
    22  H    0.065556
    23  C   -0.117750
    24  H    0.065849
    25  H    0.028671
    26  H   -0.028300
    27  H    0.042505
    28  O   -1.156295
    29  C    0.634893
    30  H   -0.061064
    31  H   -0.037945
    32  H   -0.051346
 Sum of APT charges =  -0.00000
 APT charges with hydrogens summed into heavy atoms:
               1
     1  C   -1.004183
     2  C    1.704741
     3  O   -1.058035
     4  C    0.958162
     5  C    0.324354
     9  N   -0.161551
    12  C   -0.002963
    13  C   -0.031467
    14  C    0.013769
    15  C   -0.011659
    16  C    0.010509
    17  C   -0.018390
    23  C   -0.051529
    28  O   -1.156295
    29  C    0.484538
 Electronic spatial extent (au):  <R**2>=           3887.7606
 Charge=             -0.0000 electrons
 Dipole moment (field-independent basis, Debye):
    X=              5.2339    Y=              4.0259    Z=             -3.3733  Tot=              7.4149
 Quadrupole moment (field-independent basis, Debye-Ang):
   XX=            -92.5000   YY=            -85.3948   ZZ=            -82.7091
   XY=              0.2257   XZ=              2.1501   YZ=             -1.0259
 Traceless Quadrupole moment (field-independent basis, Debye-Ang):
   XX=             -5.6320   YY=              1.4731   ZZ=              4.1589
   XY=              0.2257   XZ=              2.1501   YZ=             -1.0259
 Octapole moment (field-independent basis, Debye-Ang**2):
  XXX=             15.3041  YYY=             30.7297  ZZZ=            -14.9380  XYY=             -3.6857
  XXY=            -24.9994  XXZ=              2.0858  XZZ=             -6.1982  YZZ=             11.7444
  YYZ=            -16.7739  XYZ=             10.1348
 Hexadecapole moment (field-independent basis, Debye-Ang**3):
 XXXX=          -3435.0553 YYYY=           -913.3498 ZZZZ=           -450.5045 XXXY=             50.2694
 XXXZ=             24.7916 YYYX=             -2.7355 YYYZ=            -21.7048 ZZZX=              7.9367
 ZZZY=            -13.7666 XXYY=           -775.7750 XXZZ=           -683.5270 YYZZ=           -219.4846
 XXYZ=             29.7273 YYXZ=             -8.2219 ZZXY=             -1.2369
 N-N= 1.010486119218D+03 E-N=-3.583104034597D+03  KE= 6.648223823814D+02
  Exact polarizability:     214.972      -5.111     142.523       4.734      16.507     130.931
 Approx polarizability:     183.477      -7.314     145.863       5.596      18.322     138.923
   1 Symmetry operations used in ECPInt.
 ECPInt:  NShTT=   10011 NPrTT=   35491 LenC2=    9437 LenP2D=   24603.
 LDataN:  DoStor=T MaxTD1= 6 Len=  172
 D2PCM: PCM CHGder 2nd derivatives, FixD1E=F FixD2E=F DoIter=F DoCFld=F I1PDM=0
 Calling FoFJK, ICntrl=    100127 FMM=F ISym2X=0 I1Cent= 0 IOpClX= 0 NMat=1 NMatS=1 NMatT=0.
 Full mass-weighted force constant matrix:
 Low frequencies ---  -74.6803   -6.3484   -0.0003    0.0002    0.0007    7.4332
 Low frequencies ---   12.3164   49.7013   73.3829
 ******    1 imaginary frequencies (negative Signs) ****** 
 Diagonal vibrational polarizability:
       90.1635406      53.9632248      64.6765691
 Harmonic frequencies (cm**-1), IR intensities (KM/Mole), Raman scattering
 activities (A**4/AMU), depolarization ratios for plane and unpolarized
 incident light, reduced masses (AMU), force constants (mDyne/A),
 and normal coordinates:
                      1                      2                      3
                      A                      A                      A
 Frequencies --    -74.6424                49.5663                73.3428
 Red. masses --      2.8206                 3.8078                 3.0742
 Frc consts  --      0.0093                 0.0055                 0.0097
 IR Inten    --      2.1069                 0.5082                 5.3341
  Atom  AN      X      Y      Z        X      Y      Z        X      Y      Z
     1   6    -0.01   0.06  -0.08    -0.02  -0.01   0.01    -0.02  -0.04  -0.16
     2   6    -0.03   0.04   0.03    -0.02   0.01   0.01    -0.02  -0.01  -0.09
     3   8    -0.09   0.02   0.20    -0.02   0.02   0.07     0.00   0.00  -0.05
     4   6     0.01   0.00  -0.01     0.00  -0.03   0.05    -0.01  -0.05  -0.06
     5   6    -0.13  -0.05  -0.09    -0.01  -0.02   0.07     0.07   0.03   0.05
     6   1    -0.37   0.04   0.05    -0.05  -0.01   0.10     0.08  -0.02   0.10
     7   1    -0.05  -0.01  -0.09     0.01   0.01   0.07     0.10   0.09   0.07
     8   1    -0.17  -0.28  -0.24    -0.01  -0.06   0.04     0.06   0.03   0.02
     9   7     0.16   0.09  -0.05     0.04   0.01   0.06     0.04   0.02  -0.01
    10   1     0.42   0.00  -0.21     0.09   0.00   0.01     0.04   0.06  -0.05
    11   1     0.24   0.31   0.16     0.06   0.05   0.10     0.05   0.02   0.01
    12   6     0.00  -0.03   0.01     0.00  -0.04   0.03    -0.00  -0.03  -0.02
    13   6     0.02  -0.01  -0.00    -0.04  -0.17   0.13     0.05  -0.04   0.01
    14   6     0.02  -0.01   0.01    -0.03  -0.14   0.10     0.07   0.00   0.04
    15   6     0.01  -0.02   0.02     0.02   0.04  -0.05     0.04   0.06   0.04
    16   6    -0.00  -0.04   0.03     0.06   0.19  -0.17    -0.01   0.08   0.01
    17   6    -0.01  -0.04   0.02     0.05   0.14  -0.12    -0.03   0.03  -0.02
    18   1     0.03   0.01  -0.03    -0.07  -0.29   0.24     0.07  -0.08   0.00
    19   1     0.03   0.00  -0.00    -0.06  -0.25   0.19     0.11  -0.01   0.06
    20   1     0.01  -0.02   0.03     0.03   0.07  -0.08     0.06   0.10   0.06
    21   1    -0.01  -0.05   0.05     0.10   0.33  -0.29    -0.03   0.13   0.02
    22   1    -0.01  -0.05   0.03     0.09   0.25  -0.21    -0.06   0.04  -0.04
    23   6     0.01   0.03  -0.04     0.01  -0.05   0.06    -0.06  -0.13  -0.01
    24   1     0.02   0.05  -0.06     0.00  -0.07   0.09    -0.07  -0.14  -0.02
    25   1    -0.01   0.04  -0.02     0.05  -0.06   0.05    -0.08  -0.18  -0.04
    26   1     0.03   0.01  -0.05    -0.02  -0.04   0.06    -0.08  -0.11   0.07
    27   1    -0.03   0.04  -0.27    -0.05  -0.02  -0.04    -0.04  -0.05  -0.13
    28   8     0.02  -0.00  -0.06    -0.03   0.01  -0.09    -0.04   0.01  -0.05
    29   6     0.01  -0.04   0.02    -0.02   0.02  -0.14    -0.07   0.07   0.26
    30   1    -0.06   0.04   0.08     0.02   0.06  -0.14    -0.25   0.27   0.41
    31   1     0.05  -0.07  -0.05    -0.03   0.02  -0.20    -0.08   0.06   0.16
    32   1     0.03  -0.13   0.10    -0.05  -0.00  -0.14     0.11  -0.08   0.47
                      4                      5                      6
                      A                      A                      A
 Frequencies --     84.7324               102.3691               118.3663
 Red. masses --      4.4204                 1.8550                 2.1272
 Frc consts  --      0.0187                 0.0115                 0.0176
 IR Inten    --      5.2207                 7.5176                 4.1147
  Atom  AN      X      Y      Z        X      Y      Z        X      Y      Z
     1   6    -0.04  -0.08   0.08     0.02  -0.01   0.05     0.00  -0.02  -0.09
     2   6    -0.04  -0.01   0.08     0.02  -0.01   0.03    -0.00  -0.01   0.04
     3   8     0.03   0.03   0.14     0.02  -0.00   0.12     0.00   0.00   0.16
     4   6    -0.02  -0.12   0.06    -0.01   0.00   0.01    -0.01  -0.02  -0.06
     5   6     0.10  -0.11  -0.12     0.07   0.06  -0.03     0.06   0.08   0.02
     6   1     0.14  -0.11  -0.16     0.21   0.02  -0.14     0.17   0.02  -0.02
     7   1     0.11  -0.15  -0.14    -0.02   0.03  -0.04    -0.00   0.11   0.04
     8   1     0.09  -0.02  -0.10     0.10   0.19   0.09     0.09   0.16   0.10
     9   7     0.02  -0.14  -0.04    -0.08  -0.01  -0.05    -0.05   0.03  -0.06
    10   1    -0.01  -0.15   0.00    -0.22   0.02   0.06    -0.15   0.08  -0.01
    11   1     0.03  -0.22  -0.05    -0.13  -0.14  -0.16    -0.08  -0.04  -0.14
    12   6    -0.01  -0.09   0.07    -0.00   0.03  -0.02    -0.00   0.01  -0.06
    13   6     0.04   0.01  -0.00    -0.01   0.01  -0.00     0.04  -0.01  -0.04
    14   6     0.08   0.16  -0.09    -0.02  -0.02   0.02     0.04  -0.03   0.04
    15   6     0.07   0.20  -0.09    -0.02  -0.04   0.04     0.01  -0.02   0.07
    16   6     0.01   0.06   0.01    -0.01  -0.01   0.01    -0.03   0.02   0.03
    17   6    -0.03  -0.08   0.08    -0.00   0.02  -0.01    -0.03   0.03  -0.04
    18   1     0.06  -0.01  -0.02    -0.01   0.02  -0.01     0.07  -0.01  -0.07
    19   1     0.13   0.25  -0.15    -0.02  -0.04   0.04     0.07  -0.05   0.07
    20   1     0.10   0.33  -0.16    -0.03  -0.07   0.06     0.01  -0.05   0.13
    21   1    -0.01   0.08   0.02    -0.01  -0.02   0.02    -0.05   0.03   0.05
    22   1    -0.07  -0.16   0.14    -0.00   0.04  -0.03    -0.05   0.05  -0.06
    23   6    -0.02  -0.03  -0.02     0.00   0.04  -0.03    -0.03  -0.05  -0.04
    24   1    -0.01  -0.01  -0.05    -0.00   0.03  -0.01    -0.03  -0.09  -0.02
    25   1    -0.04   0.03   0.03     0.03   0.08  -0.01    -0.00  -0.07  -0.06
    26   1     0.01  -0.05  -0.08    -0.01   0.05  -0.08    -0.05  -0.04  -0.02
    27   1    -0.08  -0.10  -0.07     0.03  -0.01  -0.08     0.00  -0.03  -0.21
    28   8    -0.11   0.04  -0.02     0.03  -0.03  -0.12    -0.01  -0.01   0.05
    29   6    -0.09   0.14  -0.08     0.02  -0.02   0.00     0.00  -0.01  -0.04
    30   1    -0.01   0.18  -0.09    -0.03   0.40   0.22     0.04  -0.43  -0.26
    31   1    -0.17   0.17  -0.13     0.06  -0.07  -0.42    -0.04   0.04   0.38
    32   1    -0.09   0.16  -0.10     0.02  -0.40   0.31     0.02   0.36  -0.34
                      7                      8                      9
                      A                      A                      A
 Frequencies --    137.3021               159.8302               215.1028
 Red. masses --      3.6250                 2.1942                 3.7285
 Frc consts  --      0.0403                 0.0330                 0.1016
 IR Inten    --      1.2348                 1.7890                19.6190
  Atom  AN      X      Y      Z        X      Y      Z        X      Y      Z
     1   6    -0.04   0.05   0.01    -0.02   0.00  -0.07     0.10  -0.11  -0.01
     2   6    -0.05   0.02   0.00    -0.02   0.02   0.04     0.11  -0.11   0.02
     3   8    -0.10  -0.02  -0.03    -0.02   0.01  -0.02     0.19  -0.08   0.01
     4   6    -0.02  -0.01   0.06    -0.00  -0.01  -0.05    -0.02  -0.06   0.07
     5   6     0.27   0.13  -0.06     0.01   0.02   0.03    -0.03   0.08  -0.12
     6   1     0.30   0.05   0.00    -0.00  -0.00   0.07    -0.20   0.06   0.09
     7   1     0.37   0.18  -0.05     0.02   0.06   0.04     0.21   0.17  -0.11
     8   1     0.22   0.24  -0.12     0.01  -0.01   0.01    -0.12   0.02  -0.34
     9   7     0.13   0.07  -0.03     0.02   0.02  -0.02     0.04   0.11  -0.04
    10   1     0.09   0.12  -0.04     0.03   0.04  -0.05     0.14   0.09  -0.12
    11   1     0.16  -0.04   0.02     0.03   0.05  -0.00     0.09   0.15   0.08
    12   6    -0.04  -0.05   0.08     0.00  -0.01  -0.04    -0.03   0.03   0.05
    13   6    -0.08  -0.03   0.06     0.03  -0.02  -0.03    -0.08   0.04   0.02
    14   6    -0.07   0.02  -0.03     0.04  -0.00   0.00    -0.11  -0.00  -0.01
    15   6    -0.04   0.05  -0.09     0.02   0.01   0.02    -0.09  -0.03  -0.02
    16   6    -0.01   0.01  -0.04    -0.01   0.01   0.01    -0.03   0.00  -0.03
    17   6    -0.02  -0.04   0.05    -0.02  -0.00  -0.02    -0.02   0.04   0.01
    18   1    -0.10  -0.03   0.08     0.05  -0.03  -0.05    -0.11   0.07   0.04
    19   1    -0.10   0.04  -0.06     0.07  -0.01   0.01    -0.14  -0.01  -0.01
    20   1    -0.03   0.10  -0.17     0.03   0.01   0.05    -0.10  -0.06  -0.04
    21   1     0.02   0.02  -0.09    -0.03   0.02   0.03     0.00  -0.01  -0.06
    22   1    -0.00  -0.06   0.07    -0.04   0.00  -0.03    -0.00   0.05   0.01
    23   6    -0.05   0.04   0.00    -0.01  -0.05  -0.02    -0.15  -0.06   0.03
    24   1    -0.04   0.09  -0.07    -0.01  -0.05  -0.02    -0.17  -0.11  -0.06
    25   1    -0.12   0.07   0.04    -0.02  -0.09  -0.04    -0.18  -0.02   0.06
    26   1    -0.01   0.02   0.00    -0.01  -0.05   0.02    -0.19  -0.03   0.04
    27   1    -0.05   0.04  -0.09    -0.03  -0.00  -0.02     0.15  -0.09  -0.19
    28   8     0.03  -0.04   0.04    -0.03   0.03   0.23     0.03  -0.04   0.06
    29   6     0.02  -0.19   0.03    -0.00  -0.02  -0.09     0.05   0.15  -0.01
    30   1    -0.03  -0.30  -0.01     0.24   0.37   0.02     0.18   0.24  -0.00
    31   1     0.12  -0.23   0.11     0.05  -0.09  -0.64    -0.09   0.21  -0.09
    32   1    -0.05  -0.17  -0.03    -0.29  -0.40   0.07     0.10   0.17  -0.01
                     10                     11                     12
                      A                      A                      A
 Frequencies --    236.5256               264.7641               284.3020
 Red. masses --      3.4752                 1.3463                 3.5846
 Frc consts  --      0.1145                 0.0556                 0.1707
 IR Inten    --     36.9421                 1.2067                 1.3602
  Atom  AN      X      Y      Z        X      Y      Z        X      Y      Z
     1   6    -0.00  -0.02   0.11    -0.02  -0.01   0.08    -0.04  -0.02   0.05
     2   6    -0.02  -0.03   0.01    -0.02  -0.02   0.02    -0.08  -0.05   0.01
     3   8     0.01  -0.04  -0.09    -0.02  -0.02  -0.01    -0.10  -0.07  -0.03
     4   6    -0.00  -0.12   0.09    -0.01  -0.01   0.01     0.00  -0.04   0.09
     5   6    -0.12   0.16   0.01     0.02   0.03  -0.00     0.03   0.02  -0.09
     6   1    -0.03   0.21  -0.14    -0.22  -0.14   0.45     0.14   0.16  -0.36
     7   1    -0.39   0.16   0.03     0.54   0.29   0.04    -0.23  -0.16  -0.13
     8   1    -0.02   0.15   0.22    -0.19  -0.01  -0.46     0.13   0.08   0.14
     9   7    -0.07   0.19  -0.10    -0.03   0.00   0.00     0.06   0.05  -0.00
    10   1    -0.08   0.21  -0.10    -0.05   0.03  -0.01     0.12   0.01  -0.01
    11   1    -0.08   0.22  -0.11    -0.03  -0.03   0.01     0.09   0.05   0.06
    12   6    -0.00  -0.11   0.02     0.01   0.01  -0.04     0.07   0.08   0.03
    13   6     0.05  -0.12   0.04     0.03   0.01  -0.04     0.07   0.15  -0.04
    14   6     0.08  -0.03   0.02     0.04   0.00  -0.00     0.03   0.03  -0.02
    15   6     0.08   0.05  -0.02     0.02  -0.02   0.03     0.05  -0.14   0.04
    16   6     0.02  -0.00   0.01     0.01   0.01   0.00     0.12  -0.03  -0.03
    17   6    -0.01  -0.10   0.03     0.01   0.02  -0.04     0.15   0.11  -0.05
    18   1     0.07  -0.15   0.02     0.05   0.01  -0.06     0.06   0.22  -0.07
    19   1     0.11  -0.01   0.01     0.05  -0.01   0.01    -0.03   0.03  -0.04
    20   1     0.11   0.15  -0.06     0.02  -0.05   0.07     0.00  -0.30   0.12
    21   1    -0.00   0.04   0.01    -0.01   0.01   0.02     0.14  -0.06  -0.04
    22   1    -0.03  -0.13   0.05     0.01   0.03  -0.05     0.21   0.16  -0.08
    23   6     0.09   0.06  -0.05     0.05   0.03  -0.01    -0.05  -0.04   0.08
    24   1     0.10   0.09  -0.02     0.07   0.12  -0.04    -0.08  -0.18   0.13
    25   1     0.14   0.22   0.03    -0.03   0.02   0.01     0.09   0.01   0.08
    26   1     0.10   0.04  -0.26     0.13  -0.03   0.00    -0.16   0.04   0.01
    27   1    -0.02  -0.05  -0.26    -0.01  -0.01   0.05    -0.03  -0.03  -0.12
    28   8    -0.03  -0.01   0.00    -0.04  -0.02  -0.02    -0.12  -0.04   0.01
    29   6    -0.03   0.01   0.01    -0.04  -0.00   0.00    -0.13   0.01  -0.00
    30   1    -0.03   0.01   0.01    -0.05  -0.00   0.00    -0.10   0.02  -0.01
    31   1    -0.05   0.02   0.03    -0.05   0.01   0.01    -0.16   0.03  -0.01
    32   1    -0.01   0.03   0.01    -0.02   0.01   0.00    -0.11   0.02  -0.01
                     13                     14                     15
                      A                      A                      A
 Frequencies --    298.3528               320.0934               356.8940
 Red. masses --      3.2140                 3.7076                 3.0818
 Frc consts  --      0.1686                 0.2238                 0.2313
 IR Inten    --     21.7405                12.0437                36.3333
  Atom  AN      X      Y      Z        X      Y      Z        X      Y      Z
     1   6     0.01  -0.02   0.06    -0.01  -0.02   0.15     0.01   0.03  -0.15
     2   6     0.00  -0.11   0.02     0.01   0.06   0.03    -0.01  -0.07  -0.03
     3   8    -0.02  -0.12   0.00     0.09   0.09  -0.04    -0.08  -0.10   0.02
     4   6    -0.00   0.02  -0.05    -0.01  -0.08   0.07     0.00   0.08  -0.03
     5   6     0.08  -0.05   0.17     0.02  -0.01  -0.10     0.01   0.07  -0.15
     6   1     0.16  -0.03   0.05     0.02   0.08  -0.20     0.01   0.16  -0.27
     7   1    -0.16  -0.04   0.20    -0.06  -0.12  -0.13     0.08  -0.15  -0.24
     8   1     0.18  -0.13   0.35     0.05   0.01  -0.03    -0.02   0.19  -0.17
     9   7     0.15  -0.00   0.01     0.07   0.02   0.02    -0.04   0.02   0.09
    10   1     0.26   0.05  -0.16     0.17   0.00  -0.06    -0.07  -0.03   0.17
    11   1     0.21   0.12   0.14     0.12   0.06   0.14    -0.05  -0.06   0.05
    12   6    -0.04  -0.00  -0.04    -0.06  -0.06  -0.09    -0.01   0.02  -0.02
    13   6    -0.03   0.02  -0.06    -0.02  -0.00  -0.13    -0.03  -0.03   0.02
    14   6    -0.03   0.02  -0.01     0.01   0.03  -0.02    -0.02  -0.01   0.03
    15   6    -0.07   0.01   0.04    -0.08   0.00   0.10    -0.01   0.06  -0.01
    16   6    -0.08   0.04   0.01    -0.13   0.07   0.02    -0.03   0.01   0.02
    17   6    -0.08   0.04  -0.04    -0.13   0.05  -0.10    -0.03  -0.03   0.03
    18   1    -0.02   0.03  -0.08     0.03   0.00  -0.20    -0.03  -0.06   0.05
    19   1     0.01   0.02   0.00     0.10   0.04  -0.01    -0.01  -0.03   0.05
    20   1    -0.07  -0.01   0.09    -0.09  -0.04   0.22    -0.00   0.11  -0.05
    21   1    -0.09   0.05   0.02    -0.18   0.11   0.05    -0.04   0.01   0.03
    22   1    -0.10   0.06  -0.06    -0.18   0.09  -0.16    -0.02  -0.06   0.06
    23   6     0.09   0.13  -0.11     0.12  -0.12   0.13     0.21  -0.03   0.12
    24   1     0.10   0.15  -0.05     0.10  -0.22   0.31     0.25   0.11   0.28
    25   1     0.14   0.23  -0.07     0.34  -0.12   0.08     0.25  -0.17   0.02
    26   1     0.10   0.12  -0.25     0.01  -0.05   0.04     0.32  -0.10   0.15
    27   1     0.08   0.00   0.08    -0.04  -0.04  -0.07     0.06   0.06   0.11
    28   8    -0.04  -0.09  -0.00     0.03   0.06  -0.03    -0.01  -0.08   0.02
    29   6    -0.03   0.10  -0.01     0.02  -0.09   0.02     0.01   0.08  -0.01
    30   1     0.05   0.16  -0.01    -0.07  -0.15   0.01     0.10   0.15  -0.00
    31   1    -0.17   0.16  -0.03     0.13  -0.14   0.06    -0.12   0.14  -0.05
    32   1     0.06   0.15  -0.01    -0.03  -0.12   0.02     0.07   0.13  -0.01
                     16                     17                     18
                      A                      A                      A
 Frequencies --    374.6122               392.9442               403.3327
 Red. masses --      3.8739                 2.1262                 1.3085
 Frc consts  --      0.3203                 0.1934                 0.1254
 IR Inten    --     19.1015                10.5064                 6.0612
  Atom  AN      X      Y      Z        X      Y      Z        X      Y      Z
     1   6     0.01  -0.10  -0.16     0.01  -0.03  -0.01     0.00  -0.00  -0.03
     2   6     0.00  -0.04  -0.05     0.01  -0.04   0.01     0.00  -0.02  -0.01
     3   8     0.20   0.06   0.02     0.11   0.02   0.03     0.03   0.00   0.02
     4   6    -0.01  -0.05  -0.02    -0.02   0.06  -0.00    -0.01   0.05  -0.02
     5   6    -0.02  -0.01   0.02    -0.01   0.05  -0.04     0.01   0.02  -0.01
     6   1    -0.05  -0.04   0.09     0.02   0.19  -0.23    -0.05   0.03   0.03
     7   1     0.00   0.06   0.05    -0.05  -0.21  -0.13     0.14  -0.01  -0.04
     8   1    -0.02  -0.06  -0.00     0.01   0.15   0.01    -0.04   0.04  -0.11
     9   7    -0.00  -0.00  -0.04     0.01   0.03   0.16    -0.00   0.00   0.07
    10   1    -0.01   0.00  -0.04     0.09   0.02   0.08     0.02   0.01   0.04
    11   1    -0.01   0.01  -0.04     0.05   0.05   0.24     0.01   0.00   0.09
    12   6     0.01   0.05   0.09    -0.01  -0.02  -0.05    -0.00  -0.00  -0.02
    13   6    -0.05   0.09   0.07     0.04  -0.03  -0.05     0.01  -0.05   0.02
    14   6    -0.09   0.03   0.03     0.05  -0.03  -0.00     0.03   0.01  -0.02
    15   6    -0.06  -0.00  -0.00     0.04  -0.00  -0.00     0.03   0.01  -0.02
    16   6     0.03   0.02   0.01    -0.00  -0.00  -0.02    -0.00  -0.05   0.02
    17   6     0.04   0.05   0.08    -0.02  -0.03  -0.04     0.00  -0.01  -0.02
    18   1    -0.10   0.14   0.10     0.06  -0.06  -0.06     0.01  -0.10   0.05
    19   1    -0.14   0.03   0.02     0.07  -0.05   0.02     0.04   0.03  -0.04
    20   1    -0.07  -0.05  -0.04     0.05   0.01   0.03     0.04   0.05  -0.03
    21   1     0.08  -0.00  -0.04    -0.03   0.02  -0.00    -0.02  -0.08   0.06
    22   1     0.11   0.04   0.10    -0.05  -0.06  -0.03     0.00   0.03  -0.05
    23   6     0.18   0.02  -0.06    -0.08   0.08  -0.01    -0.04   0.05  -0.01
    24   1     0.23   0.18   0.09    -0.02   0.34  -0.33    -0.15  -0.38   0.25
    25   1     0.26   0.06  -0.05    -0.50   0.02   0.06     0.48   0.25  -0.02
    26   1     0.31  -0.08  -0.23     0.15  -0.07   0.16    -0.42   0.30  -0.28
    27   1     0.03  -0.09  -0.14     0.07   0.01   0.24     0.03   0.02   0.13
    28   8    -0.13   0.03   0.01    -0.06  -0.01  -0.01    -0.02  -0.00   0.00
    29   6    -0.16  -0.15   0.00    -0.07  -0.06  -0.00    -0.03  -0.02  -0.00
    30   1    -0.23  -0.22  -0.01    -0.10  -0.08  -0.00    -0.04  -0.03  -0.00
    31   1    -0.00  -0.22   0.01    -0.03  -0.08   0.00    -0.02  -0.03  -0.00
    32   1    -0.28  -0.22   0.00    -0.10  -0.08   0.00    -0.04  -0.03  -0.00
                     19                     20                     21
                      A                      A                      A
 Frequencies --    426.0697               460.8236               545.3801
 Red. masses --      2.6178                 2.9907                 2.8921
 Frc consts  --      0.2800                 0.3742                 0.5068
 IR Inten    --      0.1280                 8.5046                20.8641
  Atom  AN      X      Y      Z        X      Y      Z        X      Y      Z
     1   6    -0.00  -0.01  -0.01     0.02   0.04   0.16     0.04   0.08  -0.08
     2   6     0.00   0.00  -0.00     0.01  -0.03   0.07     0.01  -0.04  -0.05
     3   8    -0.00  -0.00   0.00     0.05  -0.02   0.00     0.06  -0.02  -0.00
     4   6     0.00  -0.02   0.01     0.02   0.13  -0.13    -0.03   0.11   0.10
     5   6    -0.01   0.00   0.00     0.01   0.01  -0.01     0.02  -0.08   0.02
     6   1     0.01   0.01  -0.02     0.04  -0.03   0.01     0.02  -0.17   0.12
     7   1    -0.05   0.00   0.00    -0.10   0.09   0.03    -0.06   0.11   0.10
     8   1     0.01   0.00   0.03     0.05  -0.08   0.07     0.05  -0.19   0.06
     9   7    -0.00   0.01  -0.02     0.05   0.03  -0.14     0.01  -0.02  -0.12
    10   1    -0.00   0.00  -0.01     0.09   0.06  -0.21    -0.09  -0.11   0.08
    11   1    -0.00   0.00  -0.02     0.07   0.10  -0.09    -0.04  -0.11  -0.24
    12   6     0.00  -0.01   0.01     0.03   0.13  -0.09    -0.06  -0.02  -0.01
    13   6    -0.04  -0.14   0.12    -0.01  -0.02   0.04     0.01  -0.03  -0.01
    14   6     0.03   0.15  -0.12    -0.02  -0.05   0.04     0.04   0.00   0.01
    15   6    -0.01  -0.01   0.01     0.02   0.09  -0.08     0.06  -0.02   0.01
    16   6    -0.03  -0.13   0.11    -0.01  -0.06   0.05    -0.02  -0.02  -0.03
    17   6     0.04   0.16  -0.12     0.00  -0.02   0.03    -0.04  -0.04  -0.07
    18   1    -0.09  -0.29   0.26    -0.05  -0.12   0.14     0.09  -0.05  -0.09
    19   1     0.07   0.33  -0.26    -0.05  -0.15   0.12     0.05   0.03  -0.02
    20   1    -0.02  -0.02   0.02     0.04   0.17  -0.15     0.07   0.01   0.02
    21   1    -0.07  -0.30   0.24    -0.03  -0.17   0.13    -0.07   0.04  -0.01
    22   1     0.09   0.35  -0.27    -0.01  -0.11   0.10    -0.03  -0.01  -0.09
    23   6     0.02  -0.01  -0.00    -0.01  -0.09   0.04    -0.04   0.16   0.22
    24   1     0.06   0.17  -0.12    -0.03  -0.17   0.11    -0.03   0.18   0.25
    25   1    -0.19  -0.09   0.01    -0.02  -0.40  -0.14    -0.05   0.08   0.18
    26   1     0.17  -0.12   0.10    -0.04  -0.06   0.36    -0.02   0.14   0.29
    27   1    -0.02  -0.01   0.02     0.12   0.08   0.33     0.15   0.10  -0.55
    28   8     0.00  -0.00  -0.00    -0.07  -0.02  -0.03    -0.03  -0.02   0.03
    29   6     0.01   0.00  -0.00    -0.09  -0.03  -0.01    -0.05  -0.01   0.00
    30   1     0.01   0.00   0.00    -0.13  -0.05  -0.01    -0.03  -0.01  -0.00
    31   1     0.00   0.00  -0.00    -0.07  -0.04   0.01    -0.05  -0.01  -0.01
    32   1     0.01   0.00  -0.00    -0.09  -0.04   0.00    -0.06  -0.01  -0.00
                     22                     23                     24
                      A                      A                      A
 Frequencies --    567.5399               604.3058               623.2985
 Red. masses --      1.8445                 3.1813                 2.0235
 Frc consts  --      0.3500                 0.6845                 0.4632
 IR Inten    --     13.3779                29.8838               125.9415
  Atom  AN      X      Y      Z        X      Y      Z        X      Y      Z
     1   6    -0.01   0.02  -0.03     0.11   0.04  -0.07    -0.04  -0.08  -0.10
     2   6    -0.00  -0.01   0.02     0.04   0.00  -0.00    -0.02   0.01  -0.02
     3   8     0.03   0.00   0.02    -0.05  -0.05   0.01    -0.01   0.02   0.02
     4   6    -0.02   0.05  -0.05     0.21  -0.03   0.10    -0.06  -0.10   0.12
     5   6    -0.01   0.03  -0.01    -0.02   0.00  -0.00     0.01  -0.01   0.00
     6   1     0.00  -0.01   0.02    -0.08   0.02   0.04     0.05  -0.07   0.03
     7   1    -0.05   0.10   0.02    -0.04   0.04   0.02    -0.05   0.10   0.05
     8   1     0.01  -0.01   0.03    -0.02  -0.07  -0.03     0.04  -0.02   0.05
     9   7    -0.00   0.02  -0.08     0.03   0.03  -0.03    -0.00   0.01  -0.07
    10   1    -0.00   0.03  -0.09    -0.18  -0.07   0.29     0.10  -0.02  -0.13
    11   1     0.00   0.03  -0.07    -0.12  -0.09  -0.33     0.06   0.04   0.07
    12   6    -0.05  -0.12   0.10     0.14  -0.07  -0.04    -0.02   0.07  -0.06
    13   6    -0.00  -0.01   0.02    -0.04  -0.08  -0.11    -0.00   0.04  -0.04
    14   6     0.02   0.07  -0.03    -0.04  -0.04  -0.07    -0.01  -0.02   0.06
    15   6     0.01  -0.09   0.07    -0.15   0.06   0.03     0.05   0.05  -0.04
    16   6     0.03   0.06  -0.06     0.01   0.07   0.08     0.00  -0.05   0.03
    17   6    -0.01  -0.05   0.01     0.02   0.03   0.05     0.01   0.01  -0.06
    18   1     0.03   0.10  -0.08    -0.13  -0.01  -0.04    -0.02  -0.08   0.05
    19   1     0.05   0.23  -0.17     0.12  -0.05  -0.01    -0.05  -0.18   0.19
    20   1     0.00  -0.12   0.09    -0.15   0.06   0.03     0.04   0.01  -0.03
    21   1     0.05   0.25  -0.19     0.08   0.01   0.03    -0.07  -0.18   0.18
    22   1     0.04   0.07  -0.08    -0.14   0.02   0.00    -0.01  -0.11   0.04
    23   6    -0.00  -0.01   0.02    -0.00   0.02   0.03    -0.01   0.04   0.06
    24   1    -0.01  -0.03   0.10    -0.07  -0.16  -0.26     0.02   0.13   0.08
    25   1     0.05  -0.13  -0.07    -0.16   0.16   0.15     0.01   0.18   0.14
    26   1    -0.01   0.01   0.12    -0.17   0.14   0.08     0.06  -0.01  -0.10
    27   1     0.02   0.07   0.78     0.07   0.04   0.41    -0.11  -0.07   0.75
    28   8    -0.00  -0.02  -0.02    -0.04   0.05  -0.01     0.03   0.01  -0.01
    29   6    -0.00  -0.00  -0.00    -0.09  -0.01  -0.01     0.04   0.01   0.00
    30   1     0.01   0.01  -0.00    -0.13  -0.05  -0.01     0.05   0.01   0.00
    31   1    -0.02   0.01  -0.01    -0.00  -0.05   0.00     0.04   0.01  -0.00
    32   1     0.01   0.01  -0.00    -0.14  -0.04  -0.00     0.05   0.01  -0.00
                     25                     26                     27
                      A                      A                      A
 Frequencies --    636.1851               726.7299               730.7555
 Red. masses --      6.0279                 4.7204                 1.6529
 Frc consts  --      1.4374                 1.4688                 0.5201
 IR Inten    --      3.1610                 7.9453                39.8799
  Atom  AN      X      Y      Z        X      Y      Z        X      Y      Z
     1   6    -0.01   0.01   0.02     0.19  -0.09   0.00    -0.03   0.02  -0.01
     2   6    -0.00  -0.01   0.00     0.14  -0.01   0.03    -0.02   0.00   0.01
     3   8     0.02   0.01  -0.00    -0.13  -0.18   0.01     0.02   0.03  -0.01
     4   6    -0.01   0.03  -0.03     0.03  -0.00   0.00     0.00  -0.00  -0.00
     5   6     0.00  -0.00   0.00     0.01   0.00  -0.00    -0.00   0.00  -0.00
     6   1     0.00   0.00  -0.01    -0.02   0.03  -0.01    -0.02   0.01   0.00
     7   1     0.02  -0.03  -0.01     0.01  -0.03  -0.01    -0.01  -0.00  -0.00
     8   1    -0.00   0.01  -0.01     0.00  -0.02  -0.01    -0.00  -0.01  -0.00
     9   7    -0.00  -0.01   0.02     0.01   0.01   0.02     0.00   0.00   0.00
    10   1     0.00   0.01  -0.00    -0.03  -0.00   0.07    -0.03   0.00   0.03
    11   1     0.00   0.01   0.03    -0.01  -0.03  -0.03    -0.01  -0.01  -0.03
    12   6    -0.04  -0.08  -0.09    -0.11   0.01   0.02    -0.01  -0.07   0.05
    13   6    -0.27  -0.04  -0.12    -0.01   0.07   0.08     0.02   0.05  -0.05
    14   6    -0.17   0.21   0.21    -0.02   0.05   0.12    -0.02  -0.11   0.07
    15   6     0.04   0.07   0.10     0.12  -0.04  -0.01    -0.00   0.04  -0.03
    16   6     0.30   0.05   0.15    -0.08  -0.08  -0.06    -0.02  -0.10   0.09
    17   6     0.16  -0.19  -0.18    -0.07  -0.05  -0.09     0.02   0.05  -0.03
    18   1    -0.15  -0.11  -0.23     0.10   0.15  -0.10     0.09   0.36  -0.31
    19   1    -0.02   0.23   0.24    -0.14   0.19  -0.04     0.05   0.13  -0.12
    20   1    -0.07  -0.15  -0.23     0.16   0.15  -0.16     0.10   0.46  -0.37
    21   1     0.20   0.16   0.21    -0.17   0.15  -0.09     0.05   0.15  -0.12
    22   1    -0.00  -0.17  -0.24     0.05   0.09  -0.18     0.10   0.40  -0.31
    23   6    -0.01  -0.02  -0.04     0.02  -0.03  -0.03     0.00  -0.00  -0.00
    24   1    -0.02  -0.04  -0.03     0.02  -0.03  -0.05     0.00   0.00  -0.02
    25   1    -0.01  -0.05  -0.06     0.00  -0.03  -0.03    -0.01  -0.01  -0.00
    26   1    -0.02  -0.01  -0.01     0.02  -0.04  -0.04    -0.00  -0.00   0.01
    27   1    -0.00   0.01  -0.23     0.26  -0.06   0.09    -0.03   0.02   0.04
    28   8    -0.00  -0.02   0.00    -0.01   0.28  -0.03     0.00  -0.04  -0.00
    29   6     0.00  -0.00   0.00    -0.05   0.02  -0.01     0.01  -0.00   0.00
    30   1     0.01   0.01   0.00    -0.26  -0.15  -0.02     0.03   0.02   0.00
    31   1    -0.02   0.01  -0.00     0.35  -0.16   0.04    -0.05   0.02  -0.01
    32   1     0.01   0.01   0.00    -0.27  -0.14   0.01     0.04   0.02  -0.00
                     28                     29                     30
                      A                      A                      A
 Frequencies --    755.8370               789.6593               808.3641
 Red. masses --      2.0656                 7.1654                 2.2001
 Frc consts  --      0.6953                 2.6325                 0.8471
 IR Inten    --     60.9365                25.1139                 7.7167
  Atom  AN      X      Y      Z        X      Y      Z        X      Y      Z
[...]
 .00000905,-0.00003998,0.00011617,-0.00013767,-0.00002146,-0.00011574,-
 0.00024926,0.00002391,-0.00163181,-0.00181294,0.00033912,-0.00025485,-
 0.00009894,0.00003727,0.00032330,-0.00025601,0.00035164,-0.00012741,-0
 .00181136,0.00023127,-0.00146324,-0.00058993,0.00090387,0.00006342,0.0
 0001135,0.00003030,-0.00001976,0.00000232,-0.00013549,-0.00011785,0.00
 008130,0.00010117,0.00037737,0.00003389,0.00011168,-0.00072250,-0.0001
 7253,0.00051417,-0.00000515,-0.00006679,0.00005429,0.00001289,0.000009
 64,-0.00000659,0.00000996,0.00001095,-0.00000171,0.00003494,-0.0000198
 1,0.00005101,-0.00143513,-0.00094871,0.00011231,-0.00012155,-0.0001546
 9,-0.00011659,0.00002734,0.00000306,-0.00011899,0.00007889,-0.00027842
 ,-0.00055584,0.09231643,0.09810214,-0.31891649,0.01474244,-0.00298560,
 -0.00338923,0.00024849,0.00063018,0.00161676,0.00007511,0.00738437,-0.
 01273814,0.00058437,-0.00010928,0.00017677,0.00033771,0.00000302,-0.00
 000081,-0.00004454,0.00004310,-0.00013342,-0.00000032,-0.00004302,0.00
 002386,-0.00001701,-0.00075101,-0.00092354,-0.00066883,-0.00007656,-0.
 00011901,-0.00031551,0.00020474,-0.00022529,0.00016414,0.00190614,0.00
 011631,-0.00001170,0.00060418,0.00038264,-0.00084185,-0.00049684,0.000
 35860,-0.00000418,0.00021210,0.00019980,0.00047071,0.00041003,-0.00031
 626,-0.00022466,-0.00081084,0.00018099,-0.00028194,0.00017972,0.000077
 01,0.00056242,-0.00001831,0.00002653,-0.00003992,0.00001974,-0.0000164
 1,0.00004649,-0.00001808,-0.00000813,0.00002028,0.00006857,0.00001141,
 0.00004337,-0.00142635,-0.00088711,0.00085170,0.00001905,0.00014288,0.
 00015128,-0.00000444,-0.00002597,-0.00018786,0.00000829,-0.00039102,-0
 .00061845,-0.10213550,0.33460424,-0.00118165,0.01977467,-0.00439856,-0
 .00131383,0.00023342,-0.00417084,-0.00044913,-0.00067165,0.00709298,-0
 .00403996,-0.01156467,0.00136001,0.00013302,-0.00020990,-0.00105723,0.
 00001861,-0.00001935,-0.00003124,-0.00024687,0.00044581,-0.00001148,0.
 00007048,0.00010362,0.00002290,0.00220154,0.00666383,-0.00618478,0.000
 24361,0.00146267,0.00080836,-0.00014179,0.00070342,-0.00068548,-0.0007
 3295,0.00030891,-0.00049171,0.00105387,0.00059046,0.00033556,-0.000412
 90,-0.00025251,-0.00029260,0.00012866,0.00013152,0.00012960,-0.0000636
 2,-0.00021495,-0.00021777,-0.00012605,0.00001486,-0.00012724,0.0010184
 9,-0.00008984,-0.00114403,0.00000599,-0.00001588,0.00002014,-0.0000463
 6,0.,-0.00004064,-0.00000722,-0.00000170,-0.00000812,-0.00001668,-0.00
 002183,-0.00006776,-0.00136517,-0.00251797,0.00030922,0.00013717,0.000
 14745,0.00026410,-0.00007933,0.00028433,-0.00012484,-0.00013798,-0.000
 63521,-0.00094558,0.00517622,-0.01495162,0.01257911,-0.05543854,-0.048
 75625,0.00310717,-0.15835743,-0.06311778,0.00110179,0.02701535,-0.0068
 1410,0.00060039,-0.00014195,0.01405041,-0.00408835,-0.00098165,0.00075
 576,0.00121168,0.00000096,-0.00021584,-0.00010950,0.00023450,-0.000688
 92,0.00011798,-0.00003857,0.00052486,-0.00025433,-0.00104897,-0.006883
 97,0.00411715,0.00010753,0.00147935,-0.00198415,0.00033889,-0.00048315
 ,0.00034394,0.00120930,-0.00211521,-0.00079866,-0.00078448,0.00023372,
 0.00051355,-0.00000437,-0.00010235,-0.00045820,-0.00048895,0.00018070,
 0.00004316,-0.00006151,0.00006822,-0.00020688,-0.00099835,0.00060941,0
 .00044766,0.00036791,-0.00055486,-0.00047145,-0.00012806,0.00010974,0.
 00011445,-0.00016324,-0.00001678,0.00002639,-0.00022698,-0.00000214,-0
 .00005551,0.00018989,-0.00010395,0.00004565,-0.00096465,-0.00165556,0.
 00120459,0.00015626,0.00023598,0.00031348,-0.00017959,0.00003091,0.000
 16201,-0.00031841,-0.00150447,-0.00075811,-0.00030464,-0.00114419,0.00
 040875,0.52480453,-0.02937560,-0.00172236,0.00251589,-0.02592214,-0.17
 999861,0.00919928,-0.01755913,-0.09638728,0.01096767,0.00695422,0.0090
 6926,-0.00324677,-0.00093802,-0.00077356,0.00076069,-0.00041713,-0.000
 16094,0.00009006,-0.00012117,-0.00037967,0.00025414,0.00069906,0.00248
 767,-0.00057204,-0.00090783,-0.00490742,0.00292095,0.00049505,0.000649
 19,-0.00175220,0.00022377,-0.00043966,0.00019643,0.00129747,0.00004225
 ,-0.00040741,-0.00066007,0.00019867,0.00038599,-0.00002389,-0.00005535
 ,-0.00033346,-0.00032578,0.00014605,0.00001860,-0.00001010,0.00003194,
 0.00001102,-0.00037767,0.00020383,0.00017965,0.00023832,-0.00048369,-0
 .00034080,-0.00010337,0.00005975,0.00009190,-0.00011113,-0.00002045,0.
 00002222,-0.00011604,-0.00001337,-0.00003096,0.00016184,-0.00002126,0.
 00006853,-0.00100206,-0.00189299,0.00009290,0.00041294,0.00063299,0.00
 111554,-0.00037827,0.00009428,0.00006379,-0.00034578,-0.00091155,-0.00
 041838,-0.00050647,-0.00011902,0.00051359,0.05551372,0.36335005,0.0027
 7745,0.00017097,0.01385036,-0.00259547,0.00923859,-0.06318867,0.000710
 65,0.00999817,0.02175143,-0.00108070,-0.00136978,0.00425628,-0.0003968
 9,0.00014479,-0.00016895,-0.00003195,0.00001652,0.00005233,0.00008259,
 0.00009701,-0.00006633,0.00016990,0.00012264,0.00014980,-0.00063265,-0
 .00031928,-0.00007905,0.00011535,0.00003578,-0.00010033,-0.00008338,-0
 .00011890,-0.00000315,-0.00033376,0.00006892,-0.00022512,-0.00004739,-
 0.00006892,-0.00007818,0.00000718,-0.00004807,0.00005555,0.00002785,-0
 .00001802,-0.00001373,-0.00003677,-0.00002735,-0.00001342,-0.00000728,
 0.00004572,0.00004028,0.00005449,0.00002013,-0.00007357,-0.00000616,-0
 .00000078,-0.00000345,0.00000671,0.00001081,-0.00001107,0.00000540,0.0
 0000997,0.00000133,-0.00000956,0.00001836,-0.00001378,0.00050721,0.000
 69464,0.00004212,0.00001074,-0.00013770,-0.00023026,-0.00000003,-0.000
 02177,-0.00000129,0.00027873,0.00016017,0.00009854,-0.00000333,-0.0000
 7447,-0.00180892,0.02289917,-0.02774260,0.07688273,0.01068708,0.001101
 55,-0.00086114,-0.05567533,-0.03504379,0.00032619,-0.00275125,0.017017
 82,-0.00148097,-0.00260519,-0.00490123,0.00236606,0.00053810,-0.000049
 68,-0.00051640,0.00008772,0.00010318,0.00001277,-0.00003502,0.00028131
 ,-0.00010783,-0.00015348,-0.00077170,0.00021273,0.00048148,0.00310869,
 -0.00194908,-0.00023167,-0.00060319,0.00097025,-0.00014393,0.00021145,
 -0.00012776,-0.00070521,0.00026568,0.00020182,0.00030427,-0.00009960,-
 0.00029072,-0.00000726,0.00008180,0.00020283,0.00018888,-0.00006567,-0
 .00000559,0.00002137,-0.00001840,0.00001990,0.00026373,-0.00015398,-0.
 00012121,-0.00016895,0.00021782,0.00025727,0.00003859,-0.00004654,-0.0
 0004210,0.00007186,0.00000271,-0.00000501,0.00008006,0.00000416,0.0000
 2923,-0.00008296,0.00001905,-0.00001550,0.00050528,0.00093911,-0.00033
 086,-0.00015968,-0.00033646,-0.00037677,0.00009524,-0.00004273,-0.0000
 8474,0.00018349,0.00061158,0.00026955,0.00019076,0.00027728,-0.0003601
 5,-0.24117503,0.01873572,-0.01471897,0.50563280,-0.00044002,-0.0047956
 1,0.00041657,-0.04162441,0.00866562,-0.00403902,-0.00176388,-0.0021181
 4,-0.00049923,-0.00131131,0.00052143,0.00045775,-0.00002747,0.00008647
 ,0.00000875,0.00000949,-0.00000735,0.00000099,-0.00000408,-0.00002227,
 0.00000272,-0.00001575,-0.00001665,-0.00000514,-0.00001987,0.00002270,
 -0.00007210,-0.00001437,0.00003199,-0.00009955,-0.00000445,-0.00001733
 ,0.00000087,-0.00017067,-0.00036222,-0.00006280,-0.00002439,-0.0000228
 3,-0.00001256,0.00000223,-0.00000190,0.00000615,-0.00001192,-0.0000055
 8,0.00000001,-0.00001410,0.00000897,-0.00003310,-0.00008645,0.00006467
 ,0.00005314,0.00000806,0.00000659,-0.00000795,-0.00000196,0.00000541,-
 0.00000146,-0.00000119,0.00000299,-0.00000080,-0.00001350,0.00000374,-
 0.00000129,0.00000102,-0.00000891,-0.00000063,0.00005029,0.00009186,0.
 00008482,-0.00001367,-0.00000868,0.00000080,-0.00000509,0.00000764,-0.
 00000062,-0.00002178,-0.00001955,-0.00002027,-0.00022684,0.00025146,-0
 .00020952,0.04243749,-0.09968420,0.00707930,0.02444820,0.62066736,0.00
 065763,0.00077786,0.00228600,0.00046209,-0.00355781,-0.00165460,0.0003
 6174,0.00135635,-0.00476200,0.00046178,0.00006472,0.00215407,0.0000254
 1,0.00000650,0.00001431,-0.00001417,0.00000748,-0.00000044,0.00004604,
 0.00003444,-0.00003479,-0.00001604,-0.00006219,0.00005886,-0.00029490,
 -0.00021097,0.00017029,-0.00001924,-0.00017631,0.00010083,0.00001562,-
 0.00003342,0.00008613,-0.00018214,0.00016569,-0.00011598,0.00002054,-0
 .00001299,-0.00007671,0.00000757,-0.00001738,0.00003535,0.00002544,-0.
 00002014,-0.00002004,-0.00003239,-0.00001585,0.00000519,0.00004729,0.0
 0000437,0.00001385,0.00001397,0.00002139,0.00001388,0.00000984,-0.0000
 0838,-0.00000330,0.00000475,0.00000344,-0.00000399,0.00000226,0.000001
 74,0.00000182,-0.00001043,0.00000048,-0.00000729,0.00017724,0.00015121
 ,-0.00010118,-0.00001361,-0.00008274,0.00000262,-0.00004711,-0.0000024
 6,0.00000648,0.00004424,0.00006042,0.00005692,0.00001406,-0.00000303,-
 0.00098959,-0.01702841,0.00512925,-0.06704891,-0.00993248,-0.00142410,
 0.58201885,-0.00212410,-0.00090322,0.00075596,0.00447300,0.00892101,-0
 .00211428,0.00044071,-0.00297046,0.00073775,0.00047188,0.00107810,-0.0
 0008545,-0.00008511,0.00003899,0.00010647,0.00000263,-0.00001448,-0.00
 000304,0.00001733,-0.00005968,0.00000826,0.00000550,0.00006189,-0.0000
 3416,-0.00016046,-0.00069580,0.00045443,-0.00003903,0.00008122,-0.0001
 8237,0.00001575,-0.00004873,0.00004745,0.00010322,-0.00003835,-0.00006
 374,-0.00006611,0.00000444,0.00003564,0.00000516,-0.00001237,-0.000027
 75,-0.00003006,0.00000942,-0.00000082,-0.00000683,0.00000124,-0.000004
 83,-0.00004417,0.00002706,0.00003011,0.00003160,-0.00003482,-0.0000455
 1,-0.00000802,0.00000778,0.00000622,-0.00001020,-0.00000056,0.00000070
 ,-0.00001257,0.00000060,-0.00000392,0.00001221,-0.00000252,0.00000082,
 -0.00002105,-0.00010998,0.00007100,0.00000911,-0.00000445,0.00000400,-
 0.00001099,0.00000056,0.00002467,-0.00000953,-0.00010217,-0.00004112,0
 .00015775,-0.00003549,-0.00019890,-0.02726006,0.01267699,-0.03419511,-
 0.05860309,0.02019781,-0.04197888,0.07480850,0.00049486,0.00005506,0.0
 0010844,-0.00224763,-0.00056683,-0.00095871,0.00017403,-0.00022718,0.0
 0010441,-0.00011728,-0.00023500,0.00005462,0.00001387,0.00002104,-0.00
 002202,0.00001303,0.00000693,0.00000036,0.00000728,0.00001953,-0.00001
 336,-0.00002413,-0.00007085,0.00001784,-0.00000943,0.00014360,-0.00007
 694,-0.00001740,-0.00002230,0.00008800,-0.00001068,0.00000676,0.000005
 81,-0.00004644,0.00003455,0.00000922,0.00003863,0.00000166,-0.00001119
 ,-0.00000700,0.00000507,0.00000829,0.00001566,-0.00000249,0.00000189,0
 .00000288,-0.00000458,-0.00000152,0.00002072,-0.00001607,-0.00001571,-
 0.00001157,0.00001414,0.00001841,0.00000589,-0.00000458,-0.00000300,0.
 00000433,-0.00000049,-0.00000022,0.00000558,-0.00000014,0.00000148,-0.
 00000840,-0.00000076,-0.00000309,0.00004581,0.00006768,-0.00000765,-0.
 00001981,-0.00006283,-0.00006324,0.00000583,-0.00000845,0.00000257,0.0
 0003556,0.00003043,0.00001604,0.00002833,0.00000717,0.00009558,0.00674
 759,0.00088867,0.00206172,0.02254910,-0.09340984,0.09721515,-0.0297770
 8,0.09369272,-0.00065608,-0.00081336,-0.00024260,0.00151294,0.00564726
 ,0.00034638,0.00221001,-0.00151407,0.00093513,0.00009803,0.00044189,-0
 .00024003,-0.00003129,0.00002838,0.00005235,0.00001236,-0.00000635,-0.
 00000552,-0.00000126,-0.00003381,0.00001162,-0.00002029,0.00000061,-0.
 00002433,-0.00000999,-0.00024718,0.00016527,-0.00005089,0.00003837,-0.
 00006626,0.00000989,-0.00001040,0.00001148,0.00004193,-0.00004479,0.00
 000297,-0.00002264,0.00000241,0.00001489,0.00000249,-0.00000551,-0.000
 01018,-0.00001231,0.00000311,0.00000096,-0.00000005,0.00000124,0.00000
 018,-0.00001830,0.00000931,0.00001047,0.00001136,-0.00001076,-0.000017
 53,-0.00000337,0.00000490,0.00000151,-0.00000394,0.00000067,-0.0000001
 7,-0.00000434,0.00000087,-0.00000238,0.00000632,0.00000163,-0.00000050
 ,-0.00003411,-0.00006001,0.00006506,0.00000525,0.00002260,-0.00001777,
 0.00002741,0.00000296,0.00001509,-0.00002807,-0.00004906,-0.00001983,0
 .00008012,-0.00005461,-0.00006493,-0.01039809,-0.00195996,0.00504700,-
 0.04677444,0.09559114,-0.26041615,0.05732478,-0.10628824,0.27252403,-0
 .00128941,-0.00187347,0.00006446,-0.00320894,0.00698304,-0.00105955,0.
 00259170,-0.00080241,0.00022303,-0.00020851,0.00081047,-0.00016808,-0.
 00006199,0.00003610,0.00006388,-0.00000204,-0.00001222,-0.00000565,0.0
 0001254,-0.00003580,0.00000726,0.00001297,0.00004882,-0.00001996,-0.00
 004059,-0.00034004,0.00020471,0.00002769,0.00008737,-0.00011558,0.0000
 2080,-0.00002452,0.00001221,0.00004772,-0.00016111,-0.00005172,-0.0000
 5145,0.00001226,0.00002767,0.00000456,-0.00000448,-0.00002643,-0.00003
 221,0.00001008,0.00000076,-0.00000604,0.00000792,-0.00001528,-0.000066
 45,0.00004171,0.00003219,0.00002580,-0.00003299,-0.00002763,-0.0000094
 2,0.00000617,0.00000837,-0.00000991,-0.00000136,0.00000197,-0.00001455
 ,0.,-0.00000291,0.00001144,-0.00000768,0.00000404,-0.00002888,-0.00006
 142,0.00007309,0.00001911,0.00002586,0.00002104,-0.00000600,0.00000047
 ,0.00000768,-0.00002007,-0.00007968,-0.00003650,0.00002087,0.00002467,
 -0.00000449,-0.03246950,-0.03689421,0.00164749,-0.08192337,-0.08918896
 ,0.00733963,0.00383195,0.00601369,0.00067536,0.10725416,-0.00082591,0.
 00020129,0.00000825,0.00388107,-0.00040426,0.00017298,-0.00276748,0.00
 022813,-0.00011732,0.00028746,0.00042055,-0.00014811,-0.00002949,-0.00
 000650,0.00003052,-0.00001655,-0.00000796,-0.00000158,0.00000416,-0.00
 001647,0.00001107,0.00002857,0.00008853,-0.00001632,-0.00002483,-0.000
 22752,0.00015005,0.00004935,0.00003421,-0.00008324,0.00001946,-0.00001
 419,0.00000210,0.00007574,-0.00001762,-0.00002879,-0.00003811,0.000008
 30,0.00002273,0.00000050,-0.00000570,-0.00001811,-0.00001961,0.0000078
 5,0.00000015,-0.00000158,0.00000305,-0.00000053,-0.00002940,0.00001610
 ,0.00001457,0.00001869,-0.00002422,-0.00002222,-0.00000541,0.00000420,
 0.00000581,-0.00000785,-0.00000056,0.00000128,-0.00000832,-0.00000107,
 -0.00000259,0.00001113,-0.00000111,0.00000476,-0.00003806,-0.00007574,
 0.00000861,0.00002294,0.00004678,0.00005128,-0.00001502,0.00000296,0.0
 0000271,-0.00002001,-0.00004772,-0.00001631,-0.00005442,0.00001362,0.0
 0001513,0.00302324,0.00852113,-0.00057407,-0.09995457,-0.28849988,0.01
 808209,-0.00356969,-0.00809506,-0.00164790,0.10625425,0.30041815,-0.00
 004389,-0.00013729,0.00012856,-0.00059878,0.00051293,0.00023825,0.0003
 2166,-0.00005295,0.00078041,-0.00004223,0.00002548,0.00006330,-0.00000
 446,0.00000300,0.00000372,0.00000413,-0.00000161,0.00000052,-0.0000045
 0,-0.00000479,0.00000308,-0.00000404,-0.00000369,-0.00000882,0.0000105
 0,-0.00000821,-0.00000460,-0.00001558,0.00000731,-0.00000890,-0.000000
 35,0.00000229,-0.00000093,-0.00001909,-0.00000453,-0.00000959,0.000003
 02,-0.00000032,-0.00000079,-0.00000016,-0.00000055,0.00000111,0.000000
 26,-0.00000117,-0.00000145,-0.00000289,-0.00000005,-0.00000175,-0.0000
 0196,0.00000071,0.00000283,0.00000284,0.00000344,-0.00000235,0.0000012
 9,-0.00000030,-0.00000009,-0.00000018,0.00000014,0.,-0.00000099,-0.000
 00027,-0.00000006,0.00000006,-0.00000105,-0.00000094,0.00001037,-0.000
 00181,0.00001283,0.00000705,-0.00000342,-0.00000971,0.00000419,-0.0000
 0009,0.00000043,-0.00000270,-0.00000005,-0.00000157,0.00000934,-0.0000
 0054,-0.00001959,-0.00279881,-0.00356169,0.00098100,0.00863631,0.01893
 153,-0.05355907,0.01099543,0.02481149,0.00078179,-0.00688478,-0.019669
 33,0.04701359,-0.00195500,-0.00104474,-0.00031893,0.00415585,0.0097183
 9,0.00040421,0.00176975,-0.00325032,-0.00052655,0.00028132,0.00084127,
 -0.00070425,-0.00007380,0.00004016,0.00008506,0.00000039,-0.00001650,-
 0.00000728,0.00001731,-0.00004776,0.00000488,0.00001226,0.00003204,-0.
 00001652,-0.00002360,-0.00047637,0.00027489,0.00001292,0.00015033,-0.0
 0011117,0.00002002,-0.00002288,0.00001802,0.00014810,-0.00007363,-0.00
 003702,-0.00003541,0.00002188,0.00006375,-0.00000023,-0.00000917,-0.00
 004268,-0.00003260,0.00001429,0.00000454,0.00000081,0.00000386,-0.0000
 1085,-0.00005027,0.00002143,0.00001930,0.00002275,-0.00003721,-0.00004
 081,-0.00000565,0.00000638,0.00000669,-0.00001105,-0.00000258,0.000001
 79,-0.00001310,-0.00000134,-0.00000383,0.00000848,-0.00000798,0.000000
 50,-0.00011835,-0.00018642,0.00008029,-0.00000097,0.00002518,0.0000404
 0,-0.00002065,0.00000481,0.00000950,-0.00001755,-0.00011468,-0.0000729
 8,0.00018548,-0.00004181,0.00032860,-0.03289019,0.01868674,0.02487850,
 -0.07494929,0.04785152,0.05983266,0.00410506,-0.00392583,-0.00394879,0
 .00556801,-0.00625024,-0.00958106,0.09388919,0.00049037,0.00008500,-0.
 00024073,-0.00248218,-0.00148083,0.00096454,-0.00077499,0.00036647,0.0
 0006031,-0.00019771,-0.00025946,0.00008739,0.00004780,-0.00000260,-0.0
 0001504,0.00001962,0.00000616,-0.00000481,-0.00000299,0.00000843,-0.00
 000681,-0.00003505,-0.00010733,0.00001420,0.00010684,0.00016518,-0.000
 10010,-0.00005352,-0.00002313,0.00008962,-0.00000832,0.00002562,-0.000
 01183,-0.00003772,0.00003845,0.00002529,0.00001953,-0.00000370,-0.0000
 2184,0.00000157,0.00000684,0.00001280,0.00001262,-0.00000434,0.0000007
 2,0.00000481,-0.00000316,0.00000542,0.00002259,-0.00001958,-0.00001336
 ,-0.00001007,0.00001366,0.00002101,0.00000192,-0.00000286,-0.00000321,
 0.00000582,-0.00000009,-0.00000041,0.00000782,0.00000080,0.00000201,-0
 .00000645,0.00000446,-0.00000276,0.00002457,0.00005121,-0.00000938,-0.
 00002244,-0.00001256,-0.00004400,0.00002961,-0.00000290,-0.00000271,0.
 00000070,0.00003906,0.00002083,0.00004409,0.00001980,-0.00011271,0.008
 15843,0.00159563,0.00052752,0.05211132,-0.14143797,-0.11745485,-0.0047
 2726,0.00773243,0.01094868,0.00915748,-0.01256927,-0.02084459,-0.06190
 882,0.14577062,-0.00007339,0.00049511,-0.00036009,-0.00025813,-0.00385
 895,0.00112512,-0.00265686,0.00099582,0.00056989,0.00000585,-0.0000697
 1,-0.00005554,0.00002893,-0.00003076,-0.00001044,-0.00000360,0.0000018
 4,0.00000271,-0.00001285,-0.00000179,0.00000800,0.00000744,0.00001786,
 -0.00001585,0.00006865,0.00006618,-0.00002579,-0.00002823,-0.00004140,
 -0.00000738,-0.00000163,0.00001173,-0.00001477,0.00001057,0.00000814,0
 .00000956,-0.00001351,-0.00000382,-0.00000735,0.00000417,0.00000456,0.
 00000428,-0.00000145,0.00000055,-0.00000022,0.00000242,0.00000227,0.00
 000420,0.00000137,-0.00000272,-0.00000348,-0.00000204,-0.00000026,0.00
 000320,-0.00000297,0.00000047,0.00000030,0.00000111,-0.00000031,0.0000
 0059,0.00000170,-0.00000011,0.00000101,0.00000214,0.00000162,0.0000028
 5,0.00000401,-0.00000522,-0.00001980,0.00000397,0.00001621,0.00001669,
 -0.00000217,0.00000207,-0.00000252,-0.00000977,0.00000964,0.00000691,-
 0.00005303,0.00004254,-0.00003906,0.00263147,0.00576819,0.00991943,0.0
 6459679,-0.11614442,-0.19823141,0.00837616,-0.01715645,-0.01885799,-0.
 00199628,0.00376232,0.00361880,-0.07063083,0.12610880,0.20235816\\-0.0
 0000142,0.00000259,0.00000242,-0.00000635,0.00001043,-0.00000122,0.000
 00556,-0.00000403,0.00000228,0.00000167,0.00000289,0.00001015,-0.00002
 680,-0.00000638,0.00000966,0.00000849,0.00000261,0.00000653,-0.0000009
 5,0.00000272,0.00000040,0.00002421,0.00000277,-0.00000589,0.00003554,0
 .00001273,0.00001039,-0.00001798,-0.00001261,-0.00001779,-0.00001680,0
 .00000241,0.00001281,-0.00000141,-0.00000331,-0.00000505,-0.00000444,-
 0.00000128,-0.00000810,0.00000317,-0.00000136,-0.00000167,-0.00000774,
 -0.00000326,-0.00000451,-0.00000564,-0.00000666,-0.00000788,0.00000121
 ,-0.00000218,0.00000254,0.00000026,0.00000250,0.00000043,-0.00000351,-
 0.00000129,-0.00000559,0.00000207,-0.00000487,-0.00000624,0.00000508,-
 0.00000523,0.00000239,0.00000301,-0.00000221,-0.00000254,-0.00000137,0
 .00000095,0.00000189,0.00000634,0.00000051,0.00000094,0.00000417,-0.00
 000321,-0.00000036,0.00000163,-0.00000412,0.00000293,-0.00000192,0.000
 00148,-0.00000601,-0.00000396,0.00000278,0.00000155,-0.00000013,0.0000
 0222,-0.00000418,-0.00000068,0.00000512,0.00000274,-0.00000216,0.00000
 395,0.00000211,0.00000086,0.00000334,0.00000491\\\@
 The archive entry for this job was punched.


 WISDOM IS KNOWING WHAT TO DO,
 SKILL IS KNOWING HOW TO DO IT,
 AND VIRTUE IS NOT DOING IT.
 Job cpu time:       0 days  0 hours 49 minutes 32.3 seconds.
 Elapsed time:       0 days  0 hours  4 minutes 10.1 seconds.
 File lengths (MBytes):  RWF=    400 Int=      0 D2E=      0 Chk=     14 Scr=      1
 Normal termination of Gaussian 16 at Sat Dec 30 21:07:09 2023.
