Unloading slurm/anatra/current
  ERROR: No such file or directory on
    '/cm/local/modulefiles/slurm/anatra/current'
environment: line 0: unalias: gv: not found
environment: line 0: unalias: sl: not found
 Entering Gaussian System, Link 0=g16
 Initial command:
 /apps/gaussian/g16/C.01/g16/l1.exe "/local/jobs/1153192/Gau-1743755.inp" -scrdir="/local/jobs/1153192/"
 Entering Link 1 = /apps/gaussian/g16/C.01/g16/l1.exe PID=   1743758.
  
 Copyright (c) 1988-2019, Gaussian, Inc.  All Rights Reserved.
  
 This is part of the Gaussian(R) 16 program.  It is based on
 the Gaussian(R) 09 system (copyright 2009, Gaussian, Inc.),
 the Gaussian(R) 03 system (copyright 2003, Gaussian, Inc.),
 the Gaussian(R) 98 system (copyright 1998, Gaussian, Inc.),
 the Gaussian(R) 94 system (copyright 1995, Gaussian, Inc.),
 the Gaussian 92(TM) system (copyright 1992, Gaussian, Inc.),
 the Gaussian 90(TM) system (copyright 1990, Gaussian, Inc.),
 the Gaussian 88(TM) system (copyright 1988, Gaussian, Inc.),
 the Gaussian 86(TM) system (copyright 1986, Carnegie Mellon
 University), and the Gaussian 82(TM) system (copyright 1983,
 Carnegie Mellon University). Gaussian is a federally registered
 trademark of Gaussian, Inc.
  
 This software contains proprietary and confidential information,
 including trade secrets, belonging to Gaussian, Inc.
  
 This software is provided under written license and may be
 used, copied, transmitted, or stored only in accord with that
 written license.
  
 The following legend is applicable only to US Government
 contracts under FAR:
  
                    RESTRICTED RIGHTS LEGEND
  
 Use, reproduction and disclosure by the US Government is
 subject to restrictions as set forth in subparagraphs (a)
 and (c) of the Commercial Computer Software - Restricted
 Rights clause in FAR 52.227-19.
  
 Gaussian, Inc.
 340 Quinnipiac St., Bldg. 40, Wallingford CT 06492
  
  
 ---------------------------------------------------------------
 Warning -- This program may not be used in any manner that
 competes with the business of Gaussian, Inc. or will provide
 assistance to any competitor of Gaussian, Inc.  The licensee
 of this program is prohibited from giving any competitor of
 Gaussian, Inc. access to this program.  By using this program,
 the user acknowledges that Gaussian, Inc. is engaged in the
 business of creating and licensing software in the field of
 computational chemistry and represents and warrants to the
 licensee that it is not a competitor of Gaussian, Inc. and that
 it will not use this program in any manner prohibited above.
 ---------------------------------------------------------------
  

 Cite this work as:
 Gaussian 16, Revision C.01,
 M. J. Frisch, G. W. Trucks, H. B. Schlegel, G. E. Scuseria, 
 M. A. Robb, J. R. Cheeseman, G. Scalmani, V. Barone, 
 G. A. Petersson, H. Nakatsuji, X. Li, M. Caricato, A. V. Marenich, 
 J. Bloino, B. G. Janesko, R. Gomperts, B. Mennucci, H. P. Hratchian, 
 J. V. Ortiz, A. F. Izmaylov, J. L. Sonnenberg, D. Williams-Young, 
 F. Ding, F. Lipparini, F. Egidi, J. Goings, B. Peng, A. Petrone, 
 T. Henderson, D. Ranasinghe, V. G. Zakrzewski, J. Gao, N. Rega, 
 G. Zheng, W. Liang, M. Hada, M. Ehara, K. Toyota, R. Fukuda, 
 J. Hasegawa, M. Ishida, T. Nakajima, Y. Honda, O. Kitao, H. Nakai, 
 T. Vreven, K. Throssell, J. A. Montgomery, Jr., J. E. Peralta, 
 F. Ogliaro, M. J. Bearpark, J. J. Heyd, E. N. Brothers, K. N. Kudin, 
 V. N. Staroverov, T. A. Keith, R. Kobayashi, J. Normand, 
 K. Raghavachari, A. P. Rendell, J. C. Burant, S. S. Iyengar, 
 J. Tomasi, M. Cossi, J. M. Millam, M. Klene, C. Adamo, R. Cammi, 
 J. W. Ochterski, R. L. Martin, K. Morokuma, O. Farkas, 
 J. B. Foresman, and D. J. Fox, Gaussian, Inc., Wallingford CT, 2019.
 
 ******************************************
 Gaussian 16:  ES64L-G16RevC.01  3-Jul-2019
                30-Dec-2023 
 ******************************************
 %chk=TS-92_opt_sqm_reopt_freq.chk
 %nprocshared=12
 Will use up to   12 processors via shared memory.
 %mem=48GB
 -----------------------------------------------------------
 # wb97xd def2svp scrf=(iefpcm,solvent=toluene) freq=noraman
 -----------------------------------------------------------
 1/10=4,30=1,38=1/1,3;
 2/12=2,17=6,18=5,40=1/2;
 3/5=43,7=101,11=2,25=1,30=1,70=2201,71=2,72=13,74=-58,140=1/1,2,3;
 4//1;
 5/5=2,38=5,53=13,98=1/2;
 8/6=4,10=90,11=11/1;
 11/6=1,8=1,9=11,15=111,16=1/1,2,10;
 10/6=1/2;
 6/7=2,8=2,9=2,10=2,28=1/1;
 7/8=1,10=1,25=1/1,2,3,16;
 1/10=4,30=1/3;
 99//99;
 -----------------------
 TS-92_opt_sqm_reopt.out
 -----------------------
 Symbolic Z-matrix:
 Charge =  0 Multiplicity = 1
 C                    -0.90902  -0.7055    0.18611 
 C                    -2.28932  -0.46054   0.15146 
 O                    -2.85694   0.63995   0.0298 
 C                     0.04988   0.41218   0.2711 
 C                    -0.8022    2.63749  -1.0574 
 H                    -0.19157   3.33616  -0.47601 
 H                    -0.91454   3.01848  -2.08106 
 H                    -1.78416   2.48865  -0.59597 
 N                    -0.14106   1.31997  -1.10945 
 H                    -0.70333   0.67556  -1.67445 
 H                     0.77326   1.39759  -1.56203 
 C                     1.49459  -0.07367   0.16156 
 C                     1.83922  -0.97833  -0.85549 
 C                     3.15036  -1.41913  -1.01271 
 C                     4.14917  -0.96809  -0.14936 
 C                     3.82139  -0.07314   0.86574 
 C                     2.50777   0.37411   1.01628 
 H                     1.05876  -1.35267  -1.5225 
 H                     3.39175  -2.12608  -1.80957 
 H                     5.17769  -1.31605  -0.26662 
 H                     4.59282   0.28352   1.5518 
 H                     2.28169   1.07276   1.82197 
 C                    -0.18523   1.36867   1.43884 
 H                    -1.24427   1.64921   1.47137 
 H                     0.04545   0.82437   2.36406 
 H                     0.43602   2.27729   1.4102 
 H                    -0.54333  -1.72918   0.236 
 O                    -3.0507   -1.59973   0.22142 
 C                    -4.43965  -1.42671   0.09872 
 H                    -4.88699  -2.42703   0.17134 
 H                    -4.84711  -0.78518   0.89615 
 H                    -4.7153   -0.97306  -0.8674 
 

 GradGradGradGradGradGradGradGradGradGradGradGradGradGradGradGradGradGrad
 Berny optimization.
 Initialization pass.
 Trust Radius=3.00D-01 FncErr=1.00D-07 GrdErr=1.00D-07 EigMax=2.50D+02 EigMin=1.00D-04
 Number of steps in this run=      2 maximum allowed number of steps=      2.
 GradGradGradGradGradGradGradGradGradGradGradGradGradGradGradGradGradGrad

                          Input orientation:                          
 ---------------------------------------------------------------------
 Center     Atomic      Atomic             Coordinates (Angstroms)
 Number     Number       Type             X           Y           Z
 ---------------------------------------------------------------------
      1          6           0       -0.909020   -0.705500    0.186110
      2          6           0       -2.289320   -0.460540    0.151460
      3          8           0       -2.856940    0.639950    0.029800
      4          6           0        0.049880    0.412180    0.271100
      5          6           0       -0.802200    2.637490   -1.057400
      6          1           0       -0.191570    3.336160   -0.476010
      7          1           0       -0.914540    3.018480   -2.081060
      8          1           0       -1.784160    2.488650   -0.595970
      9          7           0       -0.141060    1.319970   -1.109450
     10          1           0       -0.703330    0.675560   -1.674450
     11          1           0        0.773260    1.397590   -1.562030
     12          6           0        1.494590   -0.073670    0.161560
     13          6           0        1.839220   -0.978330   -0.855490
     14          6           0        3.150360   -1.419130   -1.012710
     15          6           0        4.149170   -0.968090   -0.149360
     16          6           0        3.821390   -0.073140    0.865740
     17          6           0        2.507770    0.374110    1.016280
     18          1           0        1.058760   -1.352670   -1.522500
     19          1           0        3.391750   -2.126080   -1.809570
     20          1           0        5.177690   -1.316050   -0.266620
     21          1           0        4.592820    0.283520    1.551800
     22          1           0        2.281690    1.072760    1.821970
     23          6           0       -0.185230    1.368670    1.438840
     24          1           0       -1.244270    1.649210    1.471370
     25          1           0        0.045450    0.824370    2.364060
     26          1           0        0.436020    2.277290    1.410200
     27          1           0       -0.543330   -1.729180    0.236000
     28          8           0       -3.050700   -1.599730    0.221420
     29          6           0       -4.439650   -1.426710    0.098720
     30          1           0       -4.886990   -2.427030    0.171340
     31          1           0       -4.847110   -0.785180    0.896150
     32          1           0       -4.715300   -0.973060   -0.867400
 ---------------------------------------------------------------------
                    Distance matrix (angstroms):
                    1          2          3          4          5
     1  C    0.000000
     2  C    1.402296   0.000000
     3  O    2.372564   1.244215   0.000000
     4  C    1.475100   2.499562   2.925698   0.000000
     5  C    3.568376   3.642891   3.064984   2.728178   0.000000
     6  H    4.157902   4.382831   3.824865   3.027562   1.094999
     7  H    4.359830   4.356345   3.726399   3.640819   1.098023
     8  H    3.402957   3.084082   2.227136   2.902971   1.095133
     9  N    2.524038   3.061884   3.022635   1.663268   1.475017
    10  H    2.326224   2.672084   2.746593   2.102822   2.059052
    11  H    3.210770   3.970906   4.035628   2.203333   2.067384
    12  C    2.485388   3.803649   4.411624   1.528148   3.756527
    13  C    2.951642   4.280993   5.045442   2.530704   4.482412
    14  C    4.292436   5.644848   6.435394   3.822936   5.664000
    15  C    5.076099   6.465466   7.190512   4.345815   6.191996
    16  C    4.820638   6.164499   6.768115   3.848821   5.694170
    17  C    3.678205   4.945364   5.461129   2.568651   4.514304
    18  H    2.685207   3.848075   4.659708   2.711003   4.427287
    19  H    4.949486   6.236523   7.076746   4.684020   6.391133
    20  H    6.133985   7.527478   8.274605   5.437863   7.212135
    21  H    5.754434   7.062466   7.611994   4.721763   6.438582
    22  H    4.002359   5.102523   5.459370   2.796880   4.499948
    23  C    2.528910   3.070920   3.107163   1.527667   2.867363
    24  H    2.703506   2.699136   2.386930   2.155392   2.750782
    25  H    2.827540   3.463776   3.729162   2.133167   3.963875
    26  H    3.493503   4.062957   3.928100   2.219299   2.784238
    27  H    1.088181   2.159879   3.317844   2.222285   4.561546
    28  O    2.321139   1.371987   2.256198   3.696464   4.964390
    29  C    3.604598   2.358004   2.603998   4.854597   5.575426
    30  H    4.334528   3.258123   3.680693   5.695942   6.621531
    31  H    4.002382   2.683700   2.596601   5.079849   5.647329
    32  H    3.958439   2.680696   2.619212   5.091366   5.327713
                    6          7          8          9         10
     6  H    0.000000
     7  H    1.788796   0.000000
     8  H    1.808039   1.800681   0.000000
     9  N    2.113958   2.104099   2.080686   0.000000
    10  H    2.962592   2.387303   2.370360   1.025006   0.000000
    11  H    2.422476   2.396945   2.943481   1.023149   1.647508
    12  C    3.857016   4.516043   4.229602   2.496608   2.960259
    13  C    4.783611   5.005967   5.021572   3.044370   3.141752
    14  C    5.836894   6.112051   6.308241   4.283162   4.435826
    15  C    6.121707   6.727954   6.881346   4.956114   5.345488
    16  C    5.433918   6.377364   6.334158   4.641459   5.242729
    17  C    4.276343   5.319625   5.048890   3.525575   4.200246
    18  H    4.964231   4.828339   4.867894   2.958578   2.691053
    19  H    6.667431   6.714487   7.039787   4.984594   4.963580
    20  H    7.107451   7.693868   7.940502   5.995671   6.366702
    21  H    6.026692   7.142037   7.081058   5.528662   6.213822
    22  H    4.064567   5.406973   4.937845   3.811044   4.614441
    23  C    2.745489   3.955182   2.819820   2.549138   3.231316
    24  H    2.783212   3.821437   2.295656   2.825969   3.337184
    25  H    3.798850   5.049237   3.857341   3.513642   4.110034
    26  H    2.252302   3.816054   2.999765   2.756469   3.657694
    27  H    5.127218   5.295927   4.474586   3.356989   3.075418
    28  O    5.746655   5.585021   4.357419   4.331497   3.779076
    29  C    6.407919   6.077627   4.781659   5.242309   4.639370
    30  H    7.461929   7.106845   5.863466   6.180961   5.525940
    31  H    6.367285   6.228701   4.725045   5.531817   5.090448
    32  H    6.259928   5.643681   4.544083   5.122523   4.411936
                   11         12         13         14         15
    11  H    0.000000
    12  C    2.378169   0.000000
    13  C    2.698234   1.404126   0.000000
    14  C    3.726428   2.435312   1.392161   0.000000
    15  C    4.357619   2.818413   2.415490   1.395146   0.000000
    16  C    4.165118   2.431022   2.776869   2.406355   1.392409
    17  C    3.271654   1.399138   2.404075   2.783062   2.419589
    18  H    2.765321   2.159131   1.092772   2.153855   3.403535
    19  H    4.397046   3.420081   2.153590   1.092261   2.161232
    20  H    5.333004   3.910508   3.406788   2.162717   1.092099
    21  H    5.052339   3.414584   3.869060   3.399473   2.158077
    22  H    3.719184   2.165823   3.401697   3.872921   3.396865
    23  C    3.150359   2.556088   3.856262   4.990800   5.173959
    24  H    3.651747   3.490741   4.671847   5.907464   6.210171
    25  H    4.033915   2.785227   4.102784   5.106499   5.135242
    26  H    3.117973   2.864731   4.207301   5.186681   5.172253
    27  H    3.839663   2.626666   2.726109   3.911362   4.769415
    28  O    5.175644   4.795008   5.045512   6.325254   7.237028
    29  C    6.157044   6.086860   6.366771   7.670957   8.604633
    30  H    7.047746   6.801688   6.956652   8.186381   9.158796
    31  H    6.511197   6.423630   6.914663   8.246524   9.058675
    32  H    6.018869   6.358490   6.554533   7.879638   8.893505
                   16         17         18         19         20
    16  C    0.000000
    17  C    1.395812   0.000000
    18  H    3.869498   3.395115   0.000000
    19  H    3.399476   3.875280   2.474553   0.000000
    20  H    2.160235   3.410417   4.306293   2.495281   0.000000
    21  H    1.092240   2.154628   4.961655   4.306687   2.491455
    22  H    2.144327   1.090119   4.308567   4.965168   4.295979
    23  C    4.296541   2.901716   4.209838   5.963240   6.235160
    24  H    5.384625   3.988833   4.824779   6.819829   7.283883
    25  H    4.160314   2.842932   4.568550   6.109179   6.151566
    26  H    4.157125   2.840672   4.707987   6.204267   6.181202
    27  H    4.710607   3.787067   2.408480   4.452723   5.757897
    28  O    7.069034   5.951843   4.471013   6.775480   8.247731
    29  C    8.406263   7.235435   5.732918   8.090829   9.624913
    30  H    9.047589   7.952533   6.274973   8.517753  10.135278
    31  H    8.697748   7.446653   6.407122   8.774836  10.105962
    32  H    8.757209   7.585239   5.823489   8.242657   9.917148
                   21         22         23         24         25
    21  H    0.000000
    22  H    2.457074   0.000000
    23  C    4.901028   2.513970   0.000000
    24  H    5.995265   3.589932   1.096050   0.000000
    25  H    4.650899   2.314374   1.097956   1.772183   0.000000
    26  H    4.612392   2.242085   1.101073   1.794882   1.781396
    27  H    5.671184   4.283329   3.342414   3.664829   3.375784
    28  O    7.983730   6.175625   4.301677   3.921884   4.478092
    29  C    9.307086   7.375185   5.264044   4.642834   5.505928
    30  H    9.955880   8.146354   6.174175   5.619183   6.301475
    31  H    9.522829   7.424882   5.163982   4.386068   5.355610
    32  H    9.699104   7.770197   5.596783   4.939048   6.028087
                   26         27         28         29         30
    26  H    0.000000
    27  H    4.288318   0.000000
    28  O    5.348056   2.510752   0.000000
    29  C    6.261929   3.910453   1.405053   0.000000
    30  H    7.211091   4.399836   2.014670   1.098193   0.000000
    31  H    6.128167   4.455273   2.084668   1.101580   1.795163
    32  H    6.502948   4.381158   2.085459   1.102347   1.795129
                   31         32
    31  H    0.000000
    32  H    1.778421   0.000000
 Stoichiometry    C12H17NO2
 Framework group  C1[X(C12H17NO2)]
 Deg. of freedom    90
 Full point group                 C1      NOp   1
 Largest Abelian subgroup         C1      NOp   1
 Largest concise Abelian subgroup C1      NOp   1
                         Standard orientation:                         
 ---------------------------------------------------------------------
 Center     Atomic      Atomic             Coordinates (Angstroms)
 Number     Number       Type             X           Y           Z
 ---------------------------------------------------------------------
      1          6           0       -0.909020   -0.705500    0.186110
      2          6           0       -2.289320   -0.460541    0.151460
      3          8           0       -2.856941    0.639949    0.029800
      4          6           0        0.049879    0.412181    0.271100
      5          6           0       -0.802202    2.637490   -1.057400
      6          1           0       -0.191573    3.336161   -0.476010
      7          1           0       -0.914542    3.018480   -2.081060
      8          1           0       -1.784162    2.488650   -0.595970
      9          7           0       -0.141061    1.319971   -1.109450
     10          1           0       -0.703331    0.675560   -1.674450
     11          1           0        0.773259    1.397591   -1.562030
     12          6           0        1.494590   -0.073668    0.161560
     13          6           0        1.839220   -0.978328   -0.855490
     14          6           0        3.150360   -1.419127   -1.012710
     15          6           0        4.149170   -0.968087   -0.149360
     16          6           0        3.821390   -0.073137    0.865740
     17          6           0        2.507769    0.374112    1.016280
     18          1           0        1.058760   -1.352669   -1.522500
     19          1           0        3.391751   -2.126077   -1.809570
     20          1           0        5.177690   -1.316046   -0.266620
     21          1           0        4.592819    0.283524    1.551800
     22          1           0        2.281689    1.072762    1.821970
     23          6           0       -0.185231    1.368671    1.438840
     24          1           0       -1.244272    1.649210    1.471370
     25          1           0        0.045449    0.824371    2.364060
     26          1           0        0.436018    2.277291    1.410200
     27          1           0       -0.543329   -1.729180    0.236000
     28          8           0       -3.050700   -1.599731    0.221420
     29          6           0       -4.439650   -1.426712    0.098720
     30          1           0       -4.886989   -2.427032    0.171340
     31          1           0       -4.847110   -0.785182    0.896150
     32          1           0       -4.715300   -0.973062   -0.867400
 ---------------------------------------------------------------------
 Rotational constants (GHZ):           1.1151548           0.3327526           0.2966498
 Standard basis: def2SVP (5D, 7F)
 There are   310 symmetry adapted cartesian basis functions of A   symmetry.
 There are   295 symmetry adapted basis functions of A   symmetry.
   295 basis functions,   494 primitive gaussians,   310 cartesian basis functions
    56 alpha electrons       56 beta electrons
       nuclear repulsion energy      1010.4904824747 Hartrees.
 NAtoms=   32 NActive=   32 NUniq=   32 SFac= 1.00D+00 NAtFMM=   60 NAOKFM=F Big=F
 Integral buffers will be    131072 words long.
 Raffenetti 2 integral format.
 Two-electron integral symmetry is turned on.
 Nuclear repulsion after empirical dispersion term =     1010.4666951968 Hartrees.
 Force inversion solution in PCM.
 ------------------------------------------------------------------------------
 Polarizable Continuum Model (PCM)
 =================================
 Model                : PCM.
 Atomic radii         : UFF (Universal Force Field).
 Polarization charges : Total charges.
 Charge compensation  : None.
 Solution method      : Matrix inversion.
 Cavity type          : Scaled VdW (van der Waals Surface) (Alpha=1.100).
 Cavity algorithm     : GePol (No added spheres)
                        Default sphere list used, NSphG=   32.
                        Lebedev-Laikov grids with approx.  5.0 points / Ang**2.
                        Smoothing algorithm: York/Karplus (Gamma=1.0000).
                        Polarization charges: spherical gaussians, with
                                              point-specific exponents (IZeta= 3).
                        Self-potential: point-specific (ISelfS= 7).
                        Self-field    : sphere-specific E.n sum rule (ISelfD= 2).
 1st derivatives      : Analytical E(r).r(x)/FMM algorithm (CHGder, D1EAlg=3).
                        Cavity 1st derivative terms included.
 2nd derivatives      : Analytical E(r).r(xy)/FMM algorithm (CHGder, D2EAlg=3).
                        Cavity 2nd derivative terms included.
 Solvent              : Toluene, Eps=   2.374100 Eps(inf)=   2.238315
 ------------------------------------------------------------------------------
 One-electron integrals computed using PRISM.
   1 Symmetry operations used in ECPInt.
 ECPInt:  NShTT=   10011 NPrTT=   35491 LenC2=    9437 LenP2D=   24603.
 LDataN:  DoStor=T MaxTD1= 4 Len=   56
 NBasis=   295 RedAO= T EigKep=  2.79D-04  NBF=   295
 NBsUse=   295 1.00D-06 EigRej= -1.00D+00 NBFU=   295
 ExpMin= 1.22D-01 ExpMax= 2.27D+03 ExpMxC= 3.41D+02 IAcc=3 IRadAn=         5 AccDes= 0.00D+00
 Harris functional with IExCor= 4639 and IRadAn=       5 diagonalized for initial guess.
 HarFok:  IExCor= 4639 AccDes= 0.00D+00 IRadAn=         5 IDoV= 1 UseB2=F ITyADJ=14
 ICtDFT=  3500011 ScaDFX=  1.000000  1.000000  1.000000  1.000000
 FoFCou: FMM=F IPFlag=           0 FMFlag=      100000 FMFlg1=           0
         NFxFlg=           0 DoJE=T BraDBF=F KetDBF=T FulRan=T
         wScrn=  0.000000 ICntrl=       500 IOpCl=  0 I1Cent=   200000004 NGrid=           0
         NMat0=    1 NMatS0=      1 NMatT0=    0 NMatD0=    1 NMtDS0=    0 NMtDT0=    0
 Petite list used in FoFCou.
 Requested convergence on RMS density matrix=1.00D-08 within 128 cycles.
 Requested convergence on MAX density matrix=1.00D-06.
 Requested convergence on             energy=1.00D-06.
 No special actions if energy rises.
 Inv3:  Mode=1 IEnd=    14678832.
 Iteration    1 A*A^-1 deviation from unit magnitude is 3.66D-15 for   1141.
 Iteration    1 A*A^-1 deviation from orthogonality  is 2.19D-15 for   1735    209.
 Iteration    1 A^-1*A deviation from unit magnitude is 3.00D-15 for   1141.
 Iteration    1 A^-1*A deviation from orthogonality  is 5.38D-15 for   1948   1915.
 Error on total polarization charges =  0.00654
 SCF Done:  E(RwB97XD) =  -671.970647900     A.U. after   14 cycles
            NFock= 14  Conv=0.73D-08     -V/T= 2.0108
 DoSCS=F DFT=T ScalE2(SS,OS)=  1.000000  1.000000
 Range of M.O.s used for correlation:     1   295
 NBasis=   295 NAE=    56 NBE=    56 NFC=     0 NFV=     0
 NROrb=    295 NOA=    56 NOB=    56 NVA=   239 NVB=   239

 **** Warning!!: The largest alpha MO coefficient is  0.14177772D+02

   1 Symmetry operations used in ECPInt.
 ECPInt:  NShTT=   10011 NPrTT=   35491 LenC2=    9437 LenP2D=   24603.
 LDataN:  DoStor=T MaxTD1= 5 Len=  102
 Symmetrizing basis deriv contribution to polar:
 IMax=3 JMax=2 DiffMx= 0.00D+00
 G2DrvN: will do    33 centers at a time, making    1 passes.
 Calling FoFCou, ICntrl=  3107 FMM=F I1Cent=   0 AccDes= 0.00D+00.
 NEqPCM:  Using equilibrium solvation (IEInf=0, Eps=   2.3741, EpsInf=   2.2383)
 G2PCM: DoFxE=T DoFxN=T DoGrad=T DoDP/DQ/DG/TGxP=FFFF NFrqRd=   0 IEInf=0 SqF1=F DoCFld=F IF1Alg=4.
 End of G2Drv F.D. properties file   721 does not exist.
 End of G2Drv F.D. properties file   722 does not exist.
 End of G2Drv F.D. properties file   788 does not exist.
          IDoAtm=11111111111111111111111111111111
 NEqPCM:  Using equilibrium solvation (IEInf=0, Eps=   2.3741, EpsInf=   2.2383)
          Differentiating once with respect to electric field.
                with respect to dipole field.
          Differentiating once with respect to nuclear coordinates.
 Keep R1 ints in memory in canonical form, NReq=1934262512.
          There are    99 degrees of freedom in the 1st order CPHF.  IDoFFX=6 NUNeed=     3.
     96 vectors produced by pass  0 Test12= 1.35D-14 1.01D-09 XBig12= 8.30D+01 3.09D+00.
 AX will form    96 AO Fock derivatives at one time.
     96 vectors produced by pass  1 Test12= 1.35D-14 1.01D-09 XBig12= 6.23D+00 3.93D-01.
     96 vectors produced by pass  2 Test12= 1.35D-14 1.01D-09 XBig12= 1.08D-01 8.09D-02.
     96 vectors produced by pass  3 Test12= 1.35D-14 1.01D-09 XBig12= 1.34D-03 5.93D-03.
     96 vectors produced by pass  4 Test12= 1.35D-14 1.01D-09 XBig12= 9.85D-06 3.79D-04.
     96 vectors produced by pass  5 Test12= 1.35D-14 1.01D-09 XBig12= 5.13D-08 1.95D-05.
     86 vectors produced by pass  6 Test12= 1.35D-14 1.01D-09 XBig12= 2.63D-10 1.41D-06.
     21 vectors produced by pass  7 Test12= 1.35D-14 1.01D-09 XBig12= 1.13D-12 7.80D-08.
      3 vectors produced by pass  8 Test12= 1.35D-14 1.01D-09 XBig12= 4.53D-15 5.85D-09.
 InvSVY:  IOpt=1 It=  1 EMax= 7.99D-15
 Solved reduced A of dimension   686 with    99 vectors.
 Isotropic polarizability for W=    0.000000      162.82 Bohr**3.
 End of Minotr F.D. properties file   721 does not exist.
 End of Minotr F.D. properties file   722 does not exist.
 End of Minotr F.D. properties file   788 does not exist.

 **********************************************************************

            Population analysis using the SCF Density.

 **********************************************************************

 Orbital symmetries:
       Occupied  (A) (A) (A) (A) (A) (A) (A) (A) (A) (A) (A) (A)
                 (A) (A) (A) (A) (A) (A) (A) (A) (A) (A) (A) (A)
                 (A) (A) (A) (A) (A) (A) (A) (A) (A) (A) (A) (A)
                 (A) (A) (A) (A) (A) (A) (A) (A) (A) (A) (A) (A)
                 (A) (A) (A) (A) (A) (A) (A) (A)
       Virtual   (A) (A) (A) (A) (A) (A) (A) (A) (A) (A) (A) (A)
                 (A) (A) (A) (A) (A) (A) (A) (A) (A) (A) (A) (A)
                 (A) (A) (A) (A) (A) (A) (A) (A) (A) (A) (A) (A)
                 (A) (A) (A) (A) (A) (A) (A) (A) (A) (A) (A) (A)
                 (A) (A) (A) (A) (A) (A) (A) (A) (A) (A) (A) (A)
                 (A) (A) (A) (A) (A) (A) (A) (A) (A) (A) (A) (A)
                 (A) (A) (A) (A) (A) (A) (A) (A) (A) (A) (A) (A)
                 (A) (A) (A) (A) (A) (A) (A) (A) (A) (A) (A) (A)
                 (A) (A) (A) (A) (A) (A) (A) (A) (A) (A) (A) (A)
                 (A) (A) (A) (A) (A) (A) (A) (A) (A) (A) (A) (A)
                 (A) (A) (A) (A) (A) (A) (A) (A) (A) (A) (A) (A)
                 (A) (A) (A) (A) (A) (A) (A) (A) (A) (A) (A) (A)
                 (A) (A) (A) (A) (A) (A) (A) (A) (A) (A) (A) (A)
                 (A) (A) (A) (A) (A) (A) (A) (A) (A) (A) (A) (A)
                 (A) (A) (A) (A) (A) (A) (A) (A) (A) (A) (A) (A)
                 (A) (A) (A) (A) (A) (A) (A) (A) (A) (A) (A) (A)
                 (A) (A) (A) (A) (A) (A) (A) (A) (A) (A) (A) (A)
                 (A) (A) (A) (A) (A) (A) (A) (A) (A) (A) (A) (A)
                 (A) (A) (A) (A) (A) (A) (A) (A) (A) (A) (A) (A)
                 (A) (A) (A) (A) (A) (A) (A) (A) (A) (A) (A)
 The electronic state is 1-A.
 Alpha  occ. eigenvalues --  -19.24621 -19.17823 -14.54333 -10.36532 -10.36365
 Alpha  occ. eigenvalues --  -10.34730 -10.32112 -10.31934 -10.31140 -10.31125
 Alpha  occ. eigenvalues --  -10.31094 -10.31048 -10.31005 -10.28935 -10.22718
 Alpha  occ. eigenvalues --   -1.13995  -1.07626  -1.03759  -0.96408  -0.89826
 Alpha  occ. eigenvalues --   -0.84787  -0.83123  -0.80996  -0.79897  -0.75076
 Alpha  occ. eigenvalues --   -0.71461  -0.69854  -0.66553  -0.65817  -0.62394
 Alpha  occ. eigenvalues --   -0.60918  -0.58527  -0.57615  -0.55609  -0.54046
 Alpha  occ. eigenvalues --   -0.53588  -0.52958  -0.52139  -0.51674  -0.50916
 Alpha  occ. eigenvalues --   -0.49316  -0.48659  -0.46590  -0.46312  -0.46074
 Alpha  occ. eigenvalues --   -0.45525  -0.44039  -0.43313  -0.42337  -0.41807
 Alpha  occ. eigenvalues --   -0.39541  -0.34172  -0.34021  -0.33902  -0.30971
 Alpha  occ. eigenvalues --   -0.23597
 Alpha virt. eigenvalues --    0.04211   0.05020   0.11321   0.13412   0.14063
 Alpha virt. eigenvalues --    0.15162   0.16707   0.18042   0.18346   0.18436
 Alpha virt. eigenvalues --    0.19103   0.20534   0.21306   0.21874   0.22311
 Alpha virt. eigenvalues --    0.23271   0.23555   0.23787   0.24241   0.24664
 Alpha virt. eigenvalues --    0.25276   0.25613   0.27288   0.28471   0.30905
 Alpha virt. eigenvalues --    0.32671   0.35833   0.36515   0.36773   0.38715
 Alpha virt. eigenvalues --    0.39372   0.40552   0.42620   0.45102   0.45949
 Alpha virt. eigenvalues --    0.46306   0.48351   0.48751   0.50165   0.51843
 Alpha virt. eigenvalues --    0.52870   0.54652   0.55388   0.55927   0.56235
 Alpha virt. eigenvalues --    0.56777   0.57679   0.59202   0.60329   0.60558
 Alpha virt. eigenvalues --    0.62015   0.62723   0.64714   0.65043   0.66334
 Alpha virt. eigenvalues --    0.67604   0.69090   0.70171   0.71591   0.71769
 Alpha virt. eigenvalues --    0.72644   0.73055   0.73397   0.73705   0.74081
 Alpha virt. eigenvalues --    0.74717   0.75041   0.75672   0.75982   0.76203
 Alpha virt. eigenvalues --    0.76891   0.77493   0.77859   0.79161   0.79441
 Alpha virt. eigenvalues --    0.79612   0.80082   0.81711   0.82315   0.82836
 Alpha virt. eigenvalues --    0.83315   0.84169   0.85558   0.86695   0.87090
 Alpha virt. eigenvalues --    0.88660   0.90180   0.90792   0.91838   0.94253
 Alpha virt. eigenvalues --    0.96161   0.97004   1.02454   1.02925   1.04206
 Alpha virt. eigenvalues --    1.05939   1.10127   1.13340   1.14985   1.16665
 Alpha virt. eigenvalues --    1.18070   1.20154   1.21412   1.23528   1.27623
 Alpha virt. eigenvalues --    1.28820   1.30565   1.32044   1.32674   1.33403
 Alpha virt. eigenvalues --    1.35604   1.37005   1.37818   1.38447   1.39787
 Alpha virt. eigenvalues --    1.40970   1.43064   1.48323   1.50278   1.51392
 Alpha virt. eigenvalues --    1.53208   1.55314   1.57688   1.59921   1.61173
 Alpha virt. eigenvalues --    1.62880   1.63635   1.64136   1.68609   1.70842
 Alpha virt. eigenvalues --    1.72897   1.74535   1.76807   1.77551   1.78517
 Alpha virt. eigenvalues --    1.80175   1.80582   1.80980   1.82438   1.83381
 Alpha virt. eigenvalues --    1.83698   1.84284   1.84817   1.85233   1.86069
 Alpha virt. eigenvalues --    1.87643   1.88726   1.90314   1.90853   1.91739
 Alpha virt. eigenvalues --    1.93376   1.94377   1.95446   1.95712   1.98162
 Alpha virt. eigenvalues --    1.98678   1.98989   1.99540   2.00561   2.02192
 Alpha virt. eigenvalues --    2.03198   2.04935   2.05895   2.07368   2.08088
 Alpha virt. eigenvalues --    2.08721   2.09638   2.11904   2.12649   2.13011
 Alpha virt. eigenvalues --    2.15949   2.16473   2.19008   2.20270   2.21273
 Alpha virt. eigenvalues --    2.23362   2.24042   2.25512   2.28889   2.32136
 Alpha virt. eigenvalues --    2.35353   2.35460   2.37595   2.38760   2.39492
 Alpha virt. eigenvalues --    2.40509   2.41327   2.43101   2.43680   2.45025
 Alpha virt. eigenvalues --    2.46118   2.48524   2.50284   2.50529   2.52536
 Alpha virt. eigenvalues --    2.56576   2.59019   2.61860   2.62666   2.67332
 Alpha virt. eigenvalues --    2.70934   2.71549   2.73053   2.73979   2.76633
 Alpha virt. eigenvalues --    2.77528   2.78873   2.79999   2.81067   2.81841
 Alpha virt. eigenvalues --    2.82466   2.83813   2.87098   2.89978   2.91667
 Alpha virt. eigenvalues --    2.93261   2.96239   2.97176   2.99613   3.02712
 Alpha virt. eigenvalues --    3.03818   3.04197   3.05970   3.08708   3.09983
 Alpha virt. eigenvalues --    3.12350   3.13224   3.16288   3.20929   3.24444
 Alpha virt. eigenvalues --    3.28875   3.31408   3.32511   3.34470   3.47558
 Alpha virt. eigenvalues --    3.58546   3.71238   3.74154   3.82656
          Condensed to atoms (all electrons):
               1          2          3          4          5          6
     1  C    5.738150   0.352953  -0.141256   0.255419   0.002728  -0.000578
     2  C    0.352953   4.449356   0.636618  -0.016500  -0.000906   0.000199
     3  O   -0.141256   0.636618   7.928095   0.016853  -0.017143   0.000477
     4  C    0.255419  -0.016500   0.016853   5.474351  -0.031396  -0.012673
     5  C    0.002728  -0.000906  -0.017143  -0.031396   4.540247   0.395588
     6  H   -0.000578   0.000199   0.000477  -0.012673   0.395588   0.592386
     7  H   -0.000490   0.000014   0.000256   0.005236   0.397463  -0.021129
     8  H   -0.002445   0.000398   0.041316  -0.003705   0.385437  -0.012185
     9  N   -0.092198  -0.004897   0.001555   0.095329   0.303732  -0.015112
    10  H    0.001701   0.006776   0.002420   0.012866  -0.014504   0.005528
    11  H    0.006534  -0.000332  -0.000008  -0.004763  -0.015642  -0.006058
    12  C   -0.051470   0.010348   0.000817   0.166246   0.004267   0.000659
    13  C   -0.014904   0.000362  -0.000004  -0.097460   0.000064   0.000154
    14  C    0.000757  -0.000005  -0.000000   0.013080   0.000009  -0.000001
    15  C    0.000004   0.000000  -0.000000  -0.001744  -0.000001  -0.000000
    16  C   -0.000469   0.000007  -0.000000   0.021145  -0.000001  -0.000005
    17  C    0.007217  -0.000552  -0.000003  -0.089715   0.000139  -0.000151
    18  H    0.018637  -0.000761  -0.000036  -0.014646   0.000026  -0.000023
    19  H   -0.000018  -0.000001   0.000000  -0.000297  -0.000000  -0.000000
    20  H    0.000001   0.000000   0.000000   0.000020   0.000000   0.000000
    21  H    0.000005  -0.000000   0.000000  -0.000276  -0.000000  -0.000000
    22  H    0.000442  -0.000025   0.000004  -0.034889  -0.000089  -0.000080
    23  C   -0.043420  -0.016346  -0.016198   0.402101   0.020643   0.007126
    24  H   -0.024616   0.003018   0.024962   0.007938   0.004762  -0.002370
    25  H   -0.000234  -0.001282   0.000018  -0.009028  -0.000055   0.000109
    26  H    0.009570   0.000998   0.000053   0.004251  -0.002094   0.001062
    27  H    0.404040  -0.010852   0.004198  -0.062919  -0.000052   0.000004
    28  O   -0.131500   0.364748  -0.083528   0.005268  -0.000041   0.000001
    29  C    0.010645  -0.039261   0.001377  -0.000479   0.000006   0.000000
    30  H    0.000165   0.005688   0.001055   0.000001  -0.000000  -0.000000
    31  H    0.000777  -0.005467   0.009351   0.000054   0.000004  -0.000000
    32  H    0.001088  -0.003969   0.008369   0.000047  -0.000005   0.000000
               7          8          9         10         11         12
     1  C   -0.000490  -0.002445  -0.092198   0.001701   0.006534  -0.051470
     2  C    0.000014   0.000398  -0.004897   0.006776  -0.000332   0.010348
     3  O    0.000256   0.041316   0.001555   0.002420  -0.000008   0.000817
     4  C    0.005236  -0.003705   0.095329   0.012866  -0.004763   0.166246
     5  C    0.397463   0.385437   0.303732  -0.014504  -0.015642   0.004267
     6  H   -0.021129  -0.012185  -0.015112   0.005528  -0.006058   0.000659
     7  H    0.588710  -0.014124  -0.016516  -0.006380  -0.005450  -0.000278
     8  H   -0.014124   0.520898  -0.016631  -0.004433   0.005266   0.000369
     9  N   -0.016516  -0.016631   6.306449   0.320729   0.332733  -0.025165
    10  H   -0.006380  -0.004433   0.320729   0.491744  -0.007046  -0.008745
    11  H   -0.005450   0.005266   0.332733  -0.007046   0.509037  -0.008657
    12  C   -0.000278   0.000369  -0.025165  -0.008745  -0.008657   5.496520
    13  C   -0.000073  -0.000020  -0.010220   0.005242   0.005560   0.273927
    14  C   -0.000001  -0.000001  -0.000343   0.000123  -0.000337   0.071182
    15  C    0.000000   0.000000   0.000046   0.000008  -0.000030  -0.142760
    16  C    0.000000  -0.000001  -0.000177   0.000003  -0.000306   0.065557
    17  C   -0.000005  -0.000017  -0.000187  -0.000370   0.002138   0.344492
    18  H   -0.000012   0.000008  -0.003163   0.002188   0.001868  -0.080210
    19  H    0.000000   0.000000   0.000003  -0.000006   0.000013   0.014305
    20  H   -0.000000   0.000000  -0.000000   0.000000  -0.000003  -0.001482
    21  H    0.000000   0.000000   0.000002  -0.000000   0.000002   0.014435
    22  H    0.000000   0.000011   0.000376  -0.000021   0.000106  -0.050071
    23  C   -0.000267  -0.001567  -0.060132   0.006038   0.002687  -0.069431
    24  H    0.000183  -0.001098  -0.010358   0.000261  -0.000159   0.007028
    25  H   -0.000017   0.000088   0.005998  -0.000250  -0.000241  -0.008944
    26  H    0.000314  -0.000660  -0.002466  -0.000740   0.000621  -0.016187
    27  H    0.000011  -0.000131   0.003451   0.000461  -0.000100  -0.004264
    28  O    0.000001   0.000299   0.000052  -0.000509   0.000003  -0.000017
    29  C    0.000000  -0.000037   0.000012  -0.000041  -0.000001   0.000005
    30  H   -0.000000   0.000001   0.000000  -0.000002   0.000000  -0.000001
    31  H    0.000000  -0.000046   0.000004  -0.000032  -0.000000   0.000001
    32  H   -0.000002   0.000043  -0.000026   0.000166   0.000001  -0.000004
              13         14         15         16         17         18
     1  C   -0.014904   0.000757   0.000004  -0.000469   0.007217   0.018637
     2  C    0.000362  -0.000005   0.000000   0.000007  -0.000552  -0.000761
     3  O   -0.000004  -0.000000  -0.000000  -0.000000  -0.000003  -0.000036
     4  C   -0.097460   0.013080  -0.001744   0.021145  -0.089715  -0.014646
     5  C    0.000064   0.000009  -0.000001  -0.000001   0.000139   0.000026
     6  H    0.000154  -0.000001  -0.000000  -0.000005  -0.000151  -0.000023
     7  H   -0.000073  -0.000001   0.000000   0.000000  -0.000005  -0.000012
     8  H   -0.000020  -0.000001   0.000000  -0.000001  -0.000017   0.000008
     9  N   -0.010220  -0.000343   0.000046  -0.000177  -0.000187  -0.003163
    10  H    0.005242   0.000123   0.000008   0.000003  -0.000370   0.002188
    11  H    0.005560  -0.000337  -0.000030  -0.000306   0.002138   0.001868
    12  C    0.273927   0.071182  -0.142760   0.065557   0.344492  -0.080210
    13  C    5.177236   0.323191   0.073147  -0.131972   0.031708   0.453612
    14  C    0.323191   5.021693   0.296298   0.075197  -0.122561  -0.055159
    15  C    0.073147   0.296298   5.076883   0.305248   0.068685   0.013100
    16  C   -0.131972   0.075197   0.305248   5.061470   0.301182  -0.002029
    17  C    0.031708  -0.122561   0.068685   0.301182   5.068307   0.012878
    18  H    0.453612  -0.055159   0.013100  -0.002029   0.012878   0.643072
    19  H   -0.063375   0.449285  -0.067070   0.012346  -0.001627  -0.011542
    20  H    0.012521  -0.064070   0.447534  -0.062614   0.012554  -0.000187
    21  H   -0.001599   0.012221  -0.067273   0.445037  -0.058962   0.000021
    22  H    0.013413  -0.001868   0.013118  -0.067819   0.448248  -0.000137
    23  C    0.014776  -0.000475   0.000143  -0.000906   0.009328   0.000964
    24  H   -0.000096   0.000006   0.000003  -0.000045   0.000706   0.000051
    25  H   -0.000133   0.000024  -0.000048   0.000671   0.000076  -0.000029
    26  H   -0.001271  -0.000002  -0.000050   0.000932   0.004111  -0.000094
    27  H   -0.003704   0.000734  -0.000098   0.000005   0.000462   0.000715
    28  O   -0.000021  -0.000000  -0.000000   0.000000   0.000000  -0.000018
    29  C    0.000000   0.000000  -0.000000   0.000000  -0.000000  -0.000004
    30  H    0.000000  -0.000000   0.000000  -0.000000   0.000000   0.000000
    31  H   -0.000000  -0.000000  -0.000000  -0.000000   0.000000  -0.000000
    32  H    0.000001   0.000000  -0.000000   0.000000  -0.000000   0.000000
              19         20         21         22         23         24
     1  C   -0.000018   0.000001   0.000005   0.000442  -0.043420  -0.024616
     2  C   -0.000001   0.000000  -0.000000  -0.000025  -0.016346   0.003018
     3  O    0.000000   0.000000   0.000000   0.000004  -0.016198   0.024962
     4  C   -0.000297   0.000020  -0.000276  -0.034889   0.402101   0.007938
     5  C   -0.000000   0.000000  -0.000000  -0.000089   0.020643   0.004762
     6  H   -0.000000   0.000000  -0.000000  -0.000080   0.007126  -0.002370
     7  H    0.000000  -0.000000   0.000000   0.000000  -0.000267   0.000183
     8  H    0.000000   0.000000   0.000000   0.000011  -0.001567  -0.001098
     9  N    0.000003  -0.000000   0.000002   0.000376  -0.060132  -0.010358
    10  H   -0.000006   0.000000  -0.000000  -0.000021   0.006038   0.000261
    11  H    0.000013  -0.000003   0.000002   0.000106   0.002687  -0.000159
    12  C    0.014305  -0.001482   0.014435  -0.050071  -0.069431   0.007028
    13  C   -0.063375   0.012521  -0.001599   0.013413   0.014776  -0.000096
    14  C    0.449285  -0.064070   0.012221  -0.001868  -0.000475   0.000006
    15  C   -0.067070   0.447534  -0.067273   0.013118   0.000143   0.000003
    16  C    0.012346  -0.062614   0.445037  -0.067819  -0.000906  -0.000045
    17  C   -0.001627   0.012554  -0.058962   0.448248   0.009328   0.000706
    18  H   -0.011542  -0.000187   0.000021  -0.000137   0.000964   0.000051
    19  H    0.647175  -0.010563  -0.000208   0.000023   0.000004  -0.000000
    20  H   -0.010563   0.644724  -0.010587  -0.000202   0.000000   0.000000
    21  H   -0.000208  -0.010587   0.649010  -0.011792  -0.000002  -0.000000
    22  H    0.000023  -0.000202  -0.011792   0.653610   0.019730   0.000022
    23  C    0.000004   0.000000  -0.000002   0.019730   4.543092   0.373646
    24  H   -0.000000   0.000000  -0.000000   0.000022   0.373646   0.594083
    25  H    0.000000  -0.000000   0.000011   0.000632   0.388110  -0.012007
    26  H    0.000000  -0.000000   0.000019  -0.001140   0.355355  -0.027056
    27  H    0.000040  -0.000001   0.000000   0.000011   0.002027   0.000047
    28  O    0.000000  -0.000000   0.000000   0.000000  -0.000167   0.000069
    29  C   -0.000000   0.000000  -0.000000  -0.000000   0.000009  -0.000066
    30  H   -0.000000  -0.000000   0.000000  -0.000000   0.000002  -0.000003
    31  H    0.000000  -0.000000  -0.000000  -0.000000  -0.000037   0.000159
    32  H   -0.000000  -0.000000   0.000000  -0.000000   0.000014  -0.000049
              25         26         27         28         29         30
     1  C   -0.000234   0.009570   0.404040  -0.131500   0.010645   0.000165
     2  C   -0.001282   0.000998  -0.010852   0.364748  -0.039261   0.005688
     3  O    0.000018   0.000053   0.004198  -0.083528   0.001377   0.001055
     4  C   -0.009028   0.004251  -0.062919   0.005268  -0.000479   0.000001
     5  C   -0.000055  -0.002094  -0.000052  -0.000041   0.000006  -0.000000
     6  H    0.000109   0.001062   0.000004   0.000001   0.000000  -0.000000
     7  H   -0.000017   0.000314   0.000011   0.000001   0.000000  -0.000000
     8  H    0.000088  -0.000660  -0.000131   0.000299  -0.000037   0.000001
     9  N    0.005998  -0.002466   0.003451   0.000052   0.000012   0.000000
    10  H   -0.000250  -0.000740   0.000461  -0.000509  -0.000041  -0.000002
    11  H   -0.000241   0.000621  -0.000100   0.000003  -0.000001   0.000000
    12  C   -0.008944  -0.016187  -0.004264  -0.000017   0.000005  -0.000001
    13  C   -0.000133  -0.001271  -0.003704  -0.000021   0.000000   0.000000
    14  C    0.000024  -0.000002   0.000734  -0.000000   0.000000  -0.000000
    15  C   -0.000048  -0.000050  -0.000098  -0.000000  -0.000000   0.000000
    16  C    0.000671   0.000932   0.000005   0.000000   0.000000  -0.000000
    17  C    0.000076   0.004111   0.000462   0.000000  -0.000000   0.000000
    18  H   -0.000029  -0.000094   0.000715  -0.000018  -0.000004   0.000000
    19  H    0.000000   0.000000   0.000040   0.000000  -0.000000  -0.000000
    20  H   -0.000000  -0.000000  -0.000001  -0.000000   0.000000  -0.000000
    21  H    0.000011   0.000019   0.000000   0.000000  -0.000000   0.000000
    22  H    0.000632  -0.001140   0.000011   0.000000  -0.000000  -0.000000
    23  C    0.388110   0.355355   0.002027  -0.000167   0.000009   0.000002
    24  H   -0.012007  -0.027056   0.000047   0.000069  -0.000066  -0.000003
    25  H    0.604331  -0.024921   0.000782  -0.000010  -0.000001  -0.000000
    26  H   -0.024921   0.682668  -0.000158  -0.000000   0.000000   0.000000
    27  H    0.000782  -0.000158   0.658611   0.006009  -0.000183  -0.000177
    28  O   -0.000010  -0.000000   0.006009   8.011961   0.289098  -0.025949
    29  C   -0.000001   0.000000  -0.000183   0.289098   4.392602   0.395432
    30  H   -0.000000   0.000000  -0.000177  -0.025949   0.395432   0.645773
    31  H    0.000001   0.000001   0.000027  -0.030507   0.401697  -0.027336
    32  H   -0.000000  -0.000001   0.000032  -0.031982   0.397290  -0.027653
              31         32
     1  C    0.000777   0.001088
     2  C   -0.005467  -0.003969
     3  O    0.009351   0.008369
     4  C    0.000054   0.000047
     5  C    0.000004  -0.000005
     6  H   -0.000000   0.000000
     7  H    0.000000  -0.000002
     8  H   -0.000046   0.000043
     9  N    0.000004  -0.000026
    10  H   -0.000032   0.000166
    11  H   -0.000000   0.000001
    12  C    0.000001  -0.000004
    13  C   -0.000000   0.000001
    14  C   -0.000000   0.000000
    15  C   -0.000000  -0.000000
    16  C   -0.000000   0.000000
    17  C    0.000000  -0.000000
    18  H   -0.000000   0.000000
    19  H    0.000000  -0.000000
    20  H   -0.000000  -0.000000
    21  H   -0.000000   0.000000
    22  H   -0.000000  -0.000000
    23  C   -0.000037   0.000014
    24  H    0.000159  -0.000049
    25  H    0.000001  -0.000000
    26  H    0.000001  -0.000001
    27  H    0.000027   0.000032
    28  O   -0.030507  -0.031982
    29  C    0.401697   0.397290
    30  H   -0.027336  -0.027653
    31  H    0.663718  -0.038573
    32  H   -0.038573   0.676342
 Mulliken charges:
               1
     1  C   -0.307234
     2  C    0.269672
     3  O   -0.419619
     4  C   -0.099715
     5  C    0.026817
     6  H    0.067073
     7  H    0.072557
     8  H    0.102967
     9  N   -0.112877
    10  H    0.186825
    11  H    0.182567
    12  C   -0.002472
    13  C   -0.060062
    14  C   -0.018977
    15  C   -0.015144
    16  C   -0.022455
    17  C   -0.038080
    18  H    0.020911
    19  H    0.031513
    20  H    0.032354
    21  H    0.029937
    22  H    0.018388
    23  C    0.063153
    24  H    0.060980
    25  H    0.056350
    26  H    0.016883
    27  H    0.000969
    28  O   -0.373260
    29  C    0.151903
    30  H    0.033003
    31  H    0.026203
    32  H    0.018871
 Sum of Mulliken charges =  -0.00000
 Mulliken charges with hydrogens summed into heavy atoms:
               1
     1  C   -0.306265
     2  C    0.269672
     3  O   -0.419619
     4  C   -0.099715
     5  C    0.269414
     9  N    0.256514
    12  C   -0.002472
    13  C   -0.039151
    14  C    0.012536
    15  C    0.017211
    16  C    0.007482
    17  C   -0.019692
    23  C    0.197366
    28  O   -0.373260
    29  C    0.229979
 APT charges:
               1
     1  C   -1.047014
     2  C    1.704982
     3  O   -1.058050
     4  C    0.958762
     5  C    0.154771
     6  H    0.030787
     7  H    0.007527
     8  H    0.131194
     9  N   -0.592548
    10  H    0.221675
    11  H    0.208899
    12  C   -0.002933
    13  C   -0.106210
    14  C   -0.021490
    15  C   -0.049865
    16  C   -0.023055
    17  C   -0.083968
    18  H    0.074719
    19  H    0.035285
    20  H    0.038193
    21  H    0.033548
    22  H    0.065608
    23  C   -0.117859
    24  H    0.065960
    25  H    0.028641
    26  H   -0.028280
    27  H    0.042510
    28  O   -1.156338
    29  C    0.634889
    30  H   -0.037943
    31  H   -0.051508
    32  H   -0.060886
 Sum of APT charges =  -0.00000
 APT charges with hydrogens summed into heavy atoms:
               1
     1  C   -1.004505
     2  C    1.704982
     3  O   -1.058050
     4  C    0.958762
     5  C    0.324278
     9  N   -0.161974
    12  C   -0.002933
    13  C   -0.031491
    14  C    0.013795
    15  C   -0.011672
    16  C    0.010493
    17  C   -0.018360
    23  C   -0.051539
    28  O   -1.156338
    29  C    0.484551
 Electronic spatial extent (au):  <R**2>=           3887.8965
 Charge=             -0.0000 electrons
 Dipole moment (field-independent basis, Debye):
    X=              5.2331    Y=              4.0254    Z=             -3.3730  Tot=              7.4140
 Quadrupole moment (field-independent basis, Debye-Ang):
   XX=            -92.4970   YY=            -85.3907   ZZ=            -82.7111
   XY=              0.2289   XZ=              2.1514   YZ=             -1.0302
 Traceless Quadrupole moment (field-independent basis, Debye-Ang):
   XX=             -5.6307   YY=              1.4755   ZZ=              4.1552
   XY=              0.2289   XZ=              2.1514   YZ=             -1.0302
 Octapole moment (field-independent basis, Debye-Ang**2):
  XXX=             15.2957  YYY=             30.7348  ZZZ=            -14.9265  XYY=             -3.6871
  XXY=            -25.0105  XXZ=              2.0755  XZZ=             -6.2010  YZZ=             11.7462
  YYZ=            -16.7794  XYZ=             10.1460
 Hexadecapole moment (field-independent basis, Debye-Ang**3):
 XXXX=          -3435.0755 YYYY=           -913.4461 ZZZZ=           -450.5050 XXXY=             50.3229
 XXXZ=             24.8381 YYYX=             -2.7353 YYYZ=            -21.7003 ZZZX=              7.9120
 ZZZY=            -13.7760 XXYY=           -775.7713 XXZZ=           -683.5325 YYZZ=           -219.5028
 XXYZ=             29.7001 YYXZ=             -8.2183 ZZXY=             -1.2225
 N-N= 1.010466695197D+03 E-N=-3.583065305082D+03  KE= 6.648222553370D+02
  Exact polarizability:     214.990      -5.105     142.542       4.724      16.508     130.928
 Approx polarizability:     183.487      -7.311     145.880       5.586      18.329     138.917
   1 Symmetry operations used in ECPInt.
 ECPInt:  NShTT=   10011 NPrTT=   35491 LenC2=    9437 LenP2D=   24603.
 LDataN:  DoStor=T MaxTD1= 6 Len=  172
 D2PCM: PCM CHGder 2nd derivatives, FixD1E=F FixD2E=F DoIter=F DoCFld=F I1PDM=0
 Calling FoFJK, ICntrl=    100127 FMM=F ISym2X=0 I1Cent= 0 IOpClX= 0 NMat=1 NMatS=1 NMatT=0.
 Full mass-weighted force constant matrix:
 Low frequencies ---  -77.1450   -6.4862   -0.0003    0.0003    0.0010    7.3717
 Low frequencies ---   12.2763   49.5572   73.4053
 ******    1 imaginary frequencies (negative Signs) ****** 
 Diagonal vibrational polarizability:
       90.9108443      54.0635290      64.3978186
 Harmonic frequencies (cm**-1), IR intensities (KM/Mole), Raman scattering
 activities (A**4/AMU), depolarization ratios for plane and unpolarized
 incident light, reduced masses (AMU), force constants (mDyne/A),
 and normal coordinates:
                      1                      2                      3
                      A                      A                      A
 Frequencies --    -77.1119                49.4277                73.3674
 Red. masses --      2.7881                 3.8036                 3.0848
 Frc consts  --      0.0098                 0.0055                 0.0098
 IR Inten    --      2.1372                 0.4997                 5.4115
  Atom  AN      X      Y      Z        X      Y      Z        X      Y      Z
     1   6    -0.01   0.06  -0.08    -0.02  -0.01   0.01    -0.02  -0.04  -0.16
     2   6    -0.03   0.04   0.02    -0.02   0.01   0.00    -0.02  -0.01  -0.09
     3   8    -0.09   0.02   0.19    -0.02   0.02   0.07     0.00   0.00  -0.05
     4   6     0.01   0.00  -0.01     0.00  -0.03   0.05    -0.01  -0.05  -0.06
     5   6    -0.13  -0.05  -0.09    -0.00  -0.02   0.07     0.07   0.03   0.05
     6   1    -0.37   0.04   0.05    -0.04  -0.01   0.10     0.08  -0.02   0.10
     7   1    -0.04  -0.01  -0.08     0.01   0.01   0.07     0.10   0.09   0.07
     8   1    -0.17  -0.28  -0.24    -0.01  -0.06   0.04     0.06   0.03   0.02
     9   7     0.16   0.09  -0.05     0.04   0.01   0.06     0.04   0.02  -0.01
    10   1     0.43   0.00  -0.21     0.09   0.00   0.01     0.04   0.06  -0.05
    11   1     0.24   0.32   0.17     0.06   0.05   0.10     0.05   0.02   0.01
    12   6     0.00  -0.03   0.01     0.00  -0.04   0.03    -0.00  -0.03  -0.02
    13   6     0.01  -0.01  -0.00    -0.04  -0.17   0.14     0.05  -0.04   0.01
    14   6     0.02  -0.01   0.01    -0.03  -0.14   0.10     0.07   0.00   0.04
    15   6     0.01  -0.02   0.02     0.02   0.04  -0.05     0.04   0.06   0.04
    16   6    -0.00  -0.04   0.03     0.06   0.19  -0.17    -0.01   0.08   0.01
    17   6    -0.00  -0.04   0.02     0.05   0.14  -0.12    -0.03   0.03  -0.02
    18   1     0.03   0.00  -0.03    -0.07  -0.29   0.24     0.07  -0.08   0.00
    19   1     0.02   0.00  -0.00    -0.06  -0.25   0.19     0.11  -0.01   0.06
    20   1     0.01  -0.02   0.03     0.03   0.07  -0.09     0.06   0.10   0.06
    21   1    -0.01  -0.05   0.04     0.10   0.33  -0.29    -0.03   0.13   0.02
    22   1    -0.01  -0.05   0.03     0.09   0.25  -0.21    -0.06   0.04  -0.04
    23   6     0.01   0.02  -0.04     0.01  -0.05   0.06    -0.06  -0.13  -0.01
    24   1     0.02   0.05  -0.06     0.00  -0.07   0.09    -0.07  -0.14  -0.02
    25   1    -0.02   0.04  -0.02     0.05  -0.06   0.05    -0.08  -0.18  -0.04
    26   1     0.03   0.01  -0.05    -0.02  -0.04   0.06    -0.08  -0.11   0.07
    27   1    -0.03   0.04  -0.26    -0.05  -0.02  -0.04    -0.04  -0.05  -0.13
    28   8     0.02  -0.00  -0.06    -0.03   0.01  -0.09    -0.04   0.01  -0.05
    29   6     0.01  -0.04   0.02    -0.02   0.02  -0.14    -0.07   0.07   0.26
    30   1     0.05  -0.07  -0.04    -0.03   0.02  -0.20    -0.08   0.07   0.16
    31   1     0.03  -0.13   0.10    -0.05  -0.00  -0.14     0.11  -0.08   0.47
    32   1    -0.06   0.03   0.08     0.02   0.06  -0.14    -0.25   0.26   0.41
                      4                      5                      6
                      A                      A                      A
 Frequencies --     84.7301               102.0606               118.6534
 Red. masses --      4.4219                 1.8880                 2.1175
 Frc consts  --      0.0187                 0.0116                 0.0176
 IR Inten    --      5.2669                 7.6343                 4.0208
  Atom  AN      X      Y      Z        X      Y      Z        X      Y      Z
     1   6    -0.04  -0.08   0.08     0.02  -0.01   0.04     0.00  -0.02  -0.09
     2   6    -0.04  -0.01   0.08     0.02  -0.01   0.03    -0.00  -0.01   0.04
     3   8     0.03   0.03   0.14     0.02  -0.00   0.13     0.00   0.00   0.16
     4   6    -0.02  -0.12   0.06    -0.01   0.00   0.00    -0.01  -0.02  -0.06
     5   6     0.10  -0.11  -0.12     0.07   0.06  -0.03     0.06   0.08   0.02
     6   1     0.14  -0.11  -0.16     0.21   0.02  -0.14     0.16   0.02  -0.02
     7   1     0.11  -0.15  -0.14    -0.02   0.03  -0.04    -0.00   0.11   0.04
     8   1     0.09  -0.02  -0.10     0.10   0.19   0.09     0.09   0.15   0.10
     9   7     0.02  -0.14  -0.04    -0.09  -0.01  -0.05    -0.05   0.03  -0.06
    10   1    -0.01  -0.15   0.00    -0.23   0.02   0.06    -0.15   0.08  -0.02
    11   1     0.03  -0.22  -0.05    -0.13  -0.14  -0.17    -0.08  -0.04  -0.13
    12   6    -0.01  -0.09   0.07    -0.00   0.03  -0.02     0.00   0.01  -0.06
    13   6     0.04   0.01  -0.00    -0.01   0.01  -0.00     0.04  -0.01  -0.04
    14   6     0.08   0.16  -0.09    -0.02  -0.02   0.03     0.04  -0.03   0.04
    15   6     0.07   0.20  -0.09    -0.02  -0.04   0.04     0.01  -0.02   0.07
    16   6     0.01   0.06   0.01    -0.01  -0.01   0.01    -0.03   0.02   0.03
    17   6    -0.03  -0.08   0.08    -0.00   0.03  -0.01    -0.03   0.03  -0.04
    18   1     0.06  -0.01  -0.02    -0.01   0.02  -0.01     0.07  -0.01  -0.07
    19   1     0.13   0.25  -0.15    -0.02  -0.04   0.04     0.07  -0.05   0.07
    20   1     0.10   0.33  -0.16    -0.03  -0.07   0.07     0.01  -0.04   0.13
    21   1    -0.01   0.08   0.02    -0.02  -0.02   0.02    -0.05   0.03   0.05
    22   1    -0.07  -0.16   0.14    -0.00   0.04  -0.03    -0.05   0.05  -0.06
    23   6    -0.02  -0.03  -0.02     0.00   0.04  -0.03    -0.03  -0.06  -0.04
    24   1    -0.01  -0.01  -0.05    -0.00   0.02  -0.01    -0.03  -0.09  -0.02
    25   1    -0.04   0.03   0.03     0.03   0.08  -0.01    -0.00  -0.07  -0.06
    26   1     0.01  -0.05  -0.08    -0.01   0.05  -0.08    -0.05  -0.04  -0.02
    27   1    -0.08  -0.10  -0.07     0.03  -0.01  -0.09     0.00  -0.03  -0.21
    28   8    -0.11   0.04  -0.02     0.03  -0.03  -0.12    -0.01  -0.01   0.05
    29   6    -0.09   0.14  -0.08     0.02  -0.02   0.00     0.00  -0.01  -0.05
    30   1    -0.17   0.17  -0.13     0.06  -0.07  -0.42    -0.04   0.04   0.38
    31   1    -0.09   0.16  -0.09     0.02  -0.40   0.31     0.02   0.37  -0.34
    32   1    -0.01   0.18  -0.09    -0.03   0.40   0.22     0.04  -0.43  -0.26
                      7                      8                      9
                      A                      A                      A
 Frequencies --    137.1038               160.0947               214.8841
 Red. masses --      3.6195                 2.1722                 3.7449
 Frc consts  --      0.0401                 0.0328                 0.1019
 IR Inten    --      1.1823                 1.7965                20.2596
  Atom  AN      X      Y      Z        X      Y      Z        X      Y      Z
     1   6    -0.04   0.05   0.01    -0.02   0.00  -0.07     0.10  -0.11  -0.01
     2   6    -0.05   0.02   0.00    -0.02   0.02   0.04     0.11  -0.11   0.02
     3   8    -0.10  -0.02  -0.03    -0.02   0.01  -0.02     0.19  -0.08   0.01
     4   6    -0.02  -0.01   0.06    -0.00  -0.01  -0.05    -0.02  -0.06   0.07
     5   6     0.27   0.13  -0.06     0.01   0.02   0.03    -0.03   0.08  -0.12
     6   1     0.30   0.05   0.00    -0.00  -0.00   0.07    -0.20   0.06   0.09
     7   1     0.37   0.18  -0.05     0.02   0.06   0.04     0.20   0.17  -0.11
     8   1     0.23   0.24  -0.11     0.01  -0.01   0.01    -0.12   0.02  -0.34
     9   7     0.13   0.07  -0.03     0.02   0.02  -0.02     0.03   0.11  -0.04
    10   1     0.09   0.12  -0.04     0.03   0.04  -0.05     0.14   0.09  -0.12
    11   1     0.16  -0.04   0.02     0.03   0.05  -0.00     0.09   0.15   0.08
    12   6    -0.04  -0.05   0.08     0.00  -0.01  -0.04    -0.03   0.03   0.05
    13   6    -0.08  -0.03   0.05     0.03  -0.02  -0.03    -0.08   0.03   0.02
    14   6    -0.07   0.02  -0.03     0.04  -0.00   0.00    -0.11  -0.01  -0.01
    15   6    -0.04   0.05  -0.09     0.02   0.01   0.02    -0.09  -0.03  -0.02
    16   6    -0.01   0.01  -0.04    -0.01   0.01   0.01    -0.03   0.00  -0.03
    17   6    -0.02  -0.04   0.04    -0.02  -0.00  -0.02    -0.02   0.04   0.01
    18   1    -0.10  -0.03   0.08     0.05  -0.03  -0.05    -0.11   0.07   0.04
    19   1    -0.10   0.04  -0.06     0.07  -0.01   0.01    -0.14  -0.01  -0.01
    20   1    -0.03   0.10  -0.17     0.03   0.01   0.05    -0.10  -0.06  -0.04
    21   1     0.02   0.02  -0.08    -0.03   0.02   0.03     0.00  -0.01  -0.06
    22   1    -0.01  -0.06   0.07    -0.04   0.00  -0.03    -0.00   0.04   0.01
    23   6    -0.05   0.04   0.00    -0.01  -0.05  -0.02    -0.15  -0.06   0.03
    24   1    -0.04   0.09  -0.07    -0.01  -0.05  -0.02    -0.17  -0.11  -0.06
    25   1    -0.12   0.07   0.04    -0.02  -0.09  -0.04    -0.17  -0.02   0.06
    26   1    -0.01   0.02   0.00    -0.01  -0.05   0.02    -0.19  -0.03   0.04
    27   1    -0.05   0.04  -0.09    -0.03  -0.00  -0.02     0.15  -0.10  -0.19
    28   8     0.03  -0.04   0.04    -0.03   0.03   0.23     0.03  -0.04   0.06
    29   6     0.02  -0.19   0.03    -0.00  -0.02  -0.09     0.05   0.15  -0.01
    30   1     0.12  -0.23   0.10     0.05  -0.09  -0.64    -0.09   0.21  -0.09
    31   1    -0.05  -0.17  -0.02    -0.29  -0.40   0.07     0.10   0.17  -0.01
    32   1    -0.03  -0.30  -0.01     0.24   0.37   0.03     0.18   0.24  -0.00
                     10                     11                     12
                      A                      A                      A
 Frequencies --    236.1203               264.7564               284.0977
 Red. masses --      3.4795                 1.3413                 3.5996
 Frc consts  --      0.1143                 0.0554                 0.1712
 IR Inten    --     36.8162                 1.2578                 1.3865
  Atom  AN      X      Y      Z        X      Y      Z        X      Y      Z
     1   6    -0.00  -0.02   0.11    -0.02  -0.01   0.08    -0.04  -0.02   0.05
     2   6    -0.02  -0.03   0.01    -0.02  -0.02   0.02    -0.08  -0.05   0.01
     3   8     0.01  -0.04  -0.09    -0.02  -0.02  -0.01    -0.10  -0.07  -0.03
     4   6    -0.00  -0.12   0.09    -0.00  -0.01   0.01     0.00  -0.04   0.09
     5   6    -0.12   0.16   0.01     0.02   0.03  -0.00     0.03   0.02  -0.09
     6   1    -0.03   0.21  -0.14    -0.22  -0.15   0.45     0.14   0.16  -0.36
     7   1    -0.39   0.16   0.03     0.54   0.29   0.04    -0.23  -0.16  -0.13
     8   1    -0.02   0.15   0.22    -0.19  -0.02  -0.46     0.13   0.08   0.14
     9   7    -0.08   0.19  -0.10    -0.03   0.00   0.00     0.06   0.05  -0.00
    10   1    -0.08   0.20  -0.10    -0.05   0.03  -0.01     0.12   0.01  -0.01
    11   1    -0.09   0.22  -0.11    -0.03  -0.03   0.01     0.09   0.05   0.06
    12   6    -0.00  -0.11   0.02     0.01   0.01  -0.04     0.07   0.08   0.03
    13   6     0.05  -0.12   0.04     0.03   0.01  -0.04     0.07   0.15  -0.04
    14   6     0.08  -0.03   0.02     0.04   0.00  -0.00     0.03   0.03  -0.02
    15   6     0.08   0.05  -0.02     0.02  -0.02   0.03     0.05  -0.14   0.04
    16   6     0.02  -0.00   0.01     0.01   0.01   0.00     0.12  -0.03  -0.03
    17   6    -0.01  -0.10   0.03     0.01   0.02  -0.04     0.15   0.11  -0.05
    18   1     0.08  -0.15   0.02     0.05   0.01  -0.06     0.06   0.22  -0.07
    19   1     0.12  -0.01   0.01     0.05  -0.01   0.01    -0.03   0.03  -0.04
    20   1     0.11   0.15  -0.06     0.02  -0.05   0.07     0.00  -0.31   0.12
    21   1    -0.00   0.04   0.01    -0.01   0.01   0.02     0.14  -0.06  -0.04
    22   1    -0.03  -0.13   0.05     0.01   0.03  -0.05     0.21   0.16  -0.08
    23   6     0.09   0.06  -0.05     0.05   0.03  -0.01    -0.05  -0.04   0.08
    24   1     0.10   0.09  -0.02     0.07   0.12  -0.05    -0.08  -0.18   0.13
    25   1     0.14   0.22   0.03    -0.03   0.02   0.01     0.09   0.01   0.08
    26   1     0.11   0.04  -0.26     0.13  -0.03   0.00    -0.16   0.04   0.01
    27   1    -0.02  -0.05  -0.26    -0.01  -0.01   0.05    -0.03  -0.02  -0.12
    28   8    -0.03  -0.01   0.00    -0.04  -0.02  -0.02    -0.12  -0.04   0.01
    29   6    -0.03   0.01   0.01    -0.04  -0.00   0.00    -0.13   0.01  -0.00
    30   1    -0.05   0.02   0.03    -0.05   0.01   0.01    -0.16   0.02  -0.01
    31   1    -0.01   0.03   0.01    -0.02   0.01   0.00    -0.11   0.02  -0.01
    32   1    -0.03   0.00   0.01    -0.05  -0.00   0.00    -0.10   0.02  -0.01
                     13                     14                     15
                      A                      A                      A
 Frequencies --    297.9872               319.8457               356.7599
 Red. masses --      3.2016                 3.7167                 3.0821
 Frc consts  --      0.1675                 0.2240                 0.2311
 IR Inten    --     21.5368                11.9513                36.4573
  Atom  AN      X      Y      Z        X      Y      Z        X      Y      Z
     1   6     0.01  -0.02   0.06    -0.01  -0.02   0.15     0.01   0.03  -0.15
     2   6     0.00  -0.11   0.02     0.01   0.06   0.03    -0.01  -0.07  -0.03
     3   8    -0.01  -0.12   0.00     0.09   0.09  -0.04    -0.08  -0.10   0.02
     4   6    -0.00   0.02  -0.05    -0.01  -0.08   0.07     0.00   0.08  -0.03
     5   6     0.08  -0.05   0.17     0.02  -0.01  -0.10     0.01   0.07  -0.15
     6   1     0.16  -0.03   0.05     0.02   0.08  -0.20     0.01   0.16  -0.26
     7   1    -0.16  -0.04   0.20    -0.05  -0.12  -0.13     0.08  -0.15  -0.24
     8   1     0.18  -0.13   0.35     0.05   0.01  -0.03    -0.02   0.20  -0.17
     9   7     0.15  -0.00   0.01     0.06   0.02   0.02    -0.04   0.02   0.09
    10   1     0.26   0.05  -0.16     0.17   0.00  -0.06    -0.07  -0.03   0.17
    11   1     0.21   0.12   0.14     0.12   0.06   0.14    -0.05  -0.06   0.05
    12   6    -0.04  -0.00  -0.04    -0.06  -0.06  -0.09    -0.01   0.02  -0.02
    13   6    -0.03   0.02  -0.06    -0.02  -0.00  -0.13    -0.03  -0.03   0.02
    14   6    -0.03   0.02  -0.01     0.01   0.03  -0.02    -0.02  -0.01   0.03
    15   6    -0.07   0.01   0.04    -0.08   0.00   0.10    -0.01   0.06  -0.01
    16   6    -0.08   0.04   0.01    -0.13   0.07   0.02    -0.03   0.01   0.02
    17   6    -0.08   0.04  -0.04    -0.13   0.05  -0.10    -0.03  -0.03   0.03
    18   1    -0.02   0.03  -0.08     0.03   0.00  -0.20    -0.03  -0.06   0.05
    19   1     0.01   0.02   0.00     0.10   0.04  -0.01    -0.01  -0.03   0.05
    20   1    -0.07  -0.01   0.09    -0.09  -0.04   0.22     0.00   0.11  -0.05
    21   1    -0.10   0.05   0.02    -0.18   0.11   0.05    -0.04   0.01   0.03
    22   1    -0.10   0.06  -0.07    -0.19   0.08  -0.16    -0.02  -0.06   0.06
    23   6     0.09   0.13  -0.11     0.12  -0.12   0.13     0.21  -0.03   0.12
    24   1     0.10   0.15  -0.05     0.10  -0.22   0.31     0.25   0.11   0.27
    25   1     0.14   0.23  -0.07     0.34  -0.12   0.08     0.25  -0.17   0.02
    26   1     0.10   0.12  -0.25     0.01  -0.05   0.04     0.32  -0.10   0.15
    27   1     0.08   0.00   0.08    -0.04  -0.04  -0.07     0.07   0.06   0.11
    28   8    -0.04  -0.09  -0.00     0.03   0.06  -0.03    -0.01  -0.08   0.02
    29   6    -0.03   0.10  -0.01     0.02  -0.09   0.02     0.01   0.08  -0.01
    30   1    -0.17   0.16  -0.03     0.13  -0.14   0.06    -0.12   0.14  -0.05
    31   1     0.06   0.15  -0.01    -0.03  -0.12   0.02     0.07   0.12  -0.01
    32   1     0.05   0.16  -0.01    -0.07  -0.15   0.01     0.10   0.15  -0.00
                     16                     17                     18
                      A                      A                      A
 Frequencies --    374.6280               392.8007               402.9091
 Red. masses --      3.8698                 2.1042                 1.3159
 Frc consts  --      0.3200                 0.1913                 0.1259
 IR Inten    --     19.3700                10.1814                 6.2356
  Atom  AN      X      Y      Z        X      Y      Z        X      Y      Z
     1   6     0.01  -0.10  -0.15     0.01  -0.03  -0.01     0.00  -0.00  -0.03
     2   6     0.00  -0.04  -0.05     0.01  -0.03   0.01     0.00  -0.02  -0.01
     3   8     0.20   0.06   0.02     0.11   0.02   0.03     0.04   0.01   0.02
     4   6    -0.01  -0.05  -0.02    -0.02   0.05  -0.00    -0.01   0.05  -0.02
     5   6    -0.02  -0.01   0.03    -0.01   0.05  -0.04     0.01   0.02  -0.01
     6   1    -0.05  -0.04   0.09     0.02   0.18  -0.23    -0.05   0.03   0.03
     7   1     0.00   0.06   0.05    -0.05  -0.21  -0.13     0.14  -0.01  -0.04
     8   1    -0.02  -0.06  -0.00     0.01   0.14   0.02    -0.04   0.05  -0.11
     9   7    -0.00  -0.00  -0.04     0.01   0.03   0.16    -0.00   0.00   0.07
    10   1    -0.01   0.00  -0.04     0.09   0.02   0.08     0.02   0.01   0.04
    11   1    -0.01   0.01  -0.04     0.05   0.05   0.24     0.01   0.00   0.10
    12   6     0.01   0.05   0.09    -0.01  -0.02  -0.05    -0.00  -0.00  -0.02
    13   6    -0.05   0.09   0.07     0.04  -0.03  -0.05     0.01  -0.05   0.02
    14   6    -0.09   0.03   0.03     0.05  -0.03  -0.00     0.03   0.01  -0.02
    15   6    -0.06  -0.00  -0.00     0.04  -0.00   0.00     0.03   0.01  -0.02
    16   6     0.03   0.02   0.01    -0.00  -0.00  -0.02    -0.00  -0.05   0.02
    17   6     0.04   0.05   0.08    -0.02  -0.03  -0.04     0.00  -0.01  -0.02
    18   1    -0.10   0.15   0.10     0.06  -0.06  -0.06     0.01  -0.10   0.05
    19   1    -0.14   0.03   0.02     0.07  -0.05   0.02     0.04   0.03  -0.04
    20   1    -0.08  -0.05  -0.04     0.05   0.01   0.03     0.04   0.05  -0.03
    21   1     0.08  -0.00  -0.04    -0.03   0.02  -0.00    -0.02  -0.07   0.06
    22   1     0.11   0.04   0.10    -0.05  -0.05  -0.03     0.00   0.02  -0.05
    23   6     0.18   0.02  -0.06    -0.08   0.08  -0.01    -0.04   0.05  -0.01
    24   1     0.23   0.18   0.09    -0.02   0.34  -0.33    -0.15  -0.38   0.25
    25   1     0.26   0.06  -0.05    -0.50   0.02   0.06     0.47   0.25  -0.02
    26   1     0.31  -0.08  -0.23     0.15  -0.07   0.16    -0.42   0.30  -0.28
    27   1     0.03  -0.09  -0.15     0.06   0.01   0.24     0.03   0.02   0.13
    28   8    -0.13   0.04   0.01    -0.06  -0.01  -0.01    -0.03  -0.00   0.00
    29   6    -0.16  -0.15   0.00    -0.07  -0.06  -0.00    -0.03  -0.02  -0.00
    30   1    -0.00  -0.22   0.01    -0.02  -0.08   0.00    -0.02  -0.03  -0.00
    31   1    -0.28  -0.22   0.00    -0.10  -0.08   0.00    -0.04  -0.03  -0.00
    32   1    -0.23  -0.22  -0.01    -0.10  -0.08  -0.00    -0.04  -0.03  -0.00
                     19                     20                     21
                      A                      A                      A
 Frequencies --    426.0208               460.7901               545.2958
 Red. masses --      2.6273                 2.9909                 2.9004
 Frc consts  --      0.2809                 0.3742                 0.5081
 IR Inten    --      0.1249                 8.5381                20.9801
  Atom  AN      X      Y      Z        X      Y      Z        X      Y      Z
     1   6    -0.00  -0.01  -0.01     0.02   0.04   0.16     0.04   0.08  -0.08
     2   6     0.00   0.00  -0.00     0.01  -0.03   0.07     0.01  -0.04  -0.05
     3   8    -0.00  -0.00   0.00     0.05  -0.02   0.00     0.06  -0.02  -0.00
     4   6     0.00  -0.02   0.01     0.02   0.13  -0.13    -0.03   0.11   0.10
     5   6    -0.01   0.00   0.00     0.01   0.01  -0.01     0.02  -0.08   0.02
     6   1     0.01   0.01  -0.02     0.04  -0.03   0.01     0.02  -0.17   0.12
     7   1    -0.05   0.00   0.00    -0.10   0.10   0.03    -0.06   0.11   0.10
     8   1     0.01   0.00   0.03     0.05  -0.08   0.07     0.05  -0.19   0.06
     9   7    -0.00   0.01  -0.02     0.05   0.03  -0.14     0.01  -0.02  -0.12
    10   1    -0.00   0.00  -0.01     0.09   0.06  -0.21    -0.09  -0.11   0.08
    11   1    -0.00   0.00  -0.02     0.07   0.10  -0.09    -0.04  -0.11  -0.24
    12   6     0.00  -0.01   0.01     0.03   0.13  -0.09    -0.06  -0.02  -0.01
    13   6    -0.04  -0.14   0.12    -0.01  -0.02   0.04     0.01  -0.03  -0.01
    14   6     0.03   0.15  -0.12    -0.02  -0.05   0.04     0.04   0.00   0.01
    15   6    -0.01  -0.01   0.01     0.02   0.09  -0.08     0.06  -0.02   0.01
    16   6    -0.03  -0.13   0.11    -0.01  -0.06   0.05    -0.02  -0.02  -0.03
    17   6     0.04   0.16  -0.12     0.00  -0.02   0.03    -0.04  -0.04  -0.07
    18   1    -0.09  -0.29   0.26    -0.05  -0.12   0.14     0.09  -0.05  -0.09
    19   1     0.07   0.33  -0.26    -0.05  -0.15   0.12     0.05   0.03  -0.02
    20   1    -0.02  -0.02   0.02     0.04   0.17  -0.15     0.07   0.01   0.02
    21   1    -0.07  -0.30   0.24    -0.03  -0.17   0.13    -0.07   0.04  -0.01
    22   1     0.09   0.35  -0.27    -0.01  -0.11   0.10    -0.03  -0.01  -0.09
    23   6     0.02  -0.01  -0.00    -0.01  -0.09   0.04    -0.04   0.16   0.22
    24   1     0.06   0.17  -0.11    -0.03  -0.16   0.11    -0.03   0.18   0.25
    25   1    -0.19  -0.09   0.01    -0.02  -0.40  -0.14    -0.05   0.08   0.18
    26   1     0.17  -0.11   0.10    -0.04  -0.06   0.36    -0.02   0.14   0.29
    27   1    -0.02  -0.01   0.02     0.12   0.08   0.33     0.15   0.10  -0.54
    28   8     0.00  -0.00  -0.00    -0.07  -0.02  -0.03    -0.03  -0.02   0.03
    29   6     0.01   0.00  -0.00    -0.09  -0.03  -0.01    -0.05  -0.01   0.00
    30   1     0.00   0.00  -0.00    -0.07  -0.04   0.01    -0.05  -0.01  -0.01
    31   1     0.01   0.00  -0.00    -0.09  -0.04   0.00    -0.06  -0.01  -0.00
    32   1     0.01   0.00   0.00    -0.13  -0.05  -0.01    -0.03  -0.01  -0.00
                     22                     23                     24
                      A                      A                      A
 Frequencies --    567.6103               604.1037               623.2674
 Red. masses --      1.8440                 3.1770                 2.0181
 Frc consts  --      0.3500                 0.6831                 0.4619
 IR Inten    --     13.4485                29.4342               126.3866
  Atom  AN      X      Y      Z        X      Y      Z        X      Y      Z
     1   6    -0.01   0.02  -0.03     0.11   0.04  -0.07    -0.04  -0.08  -0.10
     2   6    -0.00  -0.01   0.02     0.04   0.00  -0.00    -0.02   0.01  -0.02
     3   8     0.03   0.00   0.02    -0.05  -0.05   0.01    -0.01   0.02   0.02
     4   6    -0.02   0.05  -0.05     0.21  -0.03   0.10    -0.06  -0.10   0.12
     5   6    -0.02   0.03  -0.01    -0.02   0.00  -0.00     0.01  -0.01   0.00
     6   1     0.00  -0.01   0.02    -0.08   0.03   0.04     0.05  -0.07   0.03
     7   1    -0.05   0.10   0.02    -0.04   0.04   0.01    -0.05   0.10   0.05
     8   1     0.01  -0.01   0.03    -0.02  -0.07  -0.03     0.04  -0.02   0.05
     9   7    -0.00   0.02  -0.08     0.03   0.03  -0.03    -0.00   0.01  -0.07
    10   1    -0.00   0.03  -0.09    -0.18  -0.07   0.29     0.10  -0.02  -0.13
    11   1     0.00   0.03  -0.07    -0.12  -0.09  -0.33     0.06   0.04   0.07
    12   6    -0.05  -0.12   0.10     0.14  -0.07  -0.04    -0.02   0.07  -0.06
    13   6    -0.00  -0.01   0.02    -0.04  -0.08  -0.11    -0.00   0.04  -0.04
    14   6     0.02   0.07  -0.03    -0.04  -0.04  -0.07    -0.01  -0.02   0.06
    15   6     0.01  -0.09   0.07    -0.15   0.06   0.03     0.05   0.05  -0.04
    16   6     0.03   0.06  -0.06     0.01   0.07   0.08     0.01  -0.05   0.03
    17   6    -0.01  -0.05   0.01     0.02   0.03   0.05     0.01   0.01  -0.06
    18   1     0.03   0.10  -0.08    -0.13  -0.01  -0.04    -0.02  -0.08   0.05
    19   1     0.05   0.23  -0.17     0.12  -0.05  -0.01    -0.05  -0.18   0.19
    20   1     0.00  -0.12   0.09    -0.15   0.06   0.03     0.04   0.01  -0.03
    21   1     0.05   0.25  -0.19     0.08   0.01   0.03    -0.07  -0.18   0.18
    22   1     0.04   0.07  -0.07    -0.14   0.03   0.00    -0.01  -0.11   0.04
    23   6    -0.00  -0.01   0.01    -0.00   0.02   0.03    -0.01   0.04   0.06
    24   1    -0.01  -0.03   0.10    -0.07  -0.17  -0.26     0.02   0.13   0.08
    25   1     0.05  -0.13  -0.07    -0.16   0.16   0.15     0.01   0.17   0.14
    26   1    -0.01   0.01   0.12    -0.17   0.14   0.08     0.06  -0.01  -0.10
    27   1     0.02   0.07   0.78     0.07   0.04   0.41    -0.11  -0.07   0.75
    28   8    -0.00  -0.02  -0.02    -0.04   0.05  -0.01     0.03   0.01  -0.01
    29   6    -0.00  -0.00  -0.00    -0.09  -0.01  -0.01     0.04   0.01   0.00
    30   1    -0.02   0.01  -0.01    -0.00  -0.05   0.00     0.04   0.01  -0.00
    31   1     0.01   0.01  -0.00    -0.13  -0.04  -0.00     0.05   0.01  -0.00
    32   1     0.01   0.01  -0.00    -0.13  -0.05  -0.01     0.05   0.01   0.00
                     25                     26                     27
                      A                      A                      A
 Frequencies --    636.1803               726.7540               730.7087
 Red. masses --      6.0247                 4.6905                 1.6571
 Frc consts  --      1.4366                 1.4596                 0.5213
 IR Inten    --      3.1830                 7.9446                39.7436
  Atom  AN      X      Y      Z        X      Y      Z        X      Y      Z
     1   6    -0.01   0.01   0.02     0.19  -0.09   0.00    -0.03   0.02  -0.01
     2   6    -0.00  -0.01   0.00     0.14  -0.01   0.03    -0.02   0.00   0.01
     3   8     0.02   0.01  -0.00    -0.13  -0.18   0.01     0.02   0.03  -0.01
     4   6    -0.01   0.03  -0.03     0.03  -0.00   0.00     0.00  -0.00  -0.00
     5   6     0.00  -0.00   0.00     0.01   0.00  -0.00    -0.00   0.00   0.00
     6   1     0.00   0.00  -0.01    -0.02   0.03  -0.01    -0.02   0.01   0.00
     7   1     0.02  -0.03  -0.01     0.01  -0.03  -0.01    -0.01  -0.00  -0.00
     8   1    -0.00   0.01  -0.01     0.00  -0.02  -0.01    -0.00  -0.01  -0.00
     9   7    -0.00  -0.01   0.02     0.01   0.01   0.02     0.00   0.00   0.00
    10   1     0.00   0.01  -0.00    -0.03  -0.00   0.07    -0.03   0.01   0.03
    11   1     0.00   0.01   0.03    -0.01  -0.03  -0.03    -0.01  -0.01  -0.03
    12   6    -0.04  -0.08  -0.09    -0.11   0.01   0.02    -0.01  -0.07   0.05
    13   6    -0.27  -0.04  -0.12    -0.01   0.07   0.08     0.02   0.05  -0.05
    14   6    -0.17   0.21   0.21    -0.02   0.05   0.12    -0.02  -0.11   0.07
    15   6     0.04   0.07   0.10     0.12  -0.04  -0.01    -0.00   0.04  -0.03
    16   6     0.30   0.05   0.15    -0.08  -0.08  -0.06    -0.02  -0.10   0.09
    17   6     0.16  -0.19  -0.18    -0.07  -0.05  -0.09     0.02   0.05  -0.03
    18   1    -0.15  -0.11  -0.23     0.10   0.15  -0.10     0.09   0.36  -0.31
    19   1    -0.02   0.23   0.24    -0.14   0.19  -0.04     0.05   0.13  -0.12
    20   1    -0.07  -0.15  -0.23     0.16   0.15  -0.17     0.10   0.46  -0.37
    21   1     0.20   0.16   0.21    -0.16   0.15  -0.09     0.05   0.15  -0.12
    22   1    -0.00  -0.17  -0.24     0.05   0.10  -0.18     0.10   0.40  -0.31
    23   6    -0.01  -0.02  -0.04     0.02  -0.03  -0.03     0.00  -0.00  -0.00
    24   1    -0.02  -0.04  -0.03     0.02  -0.03  -0.05     0.00   0.00  -0.02
    25   1    -0.01  -0.05  -0.06     0.00  -0.03  -0.03    -0.01  -0.01  -0.00
    26   1    -0.02  -0.01  -0.01     0.02  -0.04  -0.04    -0.00  -0.00   0.01
    27   1    -0.00   0.01  -0.24     0.26  -0.06   0.09    -0.03   0.02   0.04
    28   8    -0.00  -0.02   0.00    -0.01   0.28  -0.03     0.00  -0.04   0.00
    29   6     0.00  -0.00   0.00    -0.05   0.02  -0.01     0.01  -0.00   0.00
    30   1    -0.02   0.01  -0.00     0.35  -0.16   0.04    -0.05   0.02  -0.01
    31   1     0.01   0.01   0.00    -0.27  -0.14   0.01     0.04   0.02  -0.00
    32   1     0.01   0.01   0.00    -0.26  -0.15  -0.02     0.04   0.02   0.00
                     28                     29                     30
                      A                      A                      A
 Frequencies --    755.2927               789.6583               808.3312
 Red. masses --      2.0587                 7.2006                 2.1998
 Frc consts  --      0.6920                 2.6454                 0.8469
 IR Inten    --     61.0260                25.2874                 7.7290
  Atom  AN      X      Y      Z        X      Y      Z        X      Y      Z
[...]
 003726,0.00032307,-0.00025576,0.00035143,-0.00012812,-0.00181001,0.000
 22990,-0.00146904,-0.00059130,0.00090727,0.00006341,0.00001087,0.00003
 025,-0.00001991,0.00000241,-0.00013583,-0.00011807,0.00008138,0.000101
 39,0.00037764,0.00003391,0.00011199,-0.00072453,-0.00017448,0.00051569
 ,-0.00000518,-0.00006688,0.00005439,0.00001289,0.00000967,-0.00000664,
 0.00000998,0.00001096,-0.00000172,0.00003500,-0.00001977,0.00005105,-0
 .00143645,-0.00095041,0.00011157,-0.00012210,-0.00015485,-0.00011677,0
 .00002727,0.00000291,-0.00011900,0.00007903,-0.00027881,-0.00055627,0.
 09231978,0.09808974,-0.31894050,0.01453314,-0.00298330,-0.00338916,0.0
 0025018,0.00062941,0.00161639,0.00007151,0.00738622,-0.01272995,0.0005
 7272,-0.00010950,0.00017687,0.00033791,0.00000302,-0.00000073,-0.00004
 449,0.00004328,-0.00013351,-0.00000032,-0.00004301,0.00002378,-0.00001
 708,-0.00075115,-0.00092574,-0.00066552,-0.00007649,-0.00011997,-0.000
 31595,0.00020459,-0.00022552,0.00016443,0.00190678,0.00011526,-0.00001
 045,0.00060531,0.00038310,-0.00084348,-0.00049658,0.00035896,-0.000003
 93,0.00021206,0.00019977,0.00047094,0.00041043,-0.00031624,-0.00022450
 ,-0.00081099,0.00018098,-0.00028184,0.00017975,0.00007726,0.00056296,-
 0.00001825,0.00002662,-0.00004006,0.00001980,-0.00001640,0.00004656,-0
 .00001808,-0.00000813,0.00002029,0.00006867,0.00001145,0.00004342,-0.0
 0142663,-0.00088657,0.00085167,0.00001896,0.00014282,0.00015124,-0.000
 00442,-0.00002610,-0.00018767,0.00000858,-0.00039070,-0.00061816,-0.10
 212611,0.33462430,-0.00110973,0.01957911,-0.00437898,-0.00131223,0.000
 22429,-0.00417012,-0.00044643,-0.00067542,0.00709138,-0.00404117,-0.01
 157684,0.00135518,0.00013318,-0.00020993,-0.00105741,0.00001865,-0.000
 01945,-0.00003119,-0.00024702,0.00044592,-0.00001151,0.00007043,0.0001
 0338,0.00002276,0.00220251,0.00666335,-0.00618408,0.00024450,0.0014655
 1,0.00080826,-0.00014159,0.00070371,-0.00068630,-0.00072979,0.00031071
 ,-0.00049485,0.00105802,0.00059144,0.00033429,-0.00041473,-0.00025172,
 -0.00029354,0.00012936,0.00013235,0.00013092,-0.00006249,-0.00021620,-
 0.00021828,-0.00012771,0.00001472,-0.00012791,0.00102032,-0.00008872,-
 0.00114458,0.00000599,-0.00001585,0.00002011,-0.00004638,-0.00000010,-
 0.00004054,-0.00000718,-0.00000172,-0.00000810,-0.00001658,-0.00002164
 ,-0.00006787,-0.00136654,-0.00252150,0.00031047,0.00013766,0.00014748,
 0.00026402,-0.00007931,0.00028474,-0.00012402,-0.00013748,-0.00063620,
 -0.00094618,0.00509339,-0.01473471,0.01257003,-0.05544434,-0.04876980,
 0.00308890,-0.15834706,-0.06312224,0.00109192,0.02702111,-0.00678838,0
 .00058508,-0.00013989,0.01406191,-0.00408470,-0.00098321,0.00075630,0.
 00121271,0.00000115,-0.00021567,-0.00010928,0.00023537,-0.00068938,0.0
 0011780,-0.00003839,0.00052429,-0.00025462,-0.00105131,-0.00689229,0.0
 0412241,0.00010886,0.00148015,-0.00198488,0.00033876,-0.00048400,0.000
 34498,0.00120945,-0.00211564,-0.00079912,-0.00078468,0.00023398,0.0005
 1394,-0.00000399,-0.00010229,-0.00045824,-0.00048921,0.00018059,0.0000
 4295,-0.00006155,0.00006841,-0.00020688,-0.00099865,0.00060959,0.00044
 775,0.00036783,-0.00055472,-0.00047117,-0.00012803,0.00010983,0.000114
 39,-0.00016324,-0.00001681,0.00002645,-0.00022700,-0.00000220,-0.00005
 546,0.00018986,-0.00010406,0.00004561,-0.00096283,-0.00165449,0.001204
 83,0.00015675,0.00023650,0.00031362,-0.00017972,0.00003058,0.00016124,
 -0.00031795,-0.00150347,-0.00075769,-0.00030528,-0.00114657,0.00040670
 ,0.52480812,-0.02939150,-0.00173651,0.00251394,-0.02592156,-0.18003321
 ,0.00913129,-0.01753528,-0.09642718,0.01089237,0.00695604,0.00908284,-
 0.00325276,-0.00093706,-0.00077372,0.00076382,-0.00041629,-0.00016090,
 0.00008953,-0.00012148,-0.00038051,0.00025420,0.00069782,0.00248659,-0
 .00057635,-0.00091064,-0.00491487,0.00292675,0.00049891,0.00065230,-0.
 00175322,0.00022394,-0.00043964,0.00019727,0.00129869,0.00004142,-0.00
 040645,-0.00066060,0.00019899,0.00038650,-0.00002364,-0.00005520,-0.00
 033370,-0.00032614,0.00014606,0.00001850,-0.00000998,0.00003221,0.0000
 1110,-0.00037788,0.00020392,0.00017961,0.00023817,-0.00048377,-0.00034
 059,-0.00010341,0.00005985,0.00009189,-0.00011115,-0.00002049,0.000022
 29,-0.00011607,-0.00001343,-0.00003094,0.00016205,-0.00002141,0.000068
 55,-0.00100203,-0.00189350,0.00009232,0.00041489,0.00063444,0.00111702
 ,-0.00037866,0.00009417,0.00006328,-0.00034613,-0.00091122,-0.00041821
 ,-0.00050704,-0.00012064,0.00051355,0.05552926,0.36342872,0.00277142,0
 .00017742,0.01385247,-0.00257826,0.00918230,-0.06317620,0.00068966,0.0
 0991497,0.02177194,-0.00107178,-0.00136899,0.00425176,-0.00039772,0.00
 014286,-0.00016856,-0.00003258,0.00001626,0.00005251,0.00008224,0.0000
 9691,-0.00006601,0.00017059,0.00012545,0.00014893,-0.00063342,-0.00032
 274,-0.00007690,0.00011741,0.00003665,-0.00010180,-0.00008312,-0.00011
 884,-0.00000327,-0.00033224,0.00007102,-0.00022580,-0.00004749,-0.0000
 6879,-0.00007792,0.00000695,-0.00004812,0.00005532,0.00002785,-0.00001
 787,-0.00001362,-0.00003668,-0.00002753,-0.00001334,-0.00000723,0.0000
 4562,0.00004014,0.00005453,0.00001978,-0.00007383,-0.00000619,-0.00000
 077,-0.00000343,0.00000667,0.00001079,-0.00001107,0.00000540,0.0000099
 5,0.00000133,-0.00000952,0.00001840,-0.00001376,0.00050555,0.00069271,
 0.00004244,0.00001076,-0.00013768,-0.00022972,-0.00000042,-0.00002174,
 -0.00000112,0.00027886,0.00015943,0.00009809,-0.00000357,-0.00007399,-
 0.00180846,0.02274927,-0.02756377,0.07682261,0.01068937,0.00110412,-0.
 00086098,-0.05565943,-0.03504960,0.00031995,-0.00274907,0.01702066,-0.
 00147517,-0.00260644,-0.00490688,0.00236725,0.00053828,-0.00004958,-0.
 00051730,0.00008754,0.00010313,0.00001282,-0.00003515,0.00028164,-0.00
 010782,-0.00015312,-0.00077158,0.00021364,0.00048184,0.00311208,-0.001
 95120,-0.00023243,-0.00060395,0.00097034,-0.00014394,0.00021162,-0.000
 12818,-0.00070550,0.00026591,0.00020162,0.00030446,-0.00009976,-0.0002
 9103,-0.00000744,0.00008175,0.00020291,0.00018904,-0.00006562,-0.00000
 549,0.00002138,-0.00001854,0.00001988,0.00026382,-0.00015400,-0.000121
 23,-0.00016897,0.00021773,0.00025713,0.00003858,-0.00004657,-0.0000420
 8,0.00007186,0.00000274,-0.00000504,0.00008007,0.00000419,0.00002922,-
 0.00008299,0.00001913,-0.00001548,0.00050508,0.00093888,-0.00033095,-0
 .00016026,-0.00033690,-0.00037721,0.00009534,-0.00004262,-0.00008431,0
 .00018348,0.00061123,0.00026945,0.00019067,0.00027704,-0.00035911,-0.2
 4117959,0.01872029,-0.01461484,0.50557789,-0.00043770,-0.00479581,0.00
 041153,-0.04163340,0.00865508,-0.00401903,-0.00176547,-0.00211064,-0.0
 0050354,-0.00131211,0.00052006,0.00045760,-0.00002739,0.00008653,0.000
 00862,0.00000955,-0.00000732,0.00000099,-0.00000412,-0.00002222,0.0000
 0273,-0.00001562,-0.00001677,-0.00000523,-0.00001948,0.00002352,-0.000
 07269,-0.00001462,0.00003197,-0.00009927,-0.00000443,-0.00001720,0.000
 00077,-0.00017103,-0.00036220,-0.00006287,-0.00002427,-0.00002286,-0.0
 0001262,0.00000219,-0.00000190,0.00000620,-0.00001186,-0.00000559,0.00
 000002,-0.00001410,0.00000894,-0.00003310,-0.00008645,0.00006466,0.000
 05310,0.00000805,0.00000663,-0.00000792,-0.00000195,0.00000541,-0.0000
 0147,-0.00000118,0.00000300,-0.00000080,-0.00001350,0.00000374,-0.0000
 0129,0.00000101,-0.00000889,-0.00000063,0.00005043,0.00009173,0.000084
 84,-0.00001353,-0.00000850,0.00000081,-0.00000504,0.00000765,-0.000000
 63,-0.00002189,-0.00001944,-0.00002026,-0.00022680,0.00025165,-0.00020
 876,0.04242374,-0.09968000,0.00703948,0.02440469,0.62065290,0.00065357
 ,0.00077152,0.00228818,0.00044343,-0.00355607,-0.00165883,0.00034134,0
 .00135063,-0.00476378,0.00046258,0.00006584,0.00215328,0.00002504,0.00
 000659,0.00001435,-0.00001434,0.00000740,-0.00000042,0.00004606,0.0000
 3431,-0.00003469,-0.00001571,-0.00006145,0.00005881,-0.00029522,-0.000
 21259,0.00017104,-0.00001928,-0.00017633,0.00009991,0.00001573,-0.0000
 3358,0.00008620,-0.00018162,0.00016561,-0.00011631,0.00002035,-0.00001
 304,-0.00007659,0.00000755,-0.00001741,0.00003525,0.00002535,-0.000020
 09,-0.00002001,-0.00003241,-0.00001588,0.00000518,0.00004707,0.0000045
 5,0.00001397,0.00001410,0.00002125,0.00001369,0.00000981,-0.00000834,-
 0.00000327,0.00000470,0.00000345,-0.00000399,0.00000220,0.00000174,0.0
 0000180,-0.00001036,0.00000048,-0.00000727,0.00017687,0.00015069,-0.00
 010093,-0.00001338,-0.00008247,0.00000316,-0.00004728,-0.00000246,0.00
 000648,0.00004412,0.00006004,0.00005671,0.00001383,-0.00000205,-0.0009
 8975,-0.01691555,0.00510004,-0.06702949,-0.00986135,-0.00144365,0.5820
 9726,-0.00128918,-0.00187342,0.00006479,-0.00321042,0.00698115,-0.0010
 6399,0.00259168,-0.00080214,0.00022127,-0.00020823,0.00081097,-0.00016
 695,-0.00006208,0.00003612,0.00006394,-0.00000203,-0.00001221,-0.00000
 564,0.00001258,-0.00003582,0.00000725,0.00001298,0.00004881,-0.0000200
 1,-0.00004072,-0.00034054,0.00020500,0.00002763,0.00008732,-0.00011559
 ,0.00002079,-0.00002458,0.00001229,0.00004761,-0.00016106,-0.00005183,
 -0.00005147,0.00001227,0.00002765,0.00000459,-0.00000450,-0.00002641,-
 0.00003222,0.00001007,0.00000074,-0.00000605,0.00000792,-0.00001527,-0
 .00006646,0.00004173,0.00003221,0.00002581,-0.00003298,-0.00002764,-0.
 00000942,0.00000618,0.00000836,-0.00000991,-0.00000136,0.00000197,-0.0
 0001455,0.,-0.00000291,0.00001144,-0.00000768,0.00000403,-0.00002877,-
 0.00006135,0.00007310,0.00001918,0.00002589,0.00002108,-0.00000601,0.0
 0000046,0.00000764,-0.00002004,-0.00007960,-0.00003647,0.00002090,0.00
 002466,-0.00000494,-0.03246114,-0.03690829,0.00159574,-0.08184836,-0.0
 8911090,0.00714442,0.10717415,-0.00082652,0.00020076,0.00000783,0.0038
 8183,-0.00040187,0.00016943,-0.00276605,0.00022734,-0.00011701,0.00028
 748,0.00042125,-0.00014870,-0.00002944,-0.00000655,0.00003060,-0.00001
 652,-0.00000796,-0.00000160,0.00000415,-0.00001653,0.00001108,0.000028
 47,0.00008847,-0.00001643,-0.00002488,-0.00022797,0.00015041,0.0000494
 7,0.00003433,-0.00008327,0.00001946,-0.00001419,0.00000215,0.00007589,
 -0.00001766,-0.00002873,-0.00003818,0.00000830,0.00002278,0.00000052,-
 0.00000570,-0.00001812,-0.00001964,0.00000785,0.00000015,-0.00000157,0
 .00000307,-0.00000052,-0.00002942,0.00001610,0.00001456,0.00001869,-0.
 00002423,-0.00002223,-0.00000542,0.00000421,0.00000581,-0.00000786,-0.
 00000056,0.00000129,-0.00000832,-0.00000107,-0.00000259,0.00001115,-0.
 00000111,0.00000476,-0.00003815,-0.00007578,0.00000863,0.00002303,0.00
 004687,0.00005131,-0.00001501,0.00000295,0.00000269,-0.00002003,-0.000
 04773,-0.00001631,-0.00005437,0.00001360,0.00001511,0.00301499,0.00851
 900,-0.00055325,-0.09987831,-0.28860053,0.01759851,0.10617739,0.300532
 12,-0.00004497,-0.00013666,0.00012866,-0.00058774,0.00051961,0.0002377
 3,0.00032457,-0.00005238,0.00078043,-0.00004173,0.00002581,0.00006322,
 -0.00000450,0.00000299,0.00000378,0.00000414,-0.00000161,0.00000051,-0
 .00000447,-0.00000479,0.00000307,-0.00000405,-0.00000371,-0.00000880,0
 .00001047,-0.00000850,-0.00000438,-0.00001549,0.00000738,-0.00000883,-
 0.00000031,0.00000229,-0.00000092,-0.00001899,-0.00000443,-0.00000966,
 0.00000301,-0.00000031,-0.00000077,-0.00000016,-0.00000055,0.00000109,
 0.00000025,-0.00000116,-0.00000145,-0.00000289,-0.00000006,-0.00000175
 ,-0.00000197,0.00000071,0.00000284,0.00000286,0.00000342,-0.00000235,0
 .00000128,-0.00000031,-0.00000008,-0.00000019,0.00000014,0.,-0.0000009
 9,-0.00000027,-0.00000006,0.00000007,-0.00000105,-0.00000094,0.0000103
 7,-0.00000186,0.00001284,0.00000703,-0.00000344,-0.00000978,0.00000422
 ,-0.00000009,0.00000045,-0.00000270,-0.00000009,-0.00000156,0.00000935
 ,-0.00000066,-0.00001953,-0.00278525,-0.00353352,0.00097253,0.00841530
 ,0.01844012,-0.05348864,-0.00666849,-0.01914292,0.04693364,-0.00195982
 ,-0.00104509,-0.00032011,0.00415809,0.00971623,0.00041168,0.00175835,-
 0.00324943,-0.00052322,0.00028243,0.00084463,-0.00070561,-0.00007404,0
 .00004024,0.00008531,0.00000035,-0.00001653,-0.00000727,0.00001737,-0.
 00004789,0.00000493,0.00001230,0.00003233,-0.00001664,-0.00002370,-0.0
 0047784,0.00027593,0.00001311,0.00015052,-0.00011162,0.00002005,-0.000
 02301,0.00001807,0.00014847,-0.00007390,-0.00003706,-0.00003559,0.0000
 2195,0.00006391,-0.00000020,-0.00000918,-0.00004278,-0.00003272,0.0000
 1432,0.00000453,0.00000081,0.00000391,-0.00001086,-0.00005042,0.000021
 50,0.00001935,0.00002279,-0.00003729,-0.00004086,-0.00000567,0.0000064
 0,0.00000670,-0.00001108,-0.00000259,0.00000180,-0.00001314,-0.0000013
 5,-0.00000384,0.00000851,-0.00000800,0.00000051,-0.00011840,-0.0001866
 7,0.00008038,-0.00000092,0.00002531,0.00004057,-0.00002074,0.00000480,
 0.00000947,-0.00001759,-0.00011482,-0.00007305,0.00018501,-0.00004186,
 0.00032871,-0.03289659,0.01861919,0.02493590,-0.07493739,0.04769502,0.
 05994131,0.00556387,-0.00622250,-0.00958760,0.09389733,0.00048828,0.00
 008536,-0.00024038,-0.00247527,-0.00147502,0.00096325,-0.00076952,0.00
 036817,0.00005839,-0.00019728,-0.00025860,0.00008704,0.00004767,-0.000
 00256,-0.00001501,0.00001955,0.00000615,-0.00000481,-0.00000294,0.0000
 0842,-0.00000680,-0.00003493,-0.00010716,0.00001433,0.00010664,0.00016
 477,-0.00009982,-0.00005338,-0.00002310,0.00008937,-0.00000829,0.00002
 554,-0.00001183,-0.00003751,0.00003833,0.00002523,0.00001946,-0.000003
 68,-0.00002178,0.00000158,0.00000681,0.00001275,0.00001258,-0.00000433
 ,0.00000072,0.00000480,-0.00000316,0.00000542,0.00002253,-0.00001953,-
 0.00001331,-0.00001004,0.00001360,0.00002094,0.00000191,-0.00000285,-0
 .00000320,0.00000580,-0.00000009,-0.00000041,0.00000780,0.00000080,0.0
 0000200,-0.00000643,0.00000445,-0.00000276,0.00002452,0.00005109,-0.00
 000934,-0.00002249,-0.00001258,-0.00004394,0.00002956,-0.00000288,-0.0
 0000267,0.00000071,0.00003890,0.00002078,0.00004375,0.00001966,-0.0001
 1237,0.00813997,0.00159978,0.00051925,0.05193899,-0.14090124,-0.117307
 11,0.00916070,-0.01253544,-0.02089129,-0.06171491,0.14517749,-0.000068
 95,0.00049552,-0.00036065,-0.00026564,-0.00386279,0.00112101,-0.002650
 54,0.00099333,0.00057127,0.00000446,-0.00007177,-0.00005489,0.00002919
 ,-0.00003081,-0.00001055,-0.00000348,0.00000188,0.00000269,-0.00001294
 ,-0.00000175,0.00000799,0.00000723,0.00001747,-0.00001590,0.00006886,0
 .00006729,-0.00002645,-0.00002830,-0.00004146,-0.00000701,-0.00000169,
 0.00001184,-0.00001482,0.00001025,0.00000822,0.00000976,-0.00001339,-0
 .00000383,-0.00000748,0.00000418,0.00000458,0.00000437,-0.00000137,0.0
 0000052,-0.00000022,0.00000243,0.00000226,0.00000423,0.00000150,-0.000
 00280,-0.00000355,-0.00000212,-0.00000016,0.00000331,-0.00000296,0.000
 00046,0.00000028,0.00000114,-0.00000031,0.00000058,0.00000174,-0.00000
 010,0.00000102,0.00000211,0.00000164,0.00000284,0.00000417,-0.00000487
 ,-0.00001990,0.00000397,0.00001619,0.00001648,-0.00000203,0.00000205,-
 0.00000252,-0.00000978,0.00000988,0.00000703,-0.00005287,0.00004251,-0
 .00003934,0.00265994,0.00574792,0.00992821,0.06470597,-0.11599161,-0.1
 9878864,-0.00197525,0.00372450,0.00358094,-0.07078007,0.12595980,0.202
 96157,-0.00212136,-0.00090419,0.00075471,0.00446851,0.00892418,-0.0021
 0665,0.00042821,-0.00298306,0.00072954,0.00047176,0.00107750,-0.000085
 61,-0.00008512,0.00003898,0.00010654,0.00000268,-0.00001446,-0.0000030
 3,0.00001737,-0.00005968,0.00000824,0.00000539,0.00006175,-0.00003421,
 -0.00016054,-0.00069584,0.00045445,-0.00003892,0.00008120,-0.00018220,
 0.00001573,-0.00004876,0.00004752,0.00010323,-0.00003824,-0.00006364,-
 0.00006601,0.00000445,0.00003563,0.00000519,-0.00001234,-0.00002772,-0
 .00003003,0.00000939,-0.00000083,-0.00000682,0.00000125,-0.00000482,-0
 .00004410,0.00002701,0.00003007,0.00003155,-0.00003475,-0.00004542,-0.
 00000800,0.00000777,0.00000620,-0.00001018,-0.00000056,0.00000070,-0.0
 0001255,0.00000060,-0.00000391,0.00001218,-0.00000252,0.00000081,-0.00
 002091,-0.00010968,0.00007103,0.00000904,-0.00000456,0.00000387,-0.000
 01095,0.00000051,0.00002458,-0.00000945,-0.00010200,-0.00004106,0.0001
 5827,-0.00003537,-0.00019904,-0.02727363,0.01274559,-0.03415372,-0.058
 64866,0.02034216,-0.04203290,0.00383385,-0.00359036,0.01097955,0.00410
 917,-0.00474381,0.00836423,0.07487512,0.00049573,0.00005558,0.00010972
 ,-0.00225187,-0.00057539,-0.00095872,0.00015556,-0.00021739,0.00009456
 ,-0.00011713,-0.00023568,0.00005492,0.00001382,0.00002100,-0.00002212,
 0.00001295,0.00000693,0.00000038,0.00000734,0.00001963,-0.00001340,-0.
 00002405,-0.00007072,0.00001801,-0.00000958,0.00014394,-0.00007716,-0.
 00001719,-0.00002243,0.00008803,-0.00001068,0.00000672,0.00000579,-0.0
 0004639,0.00003464,0.00000917,0.00003867,0.00000165,-0.00001122,-0.000
 00703,0.00000508,0.00000828,0.00001568,-0.00000248,0.00000191,0.000002
 89,-0.00000460,-0.00000153,0.00002072,-0.00001608,-0.00001573,-0.00001
 159,0.00001412,0.00001843,0.00000589,-0.00000459,-0.00000299,0.0000043
 3,-0.00000049,-0.00000022,0.00000558,-0.00000014,0.00000149,-0.0000084
 1,-0.00000076,-0.00000308,0.00004578,0.00006777,-0.00000776,-0.0000199
 3,-0.00006293,-0.00006323,0.00000578,-0.00000845,0.00000257,0.00003564
 ,0.00003045,0.00001605,0.00002834,0.00000739,0.00009576,0.00676190,0.0
 0088591,0.00204484,0.02270809,-0.09383238,0.09760989,0.00602479,-0.008
 14136,0.02478718,-0.00392347,0.00774291,-0.01709559,-0.02994216,0.0941
 5215,-0.00065098,-0.00081261,-0.00024318,0.00150434,0.00564557,0.00035
 238,0.00220859,-0.00151863,0.00092812,0.00009691,0.00043971,-0.0002389
 7,-0.00003123,0.00002842,0.00005221,0.00001239,-0.00000631,-0.00000550
 ,-0.00000121,-0.00003367,0.00001154,-0.00002038,0.00000032,-0.00002416
 ,-0.00000994,-0.00024597,0.00016444,-0.00005081,0.00003824,-0.00006572
 ,0.00000982,-0.00001038,0.00001148,0.00004156,-0.00004468,0.00000308,-
 0.00002241,0.00000241,0.00001479,0.00000249,-0.00000548,-0.00001010,-0
 .00001222,0.00000307,0.00000094,-0.00000005,0.00000124,0.00000018,-0.0
 0001814,0.00000923,0.00001040,0.00001129,-0.00001065,-0.00001739,-0.00
 000333,0.00000487,0.00000148,-0.00000391,0.00000066,-0.00000017,-0.000
 00430,0.00000087,-0.00000237,0.00000626,0.00000162,-0.00000052,-0.0000
 3380,-0.00005953,0.00006491,0.00000512,0.00002242,-0.00001797,0.000027
 46,0.00000293,0.00001502,-0.00002795,-0.00004877,-0.00001970,0.0000802
 5,-0.00005461,-0.00006489,-0.01036761,-0.00197224,0.00505599,-0.046836
 71,0.09597854,-0.26002265,0.00068991,-0.00166995,0.00083778,-0.0039684
 6,0.01100758,-0.01887167,0.05736708,-0.10669424,0.27208021\\0.00001213
 ,-0.00003323,-0.00001519,0.00000452,0.00001739,-0.00000670,-0.00000893
 ,0.00000324,0.00000516,-0.00000418,0.00000330,0.00000751,0.00001285,0.
 00000008,-0.00001099,-0.00001814,-0.00000296,-0.00001133,0.00000542,0.
 00001385,0.00000288,-0.00000574,0.00000687,0.00001385,0.00002825,0.000
 02031,0.00001515,-0.00000060,-0.00000042,0.00001306,-0.00002076,-0.000
 01469,0.00000578,0.00000759,0.00001979,0.00003494,0.00003856,-0.000021
 07,-0.00001200,-0.00003961,-0.00000100,-0.00000690,0.00001492,0.000010
 57,0.00000999,0.00003042,-0.00002421,-0.00001178,-0.00003681,0.0000145
 4,0.00000603,-0.00001370,0.00000796,-0.00001524,0.00000028,-0.00000875
 ,-0.00000064,-0.00000763,-0.00000253,-0.00000866,-0.00000364,-0.000004
 12,-0.00000429,0.00001820,-0.00002384,-0.00002066,0.00001104,0.0000046
 3,-0.00000146,-0.00001084,0.00001100,-0.00000276,0.00001324,-0.0000059
 6,0.00000159,-0.00001751,-0.00000992,0.00000539,-0.00000401,-0.0000057
 1,-0.00000327,0.00000352,0.00001212,0.00000585,-0.00001140,0.00002264,
 -0.00002035,-0.00000606,-0.00000931,0.00000593,0.00000215,-0.00000321,
 0.00000261,0.00000648,0.00000266,0.00001650\\\@
 The archive entry for this job was punched.


 THOSE WHO TRY TO PASS CHEMISTRY OFF AS A NEW SCIENCE
 SHOW HOW LITTLE KNOWLEDGE THEY HAVE OF THE CHARACTER
 AND LITERATURE OF THE ANCIENTS.
   -- NICOLAS LEFEVRE
 "COURS DE CHYMIE" J.-N.LELOUP, PARIS, 1751
 Job cpu time:       0 days  0 hours 49 minutes 25.4 seconds.
 Elapsed time:       0 days  0 hours  4 minutes  9.5 seconds.
 File lengths (MBytes):  RWF=    401 Int=      0 D2E=      0 Chk=     14 Scr=      1
 Normal termination of Gaussian 16 at Sat Dec 30 21:07:16 2023.
