Unloading slurm/anatra/current
  ERROR: No such file or directory on
    '/cm/local/modulefiles/slurm/anatra/current'
environment: line 0: unalias: gv: not found
environment: line 0: unalias: sl: not found
 Entering Gaussian System, Link 0=g16
 Initial command:
 /apps/gaussian/g16/C.01/g16/l1.exe "/local/jobs/1157664/Gau-2008596.inp" -scrdir="/local/jobs/1157664/"
 Entering Link 1 = /apps/gaussian/g16/C.01/g16/l1.exe PID=   2008599.
  
 Copyright (c) 1988-2019, Gaussian, Inc.  All Rights Reserved.
  
 This is part of the Gaussian(R) 16 program.  It is based on
 the Gaussian(R) 09 system (copyright 2009, Gaussian, Inc.),
 the Gaussian(R) 03 system (copyright 2003, Gaussian, Inc.),
 the Gaussian(R) 98 system (copyright 1998, Gaussian, Inc.),
 the Gaussian(R) 94 system (copyright 1995, Gaussian, Inc.),
 the Gaussian 92(TM) system (copyright 1992, Gaussian, Inc.),
 the Gaussian 90(TM) system (copyright 1990, Gaussian, Inc.),
 the Gaussian 88(TM) system (copyright 1988, Gaussian, Inc.),
 the Gaussian 86(TM) system (copyright 1986, Carnegie Mellon
 University), and the Gaussian 82(TM) system (copyright 1983,
 Carnegie Mellon University). Gaussian is a federally registered
 trademark of Gaussian, Inc.
  
 This software contains proprietary and confidential information,
 including trade secrets, belonging to Gaussian, Inc.
  
 This software is provided under written license and may be
 used, copied, transmitted, or stored only in accord with that
 written license.
  
 The following legend is applicable only to US Government
 contracts under FAR:
  
                    RESTRICTED RIGHTS LEGEND
  
 Use, reproduction and disclosure by the US Government is
 subject to restrictions as set forth in subparagraphs (a)
 and (c) of the Commercial Computer Software - Restricted
 Rights clause in FAR 52.227-19.
  
 Gaussian, Inc.
 340 Quinnipiac St., Bldg. 40, Wallingford CT 06492
  
  
 ---------------------------------------------------------------
 Warning -- This program may not be used in any manner that
 competes with the business of Gaussian, Inc. or will provide
 assistance to any competitor of Gaussian, Inc.  The licensee
 of this program is prohibited from giving any competitor of
 Gaussian, Inc. access to this program.  By using this program,
 the user acknowledges that Gaussian, Inc. is engaged in the
 business of creating and licensing software in the field of
 computational chemistry and represents and warrants to the
 licensee that it is not a competitor of Gaussian, Inc. and that
 it will not use this program in any manner prohibited above.
 ---------------------------------------------------------------
  

 Cite this work as:
 Gaussian 16, Revision C.01,
 M. J. Frisch, G. W. Trucks, H. B. Schlegel, G. E. Scuseria, 
 M. A. Robb, J. R. Cheeseman, G. Scalmani, V. Barone, 
 G. A. Petersson, H. Nakatsuji, X. Li, M. Caricato, A. V. Marenich, 
 J. Bloino, B. G. Janesko, R. Gomperts, B. Mennucci, H. P. Hratchian, 
 J. V. Ortiz, A. F. Izmaylov, J. L. Sonnenberg, D. Williams-Young, 
 F. Ding, F. Lipparini, F. Egidi, J. Goings, B. Peng, A. Petrone, 
 T. Henderson, D. Ranasinghe, V. G. Zakrzewski, J. Gao, N. Rega, 
 G. Zheng, W. Liang, M. Hada, M. Ehara, K. Toyota, R. Fukuda, 
 J. Hasegawa, M. Ishida, T. Nakajima, Y. Honda, O. Kitao, H. Nakai, 
 T. Vreven, K. Throssell, J. A. Montgomery, Jr., J. E. Peralta, 
 F. Ogliaro, M. J. Bearpark, J. J. Heyd, E. N. Brothers, K. N. Kudin, 
 V. N. Staroverov, T. A. Keith, R. Kobayashi, J. Normand, 
 K. Raghavachari, A. P. Rendell, J. C. Burant, S. S. Iyengar, 
 J. Tomasi, M. Cossi, J. M. Millam, M. Klene, C. Adamo, R. Cammi, 
 J. W. Ochterski, R. L. Martin, K. Morokuma, O. Farkas, 
 J. B. Foresman, and D. J. Fox, Gaussian, Inc., Wallingford CT, 2019.
 
 ******************************************
 Gaussian 16:  ES64L-G16RevC.01  3-Jul-2019
                16-Jan-2024 
 ******************************************
 %nprocshared=12
 Will use up to   12 processors via shared memory.
 %mem=48GB
 ----------------------------------------------------------------------
 # external="~/scripts/MiMe -H 'hf 6-31g(d)' -EF 'wb97xd def2svp' -c 12
  -m 48GB" opt=(calcall,ts,noeigen,maxcycles=50,maxstep=10,nomicro)
 ----------------------------------------------------------------------
 1/5=1,6=50,8=10,10=4,11=1,18=20,26=1,38=1/1,3;
 2/9=110,12=2,17=6,18=5,40=1/2;
 3/11=9,25=1,30=1,41=9900000,43=2,71=2,140=1/1;
 4/20=17,22=2,24=3,113=1,114=1/2;
 6/7=2,8=2,9=2,10=2,18=1/1;
 7/25=1,44=-1/16;
 1/5=1,6=50,8=10,10=4,11=1,18=20,26=1/3(3);
 2/9=110/2;
 7/8=1,9=1,25=1,44=-1/16;
 99//99;
 2/9=110/2;
 3/11=9,25=1,30=1,41=9900000,43=2,71=2,140=1/1;
 4/16=2,20=17,22=2,24=3,113=1,114=1/2;
 7/25=1,44=-1/16;
 1/5=1,6=50,8=10,10=4,11=1,18=20,26=1/3(-4);
 2/9=110/2;
 6/7=2,8=2,9=2,10=2,18=1/1;
 7/8=1,9=1,25=1,44=-1/16;
 99//99;
 -----
 *****
 -----
 Symbolic Z-matrix:
 Charge =  0 Multiplicity = 1
 C                     0.7952   -0.3887   -0.8761 
 C                    -1.5119   -0.557    -0.2726 
 C                     0.2953    1.9111   -0.4892 
 C                    -1.9384    0.8105   -0.17 
 N                     1.1554    0.8132   -0.1629 
 H                    -2.4403    1.2646   -1.0159 
 H                    -0.0681    2.0507   -1.5043 
 H                    -1.7658   -1.191    -1.1121 
 H                     0.1873    2.7498    0.1944 
 H                     0.4382   -0.2881   -1.9022 
 H                    -2.0602    1.2339    0.8204 
 F                    -1.4481   -1.2825    0.863 
 C                     1.3984   -1.7207   -0.5386 
 H                     1.0027   -2.487    -1.2129 
 H                     2.4852   -1.692    -0.6607 
 H                     1.1594   -2.0217    0.4852 
 C                     1.4768    0.6754    1.2476 
 H                     1.7665    1.6392    1.6839 
 H                     0.6339    0.2847    1.8294 
 H                     2.335     0.0097    1.3941 
 
 Add virtual bond connecting atoms C2         and C1         Dist= 4.52D+00.
 Add virtual bond connecting atoms C4         and C3         Dist= 4.74D+00.
 Add virtual bond connecting atoms H6         and H7         Dist= 4.81D+00.
 Add virtual bond connecting atoms H8         and H10        Dist= 4.74D+00.

 GradGradGradGradGradGradGradGradGradGradGradGradGradGradGradGradGradGrad
 Berny optimization.
 Initialization pass.
                           ----------------------------
                           !    Initial Parameters    !
                           ! (Angstroms and Degrees)  !
 --------------------------                            --------------------------
 ! Name  Definition              Value          Derivative Info.                !
 --------------------------------------------------------------------------------
 ! R1    R(1,2)                  2.3907         calculate D2E/DX2 analytically  !
 ! R2    R(1,5)                  1.4432         calculate D2E/DX2 analytically  !
 ! R3    R(1,10)                 1.0911         calculate D2E/DX2 analytically  !
 ! R4    R(1,13)                 1.5007         calculate D2E/DX2 analytically  !
 ! R5    R(2,4)                  1.4361         calculate D2E/DX2 analytically  !
 ! R6    R(2,8)                  1.0822         calculate D2E/DX2 analytically  !
 ! R7    R(2,12)                 1.3491         calculate D2E/DX2 analytically  !
 ! R8    R(3,4)                  2.5105         calculate D2E/DX2 analytically  !
 ! R9    R(3,5)                  1.4324         calculate D2E/DX2 analytically  !
 ! R10   R(3,7)                  1.0872         calculate D2E/DX2 analytically  !
 ! R11   R(3,9)                  1.0874         calculate D2E/DX2 analytically  !
 ! R12   R(4,6)                  1.0834         calculate D2E/DX2 analytically  !
 ! R13   R(4,11)                 1.084          calculate D2E/DX2 analytically  !
 ! R14   R(5,17)                 1.4532         calculate D2E/DX2 analytically  !
 ! R15   R(6,7)                  2.5463         calculate D2E/DX2 analytically  !
 ! R16   R(8,10)                 2.5094         calculate D2E/DX2 analytically  !
 ! R17   R(13,14)                1.0947         calculate D2E/DX2 analytically  !
 ! R18   R(13,15)                1.094          calculate D2E/DX2 analytically  !
 ! R19   R(13,16)                1.0936         calculate D2E/DX2 analytically  !
 ! R20   R(17,18)                1.0969         calculate D2E/DX2 analytically  !
 ! R21   R(17,19)                1.0962         calculate D2E/DX2 analytically  !
 ! R22   R(17,20)                1.096          calculate D2E/DX2 analytically  !
 ! A1    A(2,1,5)              100.0631         calculate D2E/DX2 analytically  !
 ! A2    A(2,1,10)              85.8789         calculate D2E/DX2 analytically  !
 ! A3    A(2,1,13)             105.5837         calculate D2E/DX2 analytically  !
 ! A4    A(5,1,10)             118.0091         calculate D2E/DX2 analytically  !
 ! A5    A(5,1,13)             121.8517         calculate D2E/DX2 analytically  !
 ! A6    A(10,1,13)            115.1422         calculate D2E/DX2 analytically  !
 ! A7    A(1,2,4)              103.7448         calculate D2E/DX2 analytically  !
 ! A8    A(1,2,8)               94.1191         calculate D2E/DX2 analytically  !
 ! A9    A(1,2,12)             101.8128         calculate D2E/DX2 analytically  !
 ! A10   A(4,2,8)              122.9279         calculate D2E/DX2 analytically  !
 ! A11   A(4,2,12)             117.7738         calculate D2E/DX2 analytically  !
 ! A12   A(8,2,12)             110.4275         calculate D2E/DX2 analytically  !
 ! A13   A(4,3,5)               99.7457         calculate D2E/DX2 analytically  !
 ! A14   A(4,3,7)               82.9697         calculate D2E/DX2 analytically  !
 ! A15   A(4,3,9)               99.7783         calculate D2E/DX2 analytically  !
 ! A16   A(5,3,7)              120.7865         calculate D2E/DX2 analytically  !
 ! A17   A(5,3,9)              120.5063         calculate D2E/DX2 analytically  !
 ! A18   A(7,3,9)              117.0486         calculate D2E/DX2 analytically  !
 ! A19   A(2,4,3)               98.2869         calculate D2E/DX2 analytically  !
 ! A20   A(2,4,6)              118.7462         calculate D2E/DX2 analytically  !
 ! A21   A(2,4,11)             118.0718         calculate D2E/DX2 analytically  !
 ! A22   A(3,4,6)               97.4214         calculate D2E/DX2 analytically  !
 ! A23   A(3,4,11)              92.5739         calculate D2E/DX2 analytically  !
 ! A24   A(6,4,11)             119.8434         calculate D2E/DX2 analytically  !
 ! A25   A(1,5,3)              112.079          calculate D2E/DX2 analytically  !
 ! A26   A(1,5,17)             117.1211         calculate D2E/DX2 analytically  !
 ! A27   A(3,5,17)             115.2522         calculate D2E/DX2 analytically  !
 ! A28   A(4,6,7)               81.232          calculate D2E/DX2 analytically  !
 ! A29   A(3,7,6)               95.3172         calculate D2E/DX2 analytically  !
 ! A30   A(2,8,10)              80.0607         calculate D2E/DX2 analytically  !
 ! A31   A(1,10,8)              87.5985         calculate D2E/DX2 analytically  !
 ! A32   A(1,13,14)            109.7242         calculate D2E/DX2 analytically  !
 ! A33   A(1,13,15)            110.5436         calculate D2E/DX2 analytically  !
 ! A34   A(1,13,16)            111.5317         calculate D2E/DX2 analytically  !
 ! A35   A(14,13,15)           107.9802         calculate D2E/DX2 analytically  !
 ! A36   A(14,13,16)           107.7571         calculate D2E/DX2 analytically  !
 ! A37   A(15,13,16)           109.197          calculate D2E/DX2 analytically  !
 ! A38   A(5,17,18)            111.1716         calculate D2E/DX2 analytically  !
 ! A39   A(5,17,19)            112.2648         calculate D2E/DX2 analytically  !
 ! A40   A(5,17,20)            111.1327         calculate D2E/DX2 analytically  !
 ! A41   A(18,17,19)           107.7668         calculate D2E/DX2 analytically  !
 ! A42   A(18,17,20)           105.8861         calculate D2E/DX2 analytically  !
 ! A43   A(19,17,20)           108.3418         calculate D2E/DX2 analytically  !
 ! D1    D(5,1,2,4)             33.7023         calculate D2E/DX2 analytically  !
 ! D2    D(5,1,2,8)            159.0596         calculate D2E/DX2 analytically  !
 ! D3    D(5,1,2,12)           -89.0669         calculate D2E/DX2 analytically  !
 ! D4    D(10,1,2,4)           -84.0338         calculate D2E/DX2 analytically  !
 ! D5    D(10,1,2,8)            41.3235         calculate D2E/DX2 analytically  !
 ! D6    D(10,1,2,12)          153.1971         calculate D2E/DX2 analytically  !
 ! D7    D(13,1,2,4)           160.9971         calculate D2E/DX2 analytically  !
 ! D8    D(13,1,2,8)           -73.6456         calculate D2E/DX2 analytically  !
 ! D9    D(13,1,2,12)           38.2279         calculate D2E/DX2 analytically  !
 ! D10   D(2,1,5,3)            -54.2014         calculate D2E/DX2 analytically  !
 ! D11   D(2,1,5,17)            82.2671         calculate D2E/DX2 analytically  !
 ! D12   D(10,1,5,3)            36.4703         calculate D2E/DX2 analytically  !
 ! D13   D(10,1,5,17)          172.9388         calculate D2E/DX2 analytically  !
 ! D14   D(13,1,5,3)          -169.762          calculate D2E/DX2 analytically  !
 ! D15   D(13,1,5,17)          -33.2935         calculate D2E/DX2 analytically  !
 ! D16   D(2,1,10,8)           -16.5159         calculate D2E/DX2 analytically  !
 ! D17   D(5,1,10,8)          -115.7287         calculate D2E/DX2 analytically  !
 ! D18   D(13,1,10,8)           88.7748         calculate D2E/DX2 analytically  !
 ! D19   D(2,1,13,14)           68.4348         calculate D2E/DX2 analytically  !
 ! D20   D(2,1,13,15)         -172.5816         calculate D2E/DX2 analytically  !
 ! D21   D(2,1,13,16)          -50.8897         calculate D2E/DX2 analytically  !
 ! D22   D(5,1,13,14)         -178.8076         calculate D2E/DX2 analytically  !
 ! D23   D(5,1,13,15)          -59.824          calculate D2E/DX2 analytically  !
 ! D24   D(5,1,13,16)           61.8678         calculate D2E/DX2 analytically  !
 ! D25   D(10,1,13,14)         -24.344          calculate D2E/DX2 analytically  !
 ! D26   D(10,1,13,15)          94.6396         calculate D2E/DX2 analytically  !
 ! D27   D(10,1,13,16)        -143.6685         calculate D2E/DX2 analytically  !
 ! D28   D(1,2,4,3)             -6.061          calculate D2E/DX2 analytically  !
 ! D29   D(1,2,4,6)             97.1637         calculate D2E/DX2 analytically  !
 ! D30   D(1,2,4,11)          -103.4791         calculate D2E/DX2 analytically  !
 ! D31   D(8,2,4,3)           -110.3321         calculate D2E/DX2 analytically  !
 ! D32   D(8,2,4,6)             -7.1074         calculate D2E/DX2 analytically  !
 ! D33   D(8,2,4,11)           152.2498         calculate D2E/DX2 analytically  !
 ! D34   D(12,2,4,3)           105.4705         calculate D2E/DX2 analytically  !
 ! D35   D(12,2,4,6)          -151.3049         calculate D2E/DX2 analytically  !
 ! D36   D(12,2,4,11)            8.0523         calculate D2E/DX2 analytically  !
 ! D37   D(1,2,8,10)           -16.9011         calculate D2E/DX2 analytically  !
 ! D38   D(4,2,8,10)            92.3946         calculate D2E/DX2 analytically  !
 ! D39   D(12,2,8,10)         -121.1326         calculate D2E/DX2 analytically  !
 ! D40   D(5,3,4,2)            -20.024          calculate D2E/DX2 analytically  !
 ! D41   D(5,3,4,6)           -140.6267         calculate D2E/DX2 analytically  !
 ! D42   D(5,3,4,11)            98.8294         calculate D2E/DX2 analytically  !
 ! D43   D(7,3,4,2)            100.1142         calculate D2E/DX2 analytically  !
 ! D44   D(7,3,4,6)            -20.4885         calculate D2E/DX2 analytically  !
 ! D45   D(7,3,4,11)          -141.0324         calculate D2E/DX2 analytically  !
 ! D46   D(9,3,4,2)           -143.5461         calculate D2E/DX2 analytically  !
 ! D47   D(9,3,4,6)             95.8512         calculate D2E/DX2 analytically  !
 ! D48   D(9,3,4,11)           -24.6927         calculate D2E/DX2 analytically  !
 ! D49   D(4,3,5,1)             49.9272         calculate D2E/DX2 analytically  !
 ! D50   D(4,3,5,17)           -87.4015         calculate D2E/DX2 analytically  !
 ! D51   D(7,3,5,1)            -37.6527         calculate D2E/DX2 analytically  !
 ! D52   D(7,3,5,17)          -174.9813         calculate D2E/DX2 analytically  !
 ! D53   D(9,3,5,1)            157.4572         calculate D2E/DX2 analytically  !
 ! D54   D(9,3,5,17)            20.1285         calculate D2E/DX2 analytically  !
 ! D55   D(4,3,7,6)              8.5289         calculate D2E/DX2 analytically  !
 ! D56   D(5,3,7,6)            105.7132         calculate D2E/DX2 analytically  !
 ! D57   D(9,3,7,6)            -88.8927         calculate D2E/DX2 analytically  !
 ! D58   D(2,4,6,7)            -95.0917         calculate D2E/DX2 analytically  !
 ! D59   D(3,4,6,7)              8.6313         calculate D2E/DX2 analytically  !
 ! D60   D(11,4,6,7)           105.9241         calculate D2E/DX2 analytically  !
 ! D61   D(1,5,17,18)          178.1796         calculate D2E/DX2 analytically  !
 ! D62   D(1,5,17,19)          -61.0126         calculate D2E/DX2 analytically  !
 ! D63   D(1,5,17,20)           60.5078         calculate D2E/DX2 analytically  !
 ! D64   D(3,5,17,18)          -46.7049         calculate D2E/DX2 analytically  !
 ! D65   D(3,5,17,19)           74.1029         calculate D2E/DX2 analytically  !
 ! D66   D(3,5,17,20)         -164.3767         calculate D2E/DX2 analytically  !
 ! D67   D(4,6,7,3)            -20.1898         calculate D2E/DX2 analytically  !
 ! D68   D(2,8,10,1)            39.4876         calculate D2E/DX2 analytically  !
 --------------------------------------------------------------------------------
 Trust Radius=1.00D-01 FncErr=1.00D-07 GrdErr=1.00D-07 EigMax=2.50D+02 EigMin=1.00D-04
 Number of steps in this run=     50 maximum allowed number of steps=    120.
 Search for a saddle point of order  1.
 GradGradGradGradGradGradGradGradGradGradGradGradGradGradGradGradGradGrad

                          Input orientation:                          
 ---------------------------------------------------------------------
 Center     Atomic      Atomic             Coordinates (Angstroms)
 Number     Number       Type             X           Y           Z
 ---------------------------------------------------------------------
      1          6           0        0.795200   -0.388700   -0.876100
      2          6           0       -1.511900   -0.557000   -0.272600
      3          6           0        0.295300    1.911100   -0.489200
      4          6           0       -1.938400    0.810500   -0.170000
      5          7           0        1.155400    0.813200   -0.162900
      6          1           0       -2.440300    1.264600   -1.015900
      7          1           0       -0.068100    2.050700   -1.504300
      8          1           0       -1.765800   -1.191000   -1.112100
      9          1           0        0.187300    2.749800    0.194400
     10          1           0        0.438200   -0.288100   -1.902200
     11          1           0       -2.060200    1.233900    0.820400
     12          9           0       -1.448100   -1.282500    0.863000
     13          6           0        1.398400   -1.720700   -0.538600
     14          1           0        1.002700   -2.487000   -1.212900
     15          1           0        2.485200   -1.692000   -0.660700
     16          1           0        1.159400   -2.021700    0.485200
     17          6           0        1.476800    0.675400    1.247600
     18          1           0        1.766500    1.639200    1.683900
     19          1           0        0.633900    0.284700    1.829400
     20          1           0        2.335000    0.009700    1.394100
 ---------------------------------------------------------------------
                    Distance matrix (angstroms):
                    1          2          3          4          5
     1  C    0.000000
     2  C    2.390658   0.000000
     3  C    2.385094   3.066660   0.000000
     4  C    3.067446   1.436136   2.510503   0.000000
     5  N    1.443247   3.000662   1.432351   3.093809   0.000000
     6  H    3.636125   2.175465   2.859875   1.083355   3.722960
     7  H    2.662817   3.225173   1.087187   2.610838   2.197206
     8  H    2.694087   1.082211   3.776131   2.218861   3.667589
     9  H    3.371305   3.747038   1.087378   2.900392   2.194379
    10  H    1.091078   2.555542   2.617913   3.139374   2.180000
    11  H    3.696519   2.168549   2.778854   1.083972   3.388798
    12  F    2.975860   1.349077   3.881619   2.384981   3.496089
    13  C    1.500660   3.145600   3.795951   4.204411   2.573101
    14  H    2.135264   3.306399   4.513030   4.539958   3.466574
    15  H    2.145015   4.173207   4.219882   5.106029   2.879618
    16  H    2.156958   3.139339   4.142830   4.248177   2.908042
    17  C    2.471232   3.572415   2.437082   3.700194   1.453202
    18  H    3.407257   4.404440   2.638318   4.224923   2.113383
    19  H    2.792708   3.119506   2.852321   3.300120   2.126155
    20  H    2.771915   4.230565   3.364895   4.620567   2.112183
                    6          7          8          9         10
     6  H    0.000000
     7  H    2.546335   0.000000
     8  H    2.548367   3.680302   0.000000
     9  H    3.251911   1.854603   4.588186   0.000000
    10  H    3.388535   2.425830   2.509403   3.699665   0.000000
    11  H    1.875478   3.168573   3.114702   2.782281   3.996378
    12  F    3.316993   4.314943   2.002580   4.402386   3.491889
    13  C    4.886251   4.160127   3.259087   4.689288   2.198575
    14  H    5.095838   4.671429   3.058491   5.483561   2.372542
    15  H    5.755710   4.608558   4.304157   5.073571   2.775332
    16  H    5.100089   4.695669   3.434854   4.878192   3.037298
    17  C    4.562265   3.442546   4.423357   2.659920   3.453732
    18  H    5.012625   3.701312   5.320225   2.438425   4.282403
    19  H    4.301935   3.837332   4.072919   2.991554   3.780375
    20  H    5.494212   4.282674   4.953714   3.682396   3.814725
                   11         12         13         14         15
    11  H    0.000000
    12  F    2.590126   0.000000
    13  C    4.747468   3.202977   0.000000
    14  H    5.230752   3.430248   1.094749   0.000000
    15  H    5.604927   4.237948   1.094014   1.770524   0.000000
    16  H    4.590982   2.736459   1.093567   1.767655   1.783125
    17  C    3.606216   3.540668   2.989641   4.034799   3.203601
    18  H    3.943797   4.420844   4.045236   5.099056   4.136493
    19  H    3.029395   2.779347   3.195859   4.132060   3.679029
    20  H    4.598432   4.032827   2.758049   3.847724   2.672180
                   16         17         18         19         20
    16  H    0.000000
    17  C    2.820699   0.000000
    18  H    3.899698   1.096902   0.000000
    19  H    2.720754   1.096183   1.771616   0.000000
    20  H    2.516887   1.095959   1.749985   1.777316   0.000000
 Stoichiometry    C6H12FN
 Framework group  C1[X(C6H12FN)]
 Deg. of freedom    54
 Full point group                 C1      NOp   1
 Largest Abelian subgroup         C1      NOp   1
 Largest concise Abelian subgroup C1      NOp   1
                         Standard orientation:                         
 ---------------------------------------------------------------------
 Center     Atomic      Atomic             Coordinates (Angstroms)
 Number     Number       Type             X           Y           Z
 ---------------------------------------------------------------------
      1          6           0       -0.708768    0.500977   -0.853229
      2          6           0        1.596693    0.384316   -0.231550
      3          6           0       -0.480472   -1.851490   -0.533147
      4          6           0        1.862007   -1.025662   -0.167871
      5          7           0       -1.211478   -0.671790   -0.178794
      6          1           0        2.316107   -1.509572   -1.024189
      7          1           0       -0.126185   -2.002195   -1.549879
      8          1           0        1.929622    1.009185   -1.050011
      9          1           0       -0.476039   -2.716759    0.125398
     10          1           0       -0.356249    0.390055   -1.879815
     11          1           0        1.925108   -1.489182    0.809965
     12          9           0        1.606321    1.078672    0.925077
     13          6           0       -1.157754    1.883160   -0.479115
     14          1           0       -0.670274    2.618186   -1.127632
     15          1           0       -2.239460    1.983574   -0.608326
     16          1           0       -0.895174    2.124398    0.554686
     17          6           0       -1.527907   -0.539326    1.233340
     18          1           0       -1.930627   -1.475683    1.638613
     19          1           0       -0.651057   -0.265685    1.831564
     20          1           0       -2.305107    0.216305    1.394921
 ---------------------------------------------------------------------
 Rotational constants (GHZ):           2.1495626           1.7137595           1.2884224
 Standard basis: STO-3G (5D, 7F)
 There are    52 symmetry adapted cartesian basis functions of A   symmetry.
 There are    52 symmetry adapted basis functions of A   symmetry.
    52 basis functions,   156 primitive gaussians,    52 cartesian basis functions
    32 alpha electrons       32 beta electrons
       nuclear repulsion energy       395.3818641918 Hartrees.
 NAtoms=   20 NActive=   20 NUniq=   20 SFac= 1.00D+00 NAtFMM=   60 NAOKFM=F Big=F
 Integral buffers will be    131072 words long.
 Raffenetti 1 integral format.
 Two-electron integral symmetry is turned on.
 External calculation of energy, first and second derivatives.
 Running external command "~/scripts/MiMe -H 'hf 6-31g(d)' -EF 'wb97xd def2svp' -c 12 -m 48GB R"
         input file       "/local/jobs/1157664/Gau-2008599.EIn"
         output file      "/local/jobs/1157664/Gau-2008599.EOu"
         message file     "/local/jobs/1157664/Gau-2008599.EMs"
         fchk file        "/local/jobs/1157664/Gau-2008599.EFC"
         mat. el file     "/local/jobs/1157664/Gau-2008599.EUF"
 Read checkpoint file Gau-2008599_H.chk type G16
 Write formatted file Gau-2008599_H.fchk

deriv: 2

spelevel: wb97xd def2svp
gradlevel: wb97xd def2svp
hesslevel: hf 6-31g(d)

runspe: False
runforce: True
runfreq: True

Running Gaussian ...

Parsing files ...
SPE file: Gau-2008599_F.out
FORCE file: Gau-2008599_F.out
HESS file: Gau-2008599_H.out

 ExternalExternalExternalExternalExternalExternalExternalExternalExternalExternal
 Output from external command:
 "~/scripts/MiMe -H 'hf 6-31g(d)' -EF 'wb97xd def2svp' -c 12 -m 48GB R /local/jobs/1157664/Gau-2008599.EIn /local/jobs/1157664/Gau-2008599.EOu /local/jobs/1157664/Gau-2008599.EMs /local/jobs/1157664/Gau-2008599.EFC /local/jobs/1157664/Gau-2008599.EUF"
  
 --------------------------------------------------
 Force calculation at wb97xd def2svp
 Hessian calculation at hf 6-31g(d)
 ExternalExternalExternalExternalExternalExternalExternalExternalExternalExternal

 Recovered energy= -389.898671614     dipole=     -1.460200000000     -0.441500000000     -0.351600000000
 Energy=    -389.898672     NIter=   0.
 Dipole moment=      -1.460200      -0.441500      -0.351600
 ***** Axes restored to original set *****
 -------------------------------------------------------------------
 Center     Atomic                   Forces (Hartrees/Bohr)
 Number     Number              X              Y              Z
 -------------------------------------------------------------------
      1        6          -0.007705034    0.017772796    0.031531870
      2        6           0.001526143    0.047411992    0.004826981
      3        6           0.012548850   -0.038148715    0.018144280
      4        6           0.038288521   -0.041952067   -0.004743163
      5        7          -0.083321878   -0.000126937   -0.045315267
      6        1          -0.000051173    0.004185501   -0.003614751
      7        1           0.009029800   -0.003967241   -0.002997930
      8        1          -0.001538034   -0.002350445   -0.008870294
      9        1           0.010320365    0.000980586    0.002629191
     10        1           0.006429800    0.011925723   -0.000091129
     11        1          -0.003874826    0.001763602    0.003903493
     12        9           0.006676083   -0.001790772    0.005967221
     13        6           0.001768033    0.013306476   -0.000526167
     14        1          -0.001358546   -0.000569731   -0.001641754
     15        1           0.007908760   -0.004682140    0.000679219
     16        1          -0.000245767   -0.002434596    0.004945284
     17        6           0.008879503    0.000722686    0.004181989
     18        1          -0.000999534    0.003180443   -0.004273414
     19        1          -0.004937397   -0.002506046   -0.001991982
     20        1           0.000656332   -0.002721117   -0.002743676
 -------------------------------------------------------------------
 Cartesian Forces:  Max     0.083321878 RMS     0.017769170
 FormGI is forming the generalized inverse of G from B-inverse, IUseBI=4.

 GradGradGradGradGradGradGradGradGradGradGradGradGradGradGradGradGradGrad
 Berny optimization.
 Internal  Forces:  Max     0.061263096 RMS     0.009196453
 Search for a saddle point.
 Step number   1 out of a maximum of   50
 All quantities printed in internal units (Hartrees-Bohrs-Radians)
 Swapping is turned off.
 Second derivative matrix not updated -- analytic derivatives used.
 ITU=  0
     Eigenvalues ---   -0.04648   0.00039   0.00583   0.00622   0.00782
     Eigenvalues ---    0.00969   0.01317   0.01361   0.01431   0.01702
     Eigenvalues ---    0.01911   0.02228   0.02572   0.03053   0.03730
     Eigenvalues ---    0.04242   0.04987   0.05489   0.05856   0.05923
     Eigenvalues ---    0.06185   0.06275   0.07400   0.07924   0.08026
     Eigenvalues ---    0.08294   0.09360   0.11572   0.15195   0.15593
     Eigenvalues ---    0.15795   0.17034   0.19088   0.20031   0.21569
     Eigenvalues ---    0.21608   0.26085   0.29391   0.32166   0.33643
     Eigenvalues ---    0.34269   0.34757   0.34909   0.35079   0.35288
     Eigenvalues ---    0.35828   0.36204   0.36360   0.37365   0.37817
     Eigenvalues ---    0.38069   0.38577   0.40353   0.44804
 Eigenvectors required to have negative eigenvalues:
                          R1        R8        D51       D33       D35
   1                   -0.55670  -0.50976  -0.16828  -0.16652   0.15534
                          R16       R5        D12       D39       D31
   1                   -0.15344   0.15009   0.13698  -0.12440  -0.12111
 RFO step:  Lambda0=3.250527632D-04 Lambda=-4.46466312D-02.
 Linear search not attempted -- option 19 set.
 Maximum step size (   0.100) exceeded in Quadratic search.
    -- Step size scaled by   0.255
 Iteration  1 RMS(Cart)=  0.01555021 RMS(Int)=  0.00017940
 Iteration  2 RMS(Cart)=  0.00022849 RMS(Int)=  0.00008582
 Iteration  3 RMS(Cart)=  0.00000005 RMS(Int)=  0.00008582
 Variable       Old X    -DE/DX   Delta X   Delta X   Delta X     New X
                                 (Linear)    (Quad)   (Total)
    R1        4.51769  -0.02000   0.00000  -0.02097  -0.02096   4.49673
    R2        2.72734  -0.05416   0.00000  -0.04681  -0.04666   2.68068
    R3        2.06184  -0.00138   0.00000  -0.00019  -0.00019   2.06165
    R4        2.83584  -0.00097   0.00000  -0.00078  -0.00078   2.83506
    R5        2.71390  -0.04482   0.00000  -0.03574  -0.03591   2.67799
    R6        2.04508   0.00852   0.00000   0.00502   0.00497   2.05005
    R7        2.54939   0.00630   0.00000   0.00501   0.00501   2.55440
    R8        4.74416  -0.01701   0.00000  -0.01442  -0.01445   4.72971
    R9        2.70675  -0.06126   0.00000  -0.05058  -0.05045   2.65631
   R10        2.05449  -0.00211   0.00000  -0.00045  -0.00044   2.05404
   R11        2.05485   0.00138   0.00000   0.00030   0.00030   2.05514
   R12        2.04724   0.00604   0.00000   0.00341   0.00337   2.05062
   R13        2.04841   0.00469   0.00000   0.00323   0.00323   2.05164
   R14        2.74615  -0.00376   0.00000   0.00267   0.00267   2.74883
   R15        4.81188  -0.00135   0.00000  -0.00210  -0.00212   4.80976
   R16        4.74208  -0.00273   0.00000  -0.00454  -0.00454   4.73755
   R17        2.06878   0.00190   0.00000   0.00142   0.00142   2.07020
   R18        2.06739   0.00766   0.00000   0.00477   0.00477   2.07215
   R19        2.06654   0.00535   0.00000   0.00338   0.00338   2.06992
   R20        2.07284   0.00083   0.00000  -0.00032  -0.00032   2.07252
   R21        2.07149   0.00363   0.00000   0.00118   0.00118   2.07267
   R22        2.07106   0.00180   0.00000   0.00013   0.00013   2.07119
    A1        1.74643  -0.00320   0.00000  -0.01498  -0.01483   1.73160
    A2        1.49887   0.00476   0.00000   0.00865   0.00861   1.50748
    A3        1.84278   0.00079   0.00000   0.00507   0.00493   1.84771
    A4        2.05965  -0.00690   0.00000  -0.01066  -0.01070   2.04895
    A5        2.12671   0.00153   0.00000   0.00523   0.00527   2.13198
    A6        2.00961   0.00425   0.00000   0.00592   0.00590   2.01551
    A7        1.81069  -0.00324   0.00000  -0.00201  -0.00207   1.80862
    A8        1.64269   0.00229   0.00000  -0.00311  -0.00307   1.63962
    A9        1.77697  -0.00234   0.00000  -0.01433  -0.01429   1.76268
   A10        2.14550   0.00026   0.00000   0.00324   0.00328   2.14878
   A11        2.05554   0.00024   0.00000   0.00485   0.00471   2.06025
   A12        1.92732   0.00155   0.00000   0.00274   0.00265   1.92997
   A13        1.74089  -0.00629   0.00000  -0.02137  -0.02125   1.71964
   A14        1.44809   0.00679   0.00000   0.01036   0.01031   1.45841
   A15        1.74146   0.00397   0.00000   0.01465   0.01450   1.75596
   A16        2.10812  -0.00537   0.00000  -0.00693  -0.00695   2.10117
   A17        2.10323   0.00013   0.00000  -0.00113  -0.00098   2.10225
   A18        2.04288   0.00418   0.00000   0.00745   0.00729   2.05018
   A19        1.71543  -0.00137   0.00000   0.00270   0.00259   1.71802
   A20        2.07251   0.00243   0.00000   0.00333   0.00342   2.07593
   A21        2.06074  -0.00131   0.00000   0.00329   0.00321   2.06396
   A22        1.70032  -0.00010   0.00000  -0.00563  -0.00558   1.69475
   A23        1.61572   0.00077   0.00000  -0.00202  -0.00201   1.61370
   A24        2.09166  -0.00092   0.00000  -0.00488  -0.00489   2.08678
   A25        1.95615   0.01519   0.00000   0.02722   0.02721   1.98335
   A26        2.04415  -0.00726   0.00000  -0.00275  -0.00305   2.04110
   A27        2.01153  -0.00355   0.00000   0.00061   0.00037   2.01190
   A28        1.41777  -0.00162   0.00000   0.00408   0.00401   1.42178
   A29        1.66360  -0.00590   0.00000  -0.01074  -0.01070   1.65290
   A30        1.39732  -0.00462   0.00000   0.00023   0.00018   1.39751
   A31        1.52888  -0.00376   0.00000  -0.00953  -0.00948   1.51940
   A32        1.91505  -0.00323   0.00000  -0.00391  -0.00390   1.91115
   A33        1.92935   0.00761   0.00000   0.01042   0.01041   1.93976
   A34        1.94660   0.00080   0.00000   0.00174   0.00173   1.94832
   A35        1.88461  -0.00197   0.00000  -0.00292  -0.00291   1.88170
   A36        1.88072   0.00015   0.00000  -0.00209  -0.00209   1.87862
   A37        1.90585  -0.00366   0.00000  -0.00373  -0.00375   1.90210
   A38        1.94031  -0.00556   0.00000  -0.00507  -0.00508   1.93523
   A39        1.95939  -0.00474   0.00000  -0.01025  -0.01028   1.94911
   A40        1.93963  -0.00217   0.00000  -0.00101  -0.00102   1.93862
   A41        1.88088   0.00532   0.00000   0.00718   0.00715   1.88803
   A42        1.84806   0.00499   0.00000   0.00676   0.00676   1.85482
   A43        1.89092   0.00311   0.00000   0.00379   0.00377   1.89469
    D1        0.58822  -0.00463   0.00000  -0.00548  -0.00563   0.58259
    D2        2.77611  -0.00440   0.00000  -0.00365  -0.00375   2.77236
    D3       -1.55451  -0.00259   0.00000  -0.00393  -0.00401  -1.55852
    D4       -1.46667   0.00165   0.00000   0.00413   0.00406  -1.46260
    D5        0.72123   0.00188   0.00000   0.00595   0.00594   0.72717
    D6        2.67379   0.00369   0.00000   0.00567   0.00568   2.67947
    D7        2.80993  -0.00411   0.00000  -0.00466  -0.00476   2.80516
    D8       -1.28536  -0.00388   0.00000  -0.00284  -0.00289  -1.28825
    D9        0.66720  -0.00207   0.00000  -0.00311  -0.00315   0.66405
   D10       -0.94599  -0.00496   0.00000  -0.01832  -0.01859  -0.96458
   D11        1.43583  -0.00103   0.00000   0.01141   0.01135   1.44718
   D12        0.63653  -0.00248   0.00000  -0.01835  -0.01844   0.61808
   D13        3.01835   0.00145   0.00000   0.01138   0.01150   3.02985
   D14       -2.96291  -0.00425   0.00000  -0.01579  -0.01597  -2.97887
   D15       -0.58108  -0.00032   0.00000   0.01394   0.01397  -0.56711
   D16       -0.28826  -0.00204   0.00000  -0.00320  -0.00321  -0.29147
   D17       -2.01985  -0.00083   0.00000   0.00934   0.00920  -2.01064
   D18        1.54941   0.00129   0.00000   0.00677   0.00668   1.55610
   D19        1.19441   0.00265   0.00000   0.00699   0.00695   1.20137
   D20       -3.01212   0.00290   0.00000   0.00737   0.00732  -3.00479
   D21       -0.88819   0.00407   0.00000   0.01105   0.01102  -0.87717
   D22       -3.12078  -0.00003   0.00000  -0.00560  -0.00556  -3.12634
   D23       -1.04413   0.00021   0.00000  -0.00522  -0.00519  -1.04931
   D24        1.07980   0.00138   0.00000  -0.00154  -0.00149   1.07831
   D25       -0.42488  -0.00446   0.00000  -0.00716  -0.00717  -0.43205
   D26        1.65177  -0.00421   0.00000  -0.00678  -0.00680   1.64497
   D27       -2.50749  -0.00304   0.00000  -0.00310  -0.00310  -2.51059
   D28       -0.10578   0.00083   0.00000   0.00162   0.00162  -0.10417
   D29        1.69583   0.00057   0.00000  -0.00245  -0.00243   1.69339
   D30       -1.80605   0.00099   0.00000   0.00173   0.00179  -1.80426
   D31       -1.92566   0.00019   0.00000   0.00566   0.00564  -1.92002
   D32       -0.12405  -0.00007   0.00000   0.00159   0.00160  -0.12245
   D33        2.65726   0.00035   0.00000   0.00577   0.00582   2.66308
   D34        1.84081  -0.00406   0.00000  -0.01497  -0.01505   1.82576
   D35       -2.64077  -0.00433   0.00000  -0.01904  -0.01909  -2.65986
   D36        0.14054  -0.00390   0.00000  -0.01486  -0.01487   0.12567
   D37       -0.29498  -0.00097   0.00000  -0.00249  -0.00248  -0.29746
   D38        1.61259  -0.00324   0.00000  -0.00619  -0.00623   1.60636
   D39       -2.11416   0.00037   0.00000   0.01378   0.01375  -2.10041
   D40       -0.34948   0.00377   0.00000   0.00123   0.00140  -0.34809
   D41       -2.45440   0.00159   0.00000  -0.00148  -0.00139  -2.45579
   D42        1.72490   0.00240   0.00000   0.00456   0.00463   1.72952
   D43        1.74732  -0.00056   0.00000  -0.00357  -0.00351   1.74381
   D44       -0.35759  -0.00273   0.00000  -0.00629  -0.00630  -0.36389
   D45       -2.46148  -0.00192   0.00000  -0.00025  -0.00028  -2.46176
   D46       -2.50535   0.00437   0.00000   0.00459   0.00476  -2.50059
   D47        1.67292   0.00219   0.00000   0.00187   0.00197   1.67489
   D48       -0.43097   0.00301   0.00000   0.00791   0.00799  -0.42298
   D49        0.87139   0.00386   0.00000   0.01664   0.01690   0.88830
   D50       -1.52544   0.00193   0.00000  -0.01064  -0.01066  -1.53611
   D51       -0.65716   0.00039   0.00000   0.01810   0.01821  -0.63895
   D52       -3.05400  -0.00154   0.00000  -0.00919  -0.00936  -3.06336
   D53        2.74815   0.00452   0.00000   0.01970   0.01995   2.76809
   D54        0.35131   0.00258   0.00000  -0.00759  -0.00762   0.34369
   D55        0.14886   0.00150   0.00000   0.00280   0.00281   0.15167
   D56        1.84504  -0.00159   0.00000  -0.01570  -0.01556   1.82948
   D57       -1.55147  -0.00611   0.00000  -0.01841  -0.01838  -1.56985
   D58       -1.65966   0.00218   0.00000   0.00199   0.00207  -1.65759
   D59        0.15064   0.00116   0.00000   0.00269   0.00268   0.15333
   D60        1.84872   0.00181   0.00000  -0.00403  -0.00394   1.84479
   D61        3.10982  -0.00538   0.00000  -0.01783  -0.01780   3.09202
   D62       -1.06487  -0.00578   0.00000  -0.01932  -0.01928  -1.08415
   D63        1.05606  -0.00667   0.00000  -0.02238  -0.02234   1.03372
   D64       -0.81515   0.00654   0.00000   0.02405   0.02400  -0.79115
   D65        1.29334   0.00614   0.00000   0.02256   0.02252   1.31586
   D66       -2.86891   0.00526   0.00000   0.01950   0.01946  -2.84945
   D67       -0.35238  -0.00168   0.00000  -0.00537  -0.00536  -0.35774
   D68        0.68919  -0.00047   0.00000   0.00353   0.00350   0.69269
         Item               Value     Threshold  Converged?
 Maximum Force            0.061263     0.000450     NO 
 RMS     Force            0.009196     0.000300     NO 
 Maximum Displacement     0.061110     0.001800     NO 
 RMS     Displacement     0.015631     0.001200     NO 
 Predicted change in Energy=-1.024382D-02
 GradGradGradGradGradGradGradGradGradGradGradGradGradGradGradGradGradGrad

                          Input orientation:                          
 ---------------------------------------------------------------------
 Center     Atomic      Atomic             Coordinates (Angstroms)
 Number     Number       Type             X           Y           Z
 ---------------------------------------------------------------------
      1          6           0        0.788098   -0.380959   -0.873163
      2          6           0       -1.506303   -0.548269   -0.264838
      3          6           0        0.301020    1.900293   -0.491305
      4          6           0       -1.923820    0.802071   -0.162237
      5          7           0        1.123062    0.805735   -0.171837
      6          1           0       -2.426629    1.261880   -1.006800
      7          1           0       -0.056157    2.041377   -1.508156
      8          1           0       -1.760207   -1.184886   -1.105751
      9          1           0        0.212372    2.741146    0.192683
     10          1           0        0.436398   -0.274672   -1.900415
     11          1           0       -2.040875    1.229985    0.828668
     12          9           0       -1.419325   -1.274679    0.871797
     13          6           0        1.400040   -1.708221   -0.534558
     14          1           0        1.008126   -2.475026   -1.211710
     15          1           0        2.489996   -1.682589   -0.651726
     16          1           0        1.158839   -2.014699    0.489012
     17          6           0        1.452770    0.667341    1.238145
     18          1           0        1.743413    1.633435    1.668274
     19          1           0        0.606202    0.276489    1.815679
     20          1           0        2.309482   -0.001652    1.378736
 ---------------------------------------------------------------------
                    Distance matrix (angstroms):
                    1          2          3          4          5
     1  C    0.000000
     2  C    2.379564   0.000000
     3  C    2.363720   3.051747   0.000000
     4  C    3.042939   1.417133   2.502857   0.000000
     5  N    1.418557   2.958976   1.405656   3.046900   0.000000
     6  H    3.612651   2.161978   2.848399   1.085139   3.674988
     7  H    2.642669   3.217923   1.086952   2.614487   2.168667
     8  H    2.682211   1.084842   3.760921   2.205671   3.626018
     9  H    3.348885   3.739442   1.087535   2.906768   2.169803
    10  H    1.090979   2.554223   2.595071   3.122702   2.150993
    11  H    3.673480   2.154927   2.770580   1.085682   3.345369
    12  F    2.952344   1.351731   3.859803   2.374159   3.446886
    13  C    1.500250   3.140870   3.772412   4.181894   2.555046
    14  H    2.132637   3.306253   4.490256   4.520737   3.443536
    15  H    2.154003   4.172142   4.201713   5.088704   2.879333
    16  H    2.159183   3.133957   4.126019   4.226240   2.897042
    17  C    2.449151   3.534512   2.416132   3.657948   1.454616
    18  H    3.380727   4.365479   2.610650   4.182169   2.110907
    19  H    2.774021   3.077573   2.837613   3.254136   2.120723
    20  H    2.743999   4.190506   3.338917   4.576179   2.112757
                    6          7          8          9         10
     6  H    0.000000
     7  H    2.545213   0.000000
     8  H    2.537828   3.670761   0.000000
     9  H    3.254430   1.858665   4.581564   0.000000
    10  H    3.369936   2.400118   2.507001   3.677826   0.000000
    11  H    1.875837   3.171468   3.106823   2.786613   3.981051
    12  F    3.313294   4.303328   2.008721   4.387537   3.482654
    13  C    4.867022   4.138586   3.253813   4.662221   2.202097
    14  H    5.079763   4.649568   3.056036   5.460220   2.375446
    15  H    5.741879   4.591763   4.303263   5.046784   2.785447
    16  H    5.082224   4.681522   3.428219   4.858155   3.042856
    17  C    4.521392   3.421549   4.387233   2.632915   3.430883
    18  H    4.968231   3.673496   5.283323   2.397599   4.252611
    19  H    4.258573   3.821181   4.033641   2.977206   3.760580
    20  H    5.451426   4.254922   4.912748   3.650690   3.786266
                   11         12         13         14         15
    11  H    0.000000
    12  F    2.580993   0.000000
    13  C    4.725604   3.180348   0.000000
    14  H    5.214082   3.416775   1.095500   0.000000
    15  H    5.586004   4.215483   1.096536   1.771293   0.000000
    16  H    4.569629   2.709443   1.095355   1.768353   1.784253
    17  C    3.562273   3.486342   2.964550   4.009236   3.188984
    18  H    3.897248   4.369715   4.017094   5.070938   4.115313
    19  H    2.981671   2.720256   3.176928   4.110653   3.670797
    20  H    4.554680   3.972604   2.720323   3.810711   2.642141
                   16         17         18         19         20
    16  H    0.000000
    17  C    2.800167   0.000000
    18  H    3.878307   1.096732   0.000000
    19  H    2.704625   1.096808   1.776592   0.000000
    20  H    2.483535   1.096027   1.754359   1.780294   0.000000
 Stoichiometry    C6H12FN
 Framework group  C1[X(C6H12FN)]
 Deg. of freedom    54
 Full point group                 C1      NOp   1
 Largest Abelian subgroup         C1      NOp   1
 Largest concise Abelian subgroup C1      NOp   1
                         Standard orientation:                         
 ---------------------------------------------------------------------
 Center     Atomic      Atomic             Coordinates (Angstroms)
 Number     Number       Type             X           Y           Z
 ---------------------------------------------------------------------
      1          6           0       -0.716318    0.476052   -0.849424
      2          6           0        1.582360    0.401103   -0.238860
      3          6           0       -0.458061   -1.850538   -0.521624
      4          6           0        1.864003   -0.985968   -0.168309
      5          7           0       -1.168261   -0.687780   -0.175967
      6          1           0        2.320238   -1.473352   -1.023782
      7          1           0       -0.114908   -2.002393   -1.541747
      8          1           0        1.899428    1.029010   -1.064744
      9          1           0       -0.454213   -2.711849    0.142349
     10          1           0       -0.375155    0.359600   -1.879125
     11          1           0        1.936478   -1.446494    0.812184
     12          9           0        1.565814    1.105690    0.914595
     13          6           0       -1.194449    1.849061   -0.479306
     14          1           0       -0.727436    2.588977   -1.138505
     15          1           0       -2.281394    1.934203   -0.596318
     16          1           0       -0.925804    2.106061    0.551026
     17          6           0       -1.485000   -0.550543    1.237098
     18          1           0       -1.870553   -1.492944    1.644590
     19          1           0       -0.604866   -0.259067    1.823097
     20          1           0       -2.271523    0.196487    1.393946
 ---------------------------------------------------------------------
 Rotational constants (GHZ):           2.1707107           1.7460561           1.3114602
 Standard basis: STO-3G (5D, 7F)
 There are    52 symmetry adapted cartesian basis functions of A   symmetry.
 There are    52 symmetry adapted basis functions of A   symmetry.
    52 basis functions,   156 primitive gaussians,    52 cartesian basis functions
    32 alpha electrons       32 beta electrons
       nuclear repulsion energy       397.9811980342 Hartrees.
 NAtoms=   20 NActive=   20 NUniq=   20 SFac= 1.00D+00 NAtFMM=   60 NAOKFM=F Big=F
 Integral buffers will be    131072 words long.
 Raffenetti 1 integral format.
 Two-electron integral symmetry is turned on.
 External calculation of energy, first and second derivatives.
 Running external command "~/scripts/MiMe -H 'hf 6-31g(d)' -EF 'wb97xd def2svp' -c 12 -m 48GB R"
         input file       "/local/jobs/1157664/Gau-2008599.EIn"
         output file      "/local/jobs/1157664/Gau-2008599.EOu"
         message file     "/local/jobs/1157664/Gau-2008599.EMs"
         fchk file        "/local/jobs/1157664/Gau-2008599.EFC"
         mat. el file     "/local/jobs/1157664/Gau-2008599.EUF"
 Read checkpoint file Gau-2008599_H.chk type G16
 Write formatted file Gau-2008599_H.fchk

deriv: 2

spelevel: wb97xd def2svp
gradlevel: wb97xd def2svp
hesslevel: hf 6-31g(d)

runspe: False
runforce: True
runfreq: True

Running Gaussian ...

Parsing files ...
SPE file: Gau-2008599_F.out
FORCE file: Gau-2008599_F.out
HESS file: Gau-2008599_H.out

 ExternalExternalExternalExternalExternalExternalExternalExternalExternalExternal
 Output from external command:
 "~/scripts/MiMe -H 'hf 6-31g(d)' -EF 'wb97xd def2svp' -c 12 -m 48GB R /local/jobs/1157664/Gau-2008599.EIn /local/jobs/1157664/Gau-2008599.EOu /local/jobs/1157664/Gau-2008599.EMs /local/jobs/1157664/Gau-2008599.EFC /local/jobs/1157664/Gau-2008599.EUF"
  
 --------------------------------------------------
 Force calculation at wb97xd def2svp
 Hessian calculation at hf 6-31g(d)
 ExternalExternalExternalExternalExternalExternalExternalExternalExternalExternal

 Recovered energy= -389.908860968     dipole=     -1.534900000000     -0.499500000000     -0.323700000000
 Energy=    -389.908861     NIter=   0.
 Dipole moment=      -1.534900      -0.499500      -0.323700
 ***** Axes restored to original set *****
 -------------------------------------------------------------------
 Center     Atomic                   Forces (Hartrees/Bohr)
 Number     Number              X              Y              Z
 -------------------------------------------------------------------
      1        6          -0.007448478    0.010808768    0.023355539
      2        6           0.002214023    0.035695228    0.003236028
      3        6           0.006658099   -0.027317760    0.013688254
      4        6           0.031334985   -0.031318630   -0.003708403
      5        7          -0.068997270   -0.001531364   -0.033000285
      6        1           0.000457115    0.003507963   -0.002535528
      7        1           0.007616098   -0.003121126   -0.002609791
      8        1          -0.000889827   -0.001636654   -0.006876617
      9        1           0.009355659    0.000805203    0.001836064
     10        1           0.005674991    0.010057688   -0.000156467
     11        1          -0.003420996    0.001574581    0.002776963
     12        9           0.006253572   -0.001496637    0.004962359
     13        6           0.002052921    0.011142808   -0.000264012
     14        1          -0.001095344   -0.000468733   -0.001221645
     15        1           0.006171569   -0.003941689    0.000579797
     16        1          -0.000280137   -0.002040936    0.003737276
     17        6           0.008879086    0.001003818    0.003886005
     18        1          -0.000928867    0.002668243   -0.003564386
     19        1          -0.004040234   -0.002105390   -0.001789310
     20        1           0.000433032   -0.002285380   -0.002331842
 -------------------------------------------------------------------
 Cartesian Forces:  Max     0.068997270 RMS     0.013919279
 FormGI is forming the generalized inverse of G from B-inverse, IUseBI=4.

 GradGradGradGradGradGradGradGradGradGradGradGradGradGradGradGradGradGrad
 Berny optimization.
 Internal  Forces:  Max     0.045697428 RMS     0.007107475
 Search for a saddle point.
 Step number   2 out of a maximum of   50
 All quantities printed in internal units (Hartrees-Bohrs-Radians)
 Swapping is turned off.
 Second derivative matrix not updated -- analytic derivatives used.
 ITU=  0  0
     Eigenvalues ---   -0.04264   0.00184   0.00602   0.00629   0.00797
     Eigenvalues ---    0.00991   0.01367   0.01433   0.01513   0.01765
     Eigenvalues ---    0.01955   0.02246   0.02622   0.03102   0.03808
     Eigenvalues ---    0.04372   0.05065   0.05645   0.05877   0.05930
     Eigenvalues ---    0.06264   0.06324   0.07501   0.07956   0.08019
     Eigenvalues ---    0.08411   0.09514   0.11779   0.15465   0.15705
     Eigenvalues ---    0.15984   0.17986   0.19548   0.20567   0.21762
     Eigenvalues ---    0.21889   0.29754   0.32150   0.32683   0.33678
     Eigenvalues ---    0.34169   0.34790   0.34906   0.35182   0.35570
     Eigenvalues ---    0.35979   0.36375   0.36933   0.37715   0.37852
     Eigenvalues ---    0.38123   0.39519   0.40919   0.44713
 Eigenvectors required to have negative eigenvalues:
                          R1        R8        D33       D51       D35
   1                   -0.55677  -0.50790  -0.17134  -0.17093   0.15843
                          R16       D12       R5        D39       D31
   1                   -0.15428   0.14052   0.13577  -0.12658  -0.12327
 RFO step:  Lambda0=8.621402349D-04 Lambda=-2.94330146D-02.
 Linear search not attempted -- option 19 set.
 Maximum step size (   0.100) exceeded in Quadratic search.
    -- Step size scaled by   0.311
 Iteration  1 RMS(Cart)=  0.01502247 RMS(Int)=  0.00024212
 Iteration  2 RMS(Cart)=  0.00030424 RMS(Int)=  0.00013380
 Iteration  3 RMS(Cart)=  0.00000008 RMS(Int)=  0.00013380
 Variable       Old X    -DE/DX   Delta X   Delta X   Delta X     New X
                                 (Linear)    (Quad)   (Total)
    R1        4.49673  -0.01736   0.00000  -0.01303  -0.01304   4.48369
    R2        2.68068  -0.04079   0.00000  -0.04282  -0.04261   2.63808
    R3        2.06165  -0.00110   0.00000  -0.00016  -0.00014   2.06151
    R4        2.83506  -0.00072   0.00000  -0.00135  -0.00135   2.83371
    R5        2.67799  -0.03309   0.00000  -0.03434  -0.03457   2.64342
    R6        2.05005   0.00663   0.00000   0.00449   0.00443   2.05448
    R7        2.55440   0.00538   0.00000   0.00473   0.00473   2.55913
    R8        4.72971  -0.01468   0.00000  -0.00665  -0.00666   4.72305
    R9        2.65631  -0.04570   0.00000  -0.04328  -0.04308   2.61322
   R10        2.05404  -0.00171   0.00000  -0.00025  -0.00024   2.05380
   R11        2.05514   0.00101   0.00000   0.00010   0.00010   2.05524
   R12        2.05062   0.00466   0.00000   0.00300   0.00296   2.05357
   R13        2.05164   0.00352   0.00000   0.00302   0.00302   2.05466
   R14        2.74883  -0.00263   0.00000   0.00296   0.00296   2.75179
   R15        4.80976  -0.00129   0.00000  -0.00002  -0.00005   4.80970
   R16        4.73755  -0.00254   0.00000  -0.00105  -0.00106   4.73649
   R17        2.07020   0.00148   0.00000   0.00153   0.00153   2.07173
   R18        2.07215   0.00598   0.00000   0.00477   0.00477   2.07693
   R19        2.06992   0.00413   0.00000   0.00334   0.00334   2.07327
   R20        2.07252   0.00071   0.00000  -0.00045  -0.00045   2.07207
   R21        2.07267   0.00293   0.00000   0.00123   0.00123   2.07390
   R22        2.07119   0.00143   0.00000   0.00004   0.00004   2.07123
    A1        1.73160  -0.00308   0.00000  -0.01944  -0.01924   1.71235
    A2        1.50748   0.00427   0.00000   0.00985   0.00979   1.51727
    A3        1.84771   0.00068   0.00000   0.00558   0.00537   1.85309
    A4        2.04895  -0.00589   0.00000  -0.01157  -0.01164   2.03731
    A5        2.13198   0.00153   0.00000   0.00535   0.00541   2.13739
    A6        2.01551   0.00344   0.00000   0.00799   0.00796   2.02347
    A7        1.80862  -0.00240   0.00000  -0.00192  -0.00199   1.80663
    A8        1.63962   0.00179   0.00000  -0.00696  -0.00689   1.63273
    A9        1.76268  -0.00230   0.00000  -0.01954  -0.01948   1.74320
   A10        2.14878   0.00025   0.00000   0.00479   0.00483   2.15361
   A11        2.06025   0.00020   0.00000   0.00623   0.00599   2.06624
   A12        1.92997   0.00129   0.00000   0.00427   0.00407   1.93405
   A13        1.71964  -0.00585   0.00000  -0.02711  -0.02692   1.69272
   A14        1.45841   0.00594   0.00000   0.01120   0.01112   1.46953
   A15        1.75596   0.00371   0.00000   0.02031   0.02007   1.77603
   A16        2.10117  -0.00445   0.00000  -0.00783  -0.00788   2.09329
   A17        2.10225   0.00012   0.00000  -0.00250  -0.00227   2.09998
   A18        2.05018   0.00339   0.00000   0.00954   0.00931   2.05948
   A19        1.71802  -0.00083   0.00000   0.00435   0.00423   1.72225
   A20        2.07593   0.00204   0.00000   0.00370   0.00382   2.07975
   A21        2.06396  -0.00094   0.00000   0.00519   0.00507   2.06902
   A22        1.69475  -0.00020   0.00000  -0.00943  -0.00936   1.68538
   A23        1.61370   0.00051   0.00000  -0.00427  -0.00428   1.60942
   A24        2.08678  -0.00096   0.00000  -0.00560  -0.00564   2.08114
   A25        1.98335   0.01276   0.00000   0.03081   0.03066   2.01402
   A26        2.04110  -0.00582   0.00000  -0.00013  -0.00065   2.04044
   A27        2.01190  -0.00287   0.00000   0.00251   0.00204   2.01394
   A28        1.42178  -0.00120   0.00000   0.00757   0.00749   1.42927
   A29        1.65290  -0.00530   0.00000  -0.01171  -0.01164   1.64126
   A30        1.39751  -0.00369   0.00000   0.00344   0.00338   1.40089
   A31        1.51940  -0.00356   0.00000  -0.01114  -0.01109   1.50831
   A32        1.91115  -0.00260   0.00000  -0.00421  -0.00420   1.90694
   A33        1.93976   0.00635   0.00000   0.01126   0.01125   1.95101
   A34        1.94832   0.00062   0.00000   0.00209   0.00207   1.95039
   A35        1.88170  -0.00166   0.00000  -0.00323  -0.00322   1.87847
   A36        1.87862   0.00002   0.00000  -0.00285  -0.00285   1.87578
   A37        1.90210  -0.00301   0.00000  -0.00369  -0.00372   1.89837
   A38        1.93523  -0.00466   0.00000  -0.00543  -0.00544   1.92978
   A39        1.94911  -0.00409   0.00000  -0.01134  -0.01138   1.93774
   A40        1.93862  -0.00187   0.00000  -0.00124  -0.00125   1.93736
   A41        1.88803   0.00445   0.00000   0.00759   0.00756   1.89559
   A42        1.85482   0.00426   0.00000   0.00802   0.00802   1.86284
   A43        1.89469   0.00260   0.00000   0.00374   0.00372   1.89841
    D1        0.58259  -0.00390   0.00000  -0.00487  -0.00508   0.57751
    D2        2.77236  -0.00364   0.00000  -0.00269  -0.00284   2.76952
    D3       -1.55852  -0.00224   0.00000  -0.00291  -0.00302  -1.56154
    D4       -1.46260   0.00146   0.00000   0.00562   0.00553  -1.45707
    D5        0.72717   0.00172   0.00000   0.00779   0.00777   0.73494
    D6        2.67947   0.00313   0.00000   0.00757   0.00760   2.68707
    D7        2.80516  -0.00338   0.00000  -0.00587  -0.00602   2.79915
    D8       -1.28825  -0.00312   0.00000  -0.00370  -0.00377  -1.29202
    D9        0.66405  -0.00172   0.00000  -0.00392  -0.00395   0.66010
   D10       -0.96458  -0.00471   0.00000  -0.02511  -0.02550  -0.99008
   D11        1.44718  -0.00063   0.00000   0.01747   0.01741   1.46460
   D12        0.61808  -0.00244   0.00000  -0.02596  -0.02610   0.59198
   D13        3.02985   0.00165   0.00000   0.01661   0.01681   3.04666
   D14       -2.97887  -0.00393   0.00000  -0.01974  -0.02001  -2.99889
   D15       -0.56711   0.00015   0.00000   0.02283   0.02290  -0.54421
   D16       -0.29147  -0.00173   0.00000  -0.00367  -0.00366  -0.29513
   D17       -2.01064  -0.00038   0.00000   0.01332   0.01313  -1.99752
   D18        1.55610   0.00131   0.00000   0.00778   0.00768   1.56378
   D19        1.20137   0.00245   0.00000   0.00898   0.00894   1.21030
   D20       -3.00479   0.00266   0.00000   0.00926   0.00920  -2.99559
   D21       -0.87717   0.00373   0.00000   0.01395   0.01392  -0.86326
   D22       -3.12634  -0.00017   0.00000  -0.00902  -0.00896  -3.13530
   D23       -1.04931   0.00004   0.00000  -0.00874  -0.00870  -1.05801
   D24        1.07831   0.00111   0.00000  -0.00405  -0.00398   1.07433
   D25       -0.43205  -0.00389   0.00000  -0.00764  -0.00765  -0.43970
   D26        1.64497  -0.00368   0.00000  -0.00736  -0.00738   1.63759
   D27       -2.51059  -0.00261   0.00000  -0.00266  -0.00266  -2.51325
   D28       -0.10417   0.00068   0.00000   0.00169   0.00169  -0.10248
   D29        1.69339   0.00052   0.00000  -0.00575  -0.00571   1.68768
   D30       -1.80426   0.00076   0.00000   0.00305   0.00314  -1.80112
   D31       -1.92002   0.00008   0.00000   0.00991   0.00989  -1.91013
   D32       -0.12245  -0.00007   0.00000   0.00247   0.00248  -0.11997
   D33        2.66308   0.00017   0.00000   0.01127   0.01134   2.67442
   D34        1.82576  -0.00363   0.00000  -0.02061  -0.02071   1.80505
   D35       -2.65986  -0.00378   0.00000  -0.02804  -0.02811  -2.68797
   D36        0.12567  -0.00354   0.00000  -0.01925  -0.01926   0.10641
   D37       -0.29746  -0.00088   0.00000  -0.00274  -0.00271  -0.30018
   D38        1.60636  -0.00249   0.00000  -0.00863  -0.00868   1.59768
   D39       -2.10041   0.00068   0.00000   0.02049   0.02047  -2.07994
   D40       -0.34809   0.00301   0.00000   0.00048   0.00071  -0.34738
   D41       -2.45579   0.00113   0.00000  -0.00204  -0.00191  -2.45770
   D42        1.72952   0.00204   0.00000   0.00551   0.00559   1.73512
   D43        1.74381  -0.00059   0.00000  -0.00504  -0.00496   1.73885
   D44       -0.36389  -0.00247   0.00000  -0.00756  -0.00757  -0.37146
   D45       -2.46176  -0.00156   0.00000  -0.00001  -0.00007  -2.46184
   D46       -2.50059   0.00365   0.00000   0.00574   0.00601  -2.49459
   D47        1.67489   0.00177   0.00000   0.00322   0.00339   1.67828
   D48       -0.42298   0.00268   0.00000   0.01077   0.01089  -0.41209
   D49        0.88830   0.00376   0.00000   0.02319   0.02358   0.91188
   D50       -1.53611   0.00119   0.00000  -0.01722  -0.01725  -1.55335
   D51       -0.63895   0.00079   0.00000   0.02685   0.02702  -0.61194
   D52       -3.06336  -0.00179   0.00000  -0.01356  -0.01381  -3.07717
   D53        2.76809   0.00441   0.00000   0.02888   0.02926   2.79736
   D54        0.34369   0.00183   0.00000  -0.01152  -0.01156   0.33213
   D55        0.15167   0.00132   0.00000   0.00329   0.00330   0.15496
   D56        1.82948  -0.00181   0.00000  -0.02130  -0.02107   1.80841
   D57       -1.56985  -0.00577   0.00000  -0.02497  -0.02491  -1.59476
   D58       -1.65759   0.00160   0.00000   0.00265   0.00275  -1.65484
   D59        0.15333   0.00105   0.00000   0.00307   0.00307   0.15640
   D60        1.84479   0.00134   0.00000  -0.00853  -0.00840   1.83639
   D61        3.09202  -0.00474   0.00000  -0.02301  -0.02295   3.06908
   D62       -1.08415  -0.00506   0.00000  -0.02480  -0.02471  -1.10886
   D63        1.03372  -0.00588   0.00000  -0.02875  -0.02866   1.00507
   D64       -0.79115   0.00580   0.00000   0.03184   0.03175  -0.75941
   D65        1.31586   0.00547   0.00000   0.03006   0.02998   1.34584
   D66       -2.84945   0.00465   0.00000   0.02611   0.02604  -2.82341
   D67       -0.35774  -0.00153   0.00000  -0.00702  -0.00702  -0.36476
   D68        0.69269  -0.00034   0.00000   0.00594   0.00589   0.69858
         Item               Value     Threshold  Converged?
 Maximum Force            0.045697     0.000450     NO 
 RMS     Force            0.007107     0.000300     NO 
 Maximum Displacement     0.068469     0.001800     NO 
 RMS     Displacement     0.015141     0.001200     NO 
 Predicted change in Energy=-7.839954D-03
 GradGradGradGradGradGradGradGradGradGradGradGradGradGradGradGradGradGrad

                          Input orientation:                          
 ---------------------------------------------------------------------
 Center     Atomic      Atomic             Coordinates (Angstroms)
 Number     Number       Type             X           Y           Z
 ---------------------------------------------------------------------
      1          6           0        0.781104   -0.375398   -0.871311
      2          6           0       -1.504713   -0.541038   -0.257184
      3          6           0        0.305218    1.893443   -0.493406
      4          6           0       -1.913019    0.792927   -0.154379
      5          7           0        1.086830    0.797113   -0.178063
      6          1           0       -2.413699    1.259972   -0.998248
      7          1           0       -0.044586    2.035022   -1.512612
      8          1           0       -1.754806   -1.180056   -1.100441
      9          1           0        0.241006    2.736851    0.190251
     10          1           0        0.435927   -0.261443   -1.899871
     11          1           0       -2.024460    1.227326    0.836105
     12          9           0       -1.387815   -1.267990    0.879398
     13          6           0        1.402018   -1.697115   -0.530512
     14          1           0        1.015356   -2.464560   -1.211258
     15          1           0        2.495307   -1.674687   -0.640747
     16          1           0        1.156674   -2.009937    0.492049
     17          6           0        1.430261    0.659497    1.230335
     18          1           0        1.721691    1.628693    1.652268
     19          1           0        0.581983    0.267751    1.805990
     20          1           0        2.286224   -0.012270    1.362136
 ---------------------------------------------------------------------
                    Distance matrix (angstroms):
                    1          2          3          4          5
     1  C    0.000000
     2  C    2.372667   0.000000
     3  C    2.348812   3.042754   0.000000
     4  C    3.022792   1.398837   2.499330   0.000000
     5  N    1.396010   2.917705   1.382859   2.999945   0.000000
     6  H    3.591283   2.149202   2.837016   1.086705   3.625003
     7  H    2.627386   3.216233   1.086825   2.622716   2.143255
     8  H    2.670359   1.087186   3.749478   2.193792   3.582579
     9  H    3.332373   3.740627   1.087588   2.921889   2.147942
    10  H    1.090903   2.557866   2.576580   3.110624   2.123403
    11  H    3.654474   2.143019   2.763821   1.087281   3.300567
    12  F    2.926758   1.354231   3.840002   2.364723   3.392159
    13  C    1.499537   3.140112   3.754524   4.163082   2.538648
    14  H    2.129562   3.310731   4.473455   4.505951   3.422150
    15  H    2.163286   4.175217   4.189242   5.075334   2.882305
    16  H    2.161370   3.130814   4.114909   4.206772   2.886773
    17  C    2.430911   3.502580   2.399923   3.621154   1.456183
    18  H    3.357012   4.331676   2.584648   4.144103   2.108242
    19  H    2.760657   3.043867   2.829611   3.216192   2.114606
    20  H    2.717634   4.156080   3.316499   4.536717   2.113259
                    6          7          8          9         10
     6  H    0.000000
     7  H    2.545186   0.000000
     8  H    2.529490   3.664896   0.000000
     9  H    3.262080   1.863832   4.581628   0.000000
    10  H    3.353803   2.377943   2.506441   3.660106   0.000000
    11  H    1.875480   3.176278   3.101357   2.797879   3.969320
    12  F    3.311886   4.293701   2.015485   4.377983   3.473256
    13  C    4.850035   4.121411   3.249263   4.639773   2.206724
    14  H    5.067143   4.632551   3.055492   5.442290   2.379842
    15  H    5.730478   4.579645   4.303422   5.023355   2.797088
    16  H    5.065655   4.671551   3.420738   4.843710   3.049261
    17  C    4.483657   3.404556   4.354438   2.609885   3.411015
    18  H    4.925712   3.647095   5.249048   2.357527   4.224156
    19  H    4.221655   3.811687   4.000509   2.970409   3.746303
    20  H    5.411035   4.229451   4.874212   3.621312   3.758507
                   11         12         13         14         15
    11  H    0.000000
    12  F    2.575615   0.000000
    13  C    4.707520   3.155180   0.000000
    14  H    5.202134   3.402625   1.096310   0.000000
    15  H    5.570553   4.189855   1.099061   1.771902   0.000000
    16  H    4.551688   2.678610   1.097125   1.768590   1.785373
    17  C    3.523201   3.432189   2.941938   3.986635   3.175482
    18  H    3.854979   4.319390   3.990954   5.045137   4.094962
    19  H    2.941939   2.664053   3.161075   4.093547   3.663386
    20  H    4.516116   3.912600   2.683773   3.775075   2.611300
                   16         17         18         19         20
    16  H    0.000000
    17  C    2.783127   0.000000
    18  H    3.860697   1.096494   0.000000
    19  H    2.691575   1.097460   1.781776   0.000000
    20  H    2.454305   1.096046   1.759441   1.783215   0.000000
 Stoichiometry    C6H12FN
 Framework group  C1[X(C6H12FN)]
 Deg. of freedom    54
 Full point group                 C1      NOp   1
 Largest Abelian subgroup         C1      NOp   1
 Largest concise Abelian subgroup C1      NOp   1
                         Standard orientation:                         
 ---------------------------------------------------------------------
 Center     Atomic      Atomic             Coordinates (Angstroms)
 Number     Number       Type             X           Y           Z
 ---------------------------------------------------------------------
      1          6           0       -0.724482    0.450397   -0.847476
      2          6           0        1.570096    0.424301   -0.244335
      3          6           0       -0.427652   -1.855197   -0.511250
      4          6           0        1.872170   -0.939328   -0.166787
      5          7           0       -1.118704   -0.706276   -0.172539
      6          1           0        2.330458   -1.429596   -1.021500
      7          1           0       -0.094856   -2.006085   -1.534806
      8          1           0        1.866002    1.056244   -1.078038
      9          1           0       -0.427131   -2.712879    0.157502
     10          1           0       -0.394158    0.327571   -1.879886
     11          1           0        1.953517   -1.398440    0.815445
     12          9           0        1.516283    1.138205    0.905181
     13          6           0       -1.237409    1.810835   -0.480427
     14          1           0       -0.794461    2.557161   -1.150271
     15          1           0       -2.329550    1.876716   -0.584467
     16          1           0       -0.963376    2.085367    0.545838
     17          6           0       -1.443657   -0.566653    1.240040
     18          1           0       -1.808816   -1.517055    1.647095
     19          1           0       -0.564415   -0.253230    1.817203
     20          1           0       -2.243232    0.168178    1.388432
 ---------------------------------------------------------------------
 Rotational constants (GHZ):           2.1877148           1.7781142           1.3331929
 Standard basis: STO-3G (5D, 7F)
 There are    52 symmetry adapted cartesian basis functions of A   symmetry.
 There are    52 symmetry adapted basis functions of A   symmetry.
    52 basis functions,   156 primitive gaussians,    52 cartesian basis functions
    32 alpha electrons       32 beta electrons
       nuclear repulsion energy       400.3657101774 Hartrees.
 NAtoms=   20 NActive=   20 NUniq=   20 SFac= 1.00D+00 NAtFMM=   60 NAOKFM=F Big=F
 Integral buffers will be    131072 words long.
 Raffenetti 1 integral format.
 Two-electron integral symmetry is turned on.
 External calculation of energy, first and second derivatives.
 Running external command "~/scripts/MiMe -H 'hf 6-31g(d)' -EF 'wb97xd def2svp' -c 12 -m 48GB R"
         input file       "/local/jobs/1157664/Gau-2008599.EIn"
         output file      "/local/jobs/1157664/Gau-2008599.EOu"
         message file     "/local/jobs/1157664/Gau-2008599.EMs"
         fchk file        "/local/jobs/1157664/Gau-2008599.EFC"
         mat. el file     "/local/jobs/1157664/Gau-2008599.EUF"
 Read checkpoint file Gau-2008599_H.chk type G16
 Write formatted file Gau-2008599_H.fchk

deriv: 2

spelevel: wb97xd def2svp
gradlevel: wb97xd def2svp
hesslevel: hf 6-31g(d)

runspe: False
runforce: True
runfreq: True

Running Gaussian ...

Parsing files ...
SPE file: Gau-2008599_F.out
FORCE file: Gau-2008599_F.out
HESS file: Gau-2008599_H.out

 ExternalExternalExternalExternalExternalExternalExternalExternalExternalExternal
 Output from external command:
 "~/scripts/MiMe -H 'hf 6-31g(d)' -EF 'wb97xd def2svp' -c 12 -m 48GB R /local/jobs/1157664/Gau-2008599.EIn /local/jobs/1157664/Gau-2008599.EOu /local/jobs/1157664/Gau-2008599.EMs /local/jobs/1157664/Gau-2008599.EFC /local/jobs/1157664/Gau-2008599.EUF"
  
 --------------------------------------------------
 Force calculation at wb97xd def2svp
 Hessian calculation at hf 6-31g(d)
 ExternalExternalExternalExternalExternalExternalExternalExternalExternalExternal

 Recovered energy= -389.916650758     dipole=     -1.601200000000     -0.555400000000     -0.293500000000
 Energy=    -389.916651     NIter=   0.
 Dipole moment=      -1.601200      -0.555400      -0.293500
 ***** Axes restored to original set *****
 -------------------------------------------------------------------
 Center     Atomic                   Forces (Hartrees/Bohr)
 Number     Number              X              Y              Z
 -------------------------------------------------------------------
      1        6          -0.007026467    0.004524623    0.015264929
      2        6           0.002806853    0.023902499    0.001856645
      3        6           0.001412449   -0.017305467    0.009375207
      4        6           0.023764419   -0.020663069   -0.002576421
      5        7          -0.053282611   -0.002303726   -0.021070090
      6        1           0.000814370    0.002739500   -0.001600416
      7        1           0.006179750   -0.002239417   -0.002158130
      8        1          -0.000363160   -0.001027898   -0.004948158
      9        1           0.008158642    0.000608040    0.001109837
     10        1           0.004877813    0.008043305   -0.000232685
     11        1          -0.002823512    0.001336905    0.001751737
     12        9           0.005412671   -0.001134436    0.003881216
     13        6           0.002085498    0.008763703   -0.000005953
     14        1          -0.000812090   -0.000355900   -0.000825647
     15        1           0.004467105   -0.003106451    0.000468051
     16        1          -0.000271233   -0.001607639    0.002569444
     17        6           0.008195484    0.001159958    0.003244517
     18        1          -0.000824633    0.002131488   -0.002792158
     19        1          -0.003039704   -0.001670906   -0.001429993
     20        1           0.000268355   -0.001795114   -0.001881934
 -------------------------------------------------------------------
 Cartesian Forces:  Max     0.053282611 RMS     0.010079391
 FormGI is forming the generalized inverse of G from B-inverse, IUseBI=4.

 GradGradGradGradGradGradGradGradGradGradGradGradGradGradGradGradGradGrad
 Berny optimization.
 Internal  Forces:  Max     0.030703596 RMS     0.005040198
 Search for a saddle point.
 Step number   3 out of a maximum of   50
 All quantities printed in internal units (Hartrees-Bohrs-Radians)
 Swapping is turned off.
 Second derivative matrix not updated -- analytic derivatives used.
 ITU=  0  0  0
     Eigenvalues ---   -0.03797   0.00315   0.00621   0.00634   0.00808
     Eigenvalues ---    0.01005   0.01406   0.01501   0.01583   0.01810
     Eigenvalues ---    0.01998   0.02247   0.02650   0.03143   0.03848
     Eigenvalues ---    0.04518   0.05121   0.05732   0.05879   0.05957
     Eigenvalues ---    0.06321   0.06356   0.07589   0.07968   0.08012
     Eigenvalues ---    0.08519   0.09629   0.11975   0.15537   0.15888
     Eigenvalues ---    0.16177   0.18377   0.19727   0.21617   0.21932
     Eigenvalues ---    0.22581   0.31526   0.33204   0.33418   0.34007
     Eigenvalues ---    0.34571   0.34752   0.34951   0.35374   0.35729
     Eigenvalues ---    0.36102   0.36576   0.37352   0.37716   0.37869
     Eigenvalues ---    0.38527   0.40756   0.43018   0.46228
 Eigenvectors required to have negative eigenvalues:
                          R1        R8        D33       D51       D35
   1                   -0.55463  -0.50481  -0.17736  -0.17452   0.16226
                          R16       D12       D39       D31       R15
   1                   -0.15466   0.14522  -0.12934  -0.12610  -0.12344
 RFO step:  Lambda0=1.220836743D-03 Lambda=-1.79789107D-02.
 Linear search not attempted -- option 19 set.
 Maximum step size (   0.100) exceeded in Quadratic search.
    -- Step size scaled by   0.380
 Iteration  1 RMS(Cart)=  0.01415781 RMS(Int)=  0.00030640
 Iteration  2 RMS(Cart)=  0.00037252 RMS(Int)=  0.00018847
 Iteration  3 RMS(Cart)=  0.00000010 RMS(Int)=  0.00018847
 Variable       Old X    -DE/DX   Delta X   Delta X   Delta X     New X
                                 (Linear)    (Quad)   (Total)
    R1        4.48369  -0.01416   0.00000  -0.00346  -0.00348   4.48021
    R2        2.63808  -0.02752   0.00000  -0.03601  -0.03574   2.60234
    R3        2.06151  -0.00081   0.00000  -0.00015  -0.00012   2.06139
    R4        2.83371  -0.00049   0.00000  -0.00188  -0.00188   2.83183
    R5        2.64342  -0.02150   0.00000  -0.02997  -0.03027   2.61315
    R6        2.05448   0.00480   0.00000   0.00354   0.00347   2.05795
    R7        2.55913   0.00433   0.00000   0.00401   0.00401   2.56314
    R8        4.72305  -0.01189   0.00000   0.00110   0.00111   4.72416
    R9        2.61322  -0.03070   0.00000  -0.03370  -0.03345   2.57977
   R10        2.05380  -0.00130   0.00000  -0.00002  -0.00001   2.05379
   R11        2.05524   0.00069   0.00000  -0.00006  -0.00006   2.05519
   R12        2.05357   0.00332   0.00000   0.00231   0.00226   2.05583
   R13        2.05466   0.00242   0.00000   0.00250   0.00250   2.05717
   R14        2.75179  -0.00166   0.00000   0.00280   0.00280   2.75458
   R15        4.80970  -0.00116   0.00000   0.00307   0.00302   4.81272
   R16        4.73649  -0.00218   0.00000   0.00509   0.00507   4.74156
   R17        2.07173   0.00105   0.00000   0.00153   0.00153   2.07326
   R18        2.07693   0.00433   0.00000   0.00444   0.00444   2.08136
   R19        2.07327   0.00291   0.00000   0.00298   0.00298   2.07624
   R20        2.07207   0.00059   0.00000  -0.00055  -0.00055   2.07152
   R21        2.07390   0.00220   0.00000   0.00127   0.00127   2.07517
   R22        2.07123   0.00108   0.00000  -0.00005  -0.00005   2.07118
    A1        1.71235  -0.00275   0.00000  -0.02357  -0.02331   1.68905
    A2        1.51727   0.00364   0.00000   0.01188   0.01181   1.52908
    A3        1.85309   0.00055   0.00000   0.00495   0.00467   1.85775
    A4        2.03731  -0.00471   0.00000  -0.01165  -0.01172   2.02559
    A5        2.13739   0.00139   0.00000   0.00467   0.00470   2.14209
    A6        2.02347   0.00260   0.00000   0.01004   0.01001   2.03348
    A7        1.80663  -0.00162   0.00000  -0.00213  -0.00221   1.80442
    A8        1.63273   0.00127   0.00000  -0.01103  -0.01094   1.62179
[...]
 65,0.01962400,0.01078198,0.00518130,-0.00028979,0.00250365,-0.00469081
 ,-0.00255896,0.00120294,0.00076405,0.00027951,-0.00014698,0.04501761,-
 0.00088245,0.00123644,-0.00021572,-0.02047327,-0.18994328,-0.14306804,
 -0.00168852,0.00025254,-0.00051477,-0.00479052,-0.00617399,-0.02479649
 ,0.00126109,-0.00177481,0.00010179,-0.00046691,0.00021913,0.00092063,0
 .00017710,0.00003434,-0.00004047,0.02034054,0.18737454,0.00401173,0.00
 261575,0.00202877,-0.03534923,-0.13362986,-0.22179345,0.00102106,0.002
 36027,0.00000529,-0.00140802,-0.00230802,0.00553456,-0.00046663,-0.002
 17183,-0.00089950,0.00195397,-0.00009427,0.00041407,-0.00001770,-0.000
 03650,-0.00002032,0.04134499,0.13993752,0.24949529,-0.00368867,-0.0099
 1363,-0.00723728,0.00332200,-0.00210112,-0.00001096,-0.02991745,-0.045
 41569,-0.05219098,0.00093077,0.00113134,-0.00259070,-0.00721593,0.0361
 0665,0.01754913,-0.00080846,-0.00032185,0.00014318,-0.00182060,-0.0063
 0079,-0.00129212,-0.00042755,0.00006697,0.00025396,0.03921140,0.003554
 10,-0.00354048,0.00383413,0.00079754,-0.00033998,0.00008732,-0.0162584
 8,-0.23773020,-0.13398948,-0.00008061,-0.00008929,-0.00065979,-0.00990
 436,-0.02393361,-0.01825403,-0.00030478,-0.00002703,0.00011103,-0.0001
 4677,0.00838994,0.00475128,-0.00008020,0.00003518,0.00004888,0.0234403
 3,0.25706721,-0.00060642,0.00585265,0.00135389,-0.00054600,0.00051905,
 -0.00027516,-0.04531639,-0.14012400,-0.17182728,-0.00029681,0.00061066
 ,0.00083892,0.00575899,0.00357899,0.00455621,0.00048397,0.00003455,0.0
 0009393,-0.00223837,-0.02260436,-0.01089333,0.00005817,0.00003445,-0.0
 0007982,0.04460904,0.14683452,0.17437514,-0.04530791,0.02892422,-0.062
 61319,-0.00786312,0.00348101,0.00708369,-0.00258114,0.00678497,-0.0002
 3009,-0.00080731,-0.00656164,-0.00036537,-0.00275827,-0.01394990,-0.01
 481596,0.00046225,0.00043952,0.00008672,0.00198811,0.00070249,0.000455
 87,0.00082563,-0.00033297,-0.00018508,-0.00119847,-0.00061958,0.000438
 54,0.05445622,0.02401317,-0.07610294,0.05431170,-0.00015453,-0.0001412
 1,0.00136273,-0.00282500,0.00242659,-0.00290469,0.00033731,-0.00029057
 ,-0.00055263,-0.00914660,-0.00021735,-0.03923373,0.00007628,0.00005281
 ,0.00004275,0.00000238,-0.00062060,0.00026449,-0.00031735,-0.00010268,
 0.00004506,0.00015661,0.00008216,0.00021657,-0.01938578,0.08530707,-0.
 08183083,0.03415996,-0.31600136,0.00202956,-0.00112202,-0.00216120,0.0
 0033244,-0.00017924,0.00045113,0.00024676,0.00174025,0.00057589,-0.004
 78160,0.00780855,-0.02008523,0.00009258,-0.00012721,0.00001342,0.00049
 739,-0.00063666,0.00079821,0.00018187,0.00050728,0.00067369,-0.0002089
 3,-0.00024834,0.00065144,0.08314479,-0.03890157,0.33445853,-0.00547727
 ,0.00049087,0.00037094,0.01189171,-0.00292049,0.00591303,-0.00913108,-
 0.00272803,0.00442428,-0.03955511,0.03302849,0.01451340,0.00427591,0.0
 0124483,0.00077943,0.00266026,-0.00846194,-0.01066393,0.00000920,0.000
 02585,-0.00011590,0.00547685,0.00184309,-0.00175096,0.00007135,-0.0001
 9245,-0.00027546,0.00074733,0.00010325,-0.00033994,0.03801924,-0.00187
 038,-0.00022400,-0.00001154,0.00220167,-0.01313779,-0.03404780,-0.0034
 5469,-0.00047764,0.00232798,0.02445506,-0.12332980,-0.11447907,0.00220
 521,0.00030206,0.00025246,-0.00335810,0.01000211,0.01337027,-0.0000129
 7,0.00002983,-0.00003028,0.00486726,-0.00443966,0.00018928,0.00001083,
 0.00007383,-0.00015981,0.00027204,-0.00000270,-0.00006197,-0.02078147,
 0.12772550,0.00169041,0.00220082,0.00059716,-0.00361384,0.00340283,0.0
 0034956,-0.00145308,0.00224281,-0.00028174,0.01311706,-0.12295364,-0.2
 8776328,0.00016955,-0.00354413,-0.00031502,0.00304406,-0.01218350,-0.0
 1578717,0.00012118,-0.00000418,0.00005156,-0.00087666,0.00021389,0.001
 12560,0.00072933,0.00031546,0.00003026,-0.00040869,-0.00005431,0.00023
 447,-0.01421947,0.13122950,0.29893406,-0.01293490,-0.00712653,0.007666
 49,-0.05267477,0.02553725,-0.04843037,-0.00086597,-0.00595960,0.000081
 82,0.00067352,0.01874316,-0.02094038,0.00789476,0.01085585,0.00258794,
 0.00918918,0.00667362,-0.00176207,-0.00003814,0.00006742,0.00049381,-0
 .00081402,0.00591595,-0.00925072,-0.00084904,-0.00019357,0.00031276,-0
 .00061765,-0.00048571,0.00019427,-0.00720562,-0.00411286,0.00184500,0.
 06124602,0.00097355,0.00343867,0.00813464,0.03844529,-0.14926091,0.093
 46111,-0.00673199,0.00261882,-0.00074996,0.01735218,-0.01667792,0.0574
 9529,0.00235429,-0.00723156,-0.00263356,0.00219176,-0.00669123,-0.0010
 7608,0.00114092,0.00043394,-0.00069705,-0.00229357,0.01306497,-0.00711
 186,0.00034527,0.00007384,-0.00028350,-0.00170381,-0.00001581,0.000472
 06,-0.00192566,0.00335869,-0.00053874,-0.04721052,0.15864505,0.0024517
 4,-0.00409582,-0.01317340,-0.06639077,0.10395668,-0.25556902,0.0145829
 5,-0.00160883,0.00156110,-0.00956086,0.00299398,-0.01202885,-0.0027816
 0,0.01358671,0.00341387,-0.00022729,0.00058487,0.00180945,-0.00194015,
 -0.00084382,0.00116480,-0.00673232,0.02676042,-0.03639947,-0.00037860,
 0.00004287,0.00044686,0.00172579,0.00002598,-0.00001949,0.00193732,0.0
 0176198,0.00240928,0.06658071,-0.14462493,0.30686366,-0.09829795,0.085
 56002,-0.03096788,-0.00620653,0.00451321,-0.00068154,-0.00627755,0.010
 54278,-0.00401063,0.00067669,-0.00007950,0.00078368,0.00318775,-0.0285
 4764,0.00606555,0.00044757,0.00014611,-0.00008325,-0.00086575,-0.00025
 841,-0.00053766,0.00025850,-0.00035765,-0.00023494,0.00497539,0.000912
 54,-0.00198275,-0.00141287,0.00310983,0.00159361,-0.00040238,-0.000092
 43,-0.00018217,0.00077804,0.00038934,-0.00033765,0.56207623,0.07106879
 ,-0.20889862,0.04632922,0.00338143,0.00166549,-0.00423684,-0.01125149,
 0.01111891,-0.00311349,0.00079497,0.00144285,0.00016290,0.01775849,-0.
 04794042,-0.00121073,-0.00006039,0.00009277,0.00026415,0.00099455,0.00
 026928,-0.00024912,-0.00098342,-0.00001432,0.00003635,0.00290735,0.000
 11352,-0.00048707,0.00066009,-0.00122185,-0.00141589,-0.00025319,-0.00
 004934,-0.00029602,0.00038765,-0.00260376,0.00409624,0.00834607,0.5766
 8325,-0.03778847,0.03803385,-0.11599437,0.00148697,-0.00303254,0.00347
 219,-0.00202060,-0.00439743,-0.00400007,0.00030598,0.00104766,-0.00074
 273,0.01620333,-0.01842419,0.01015175,0.00000061,-0.00004229,-0.000016
 49,0.00063568,-0.00007970,0.00073781,-0.00005509,0.00022242,-0.0001860
 8,-0.00123069,-0.00190469,0.00149572,-0.01336857,0.02597768,-0.0022590
 5,-0.00010021,-0.00016547,0.00014470,-0.00129742,0.00203872,-0.0024930
 6,0.00905165,0.01399760,0.60866520,0.00414043,0.01140472,0.01266099,0.
 00046789,0.00022089,0.00021269,0.00071345,-0.00020453,0.00063690,-0.00
 005110,-0.00000222,-0.00010564,-0.00129959,0.00441041,-0.00115930,-0.0
 0000233,0.00001218,0.00000775,-0.00000997,0.00001225,0.00000198,-0.000
 21063,-0.00004527,-0.00010660,-0.00021919,0.00019523,-0.00003510,0.000
 66309,-0.00050030,0.00017909,-0.00002044,-0.00003695,-0.00000143,-0.00
 010676,-0.00017905,-0.00007696,-0.08162989,-0.05295503,-0.05060642,0.0
 8419423,-0.01084466,-0.01989742,-0.02527628,-0.00083692,0.00000912,-0.
 00003278,-0.00040615,0.00000557,-0.00150753,0.00007697,-0.00037841,0.0
 0016593,0.00348995,-0.00710578,0.00332778,0.00009066,-0.00001220,-0.00
 002724,-0.00010166,-0.00009516,0.00012613,0.00053138,0.00007253,0.0000
 1657,0.00043315,-0.00037966,0.00008479,-0.00041350,0.00111292,0.000616
 95,-0.00000242,0.00005069,0.00002383,0.00017287,0.00025614,-0.00011128
 ,-0.04957185,-0.18396782,-0.11478998,0.05439066,0.20081136,0.00302677,
 0.00835327,0.00611986,-0.00014402,-0.00021527,-0.00029077,0.00024606,-
 0.00020600,0.00046166,-0.00001996,-0.00001667,0.00017064,-0.00093409,0
 .00372336,0.00056424,-0.00000135,-0.00001254,-0.00000630,-0.00000786,-
 0.00002153,0.00000243,0.00024145,-0.00005113,0.00012878,-0.00017650,0.
 00007275,0.00003059,0.00059315,-0.00010630,0.00105604,-0.00003445,0.00
 004500,0.00001749,0.00041481,0.00026746,0.00008093,-0.04917191,-0.1196
 2964,-0.17304953,0.05724686,0.12980910,0.18467855,-0.00941949,0.010609
 82,-0.00038057,0.00126377,0.00027135,-0.00098851,-0.00380389,0.0043584
 4,0.00061129,0.00031109,0.00079999,0.00026348,0.00232840,-0.00740226,-
 0.00333491,0.00005742,0.00007065,0.00006624,0.00023785,-0.00000512,-0.
 00008854,0.00001107,-0.00023186,-0.00006965,0.00093316,0.00029784,-0.0
 0042075,-0.00167376,0.00070971,0.00048053,-0.00023226,-0.00002322,-0.0
 0014778,0.00017505,-0.00026661,0.00047520,-0.29203611,-0.01503852,0.00
 670990,-0.01015784,-0.00196837,-0.00027083,0.32374406,0.03232863,-0.00
 602021,-0.00310234,-0.00108377,-0.00092584,0.00214585,0.00613976,-0.00
 697451,0.00088319,-0.00077902,-0.00161814,-0.00010724,-0.00179617,0.01
 257513,0.00160903,0.00002894,-0.00002170,-0.00013195,-0.00048079,-0.00
 009225,0.00028868,0.00055467,0.00020171,0.00002184,-0.00153579,-0.0004
 3681,0.00055611,0.00082453,-0.00077069,0.00003049,0.00028557,0.0000852
 8,0.00013628,-0.00072308,0.00135651,-0.00139008,-0.00871194,-0.0597587
 5,0.00016610,-0.02585066,-0.00056277,0.00195353,0.00993734,0.06384211,
 -0.00981564,0.00165394,0.00159769,0.00048534,0.00110395,-0.00156726,-0
 .00104713,0.00119531,0.00016118,-0.00000964,0.00010760,0.00028828,0.00
 090701,-0.00308674,-0.00105012,0.00000654,-0.00000468,0.00003037,-0.00
 003245,-0.00003367,-0.00009773,0.00004233,-0.00012367,-0.00001854,0.00
 036308,0.00006610,-0.00013254,-0.00020217,0.00046542,-0.00019343,-0.00
 006873,0.00002164,-0.00004518,0.00066544,-0.00109819,0.00120455,0.0044
 3533,-0.00001991,-0.06153189,-0.02563311,-0.00042134,0.00138873,-0.004
 47102,-0.00183082,0.05837017,0.00442012,0.00472506,-0.01798754,-0.0003
 3216,0.00074195,-0.00185029,-0.00101344,-0.00000780,-0.00020720,0.0004
 1018,0.00056103,0.00041797,0.00089060,-0.00082376,0.00007361,0.0000396
 1,-0.00010836,0.00002730,0.00030079,0.00006442,0.00002849,-0.00002981,
 -0.00014713,0.00014196,-0.00017824,-0.00010093,0.00014971,-0.00105219,
 0.00315772,-0.00069409,-0.00011486,-0.00002228,-0.00003610,-0.00059999
 ,-0.00031068,0.00103465,-0.08311316,-0.02371918,0.06951485,0.00359454,
 0.00470314,-0.01078941,-0.01111963,-0.01007368,0.03435484,0.08745228,-
 0.00431614,-0.01106312,0.02965267,-0.00164727,-0.00020704,0.00265666,0
 .00388185,-0.00251323,0.00026190,-0.00051622,-0.00141926,-0.00008203,-
 0.00236154,0.00494628,0.00071806,0.00013494,0.00006372,-0.00015746,-0.
 00095611,-0.00020907,-0.00003524,0.00029927,0.00011914,-0.00012245,0.0
 0022770,0.00013300,-0.00019917,0.00088240,-0.00458537,0.00110737,0.000
 20401,0.00000683,0.00002896,-0.00107039,0.00112562,-0.00194723,-0.0225
 3727,-0.08346188,0.06565459,0.00921108,0.00969911,-0.02344830,-0.00203
 441,-0.00079402,0.00218013,0.02127538,0.09021096,-0.00235055,0.0064666
 4,-0.00530102,0.00050373,0.00136593,-0.00232826,-0.00127846,0.00140337
 ,0.00017551,0.00005861,0.00005284,0.00006216,-0.00023589,-0.00314089,-
 0.00100628,-0.00004180,-0.00001399,0.00009475,0.00044292,0.00006440,-0
 .00005108,-0.00028074,0.00000877,-0.00001159,0.00002247,0.00008273,0.0
 0009073,0.00092646,0.00193094,0.00041472,0.00001750,0.00002558,-0.0000
 2849,0.00200499,-0.00225741,0.00172680,0.06724063,0.06619397,-0.263981
 63,0.00709074,0.00671555,-0.02077727,0.00119614,-0.00091621,0.00104798
 ,-0.07489990,-0.07568958,0.29025609,-0.00152245,-0.00594137,-0.0053631
 2,0.00338248,-0.00262787,-0.00151438,-0.01070899,0.00802560,-0.0201123
 1,0.00171759,0.00377815,0.00016847,-0.10266919,0.01243095,-0.04166345,
 -0.00008344,-0.00006320,0.00004756,0.00587872,0.00267124,-0.00242940,-
 0.00038668,-0.00007765,0.00006143,-0.00358983,-0.00238440,0.00084315,0
 .00574259,0.00185821,-0.00067538,-0.00070734,-0.00020361,0.00010056,-0
 .00057212,0.00001846,0.00045426,-0.00229391,-0.00292630,0.00184139,-0.
 00082078,0.00025091,-0.00061200,-0.00158004,0.00155848,0.00026171,0.00
 102139,-0.00067365,-0.00112895,0.62714621,-0.01214304,0.01024932,-0.03
 169321,0.00071794,-0.00078709,-0.00269853,0.00851233,0.00022555,0.0347
 2224,0.00058404,0.00098776,0.00004425,0.01406435,-0.12540166,0.0075878
 0,-0.00021397,-0.00000446,0.00008833,0.00454713,-0.00404436,0.00019810
 ,-0.00013610,-0.00007379,0.00016076,0.00007250,-0.00072903,0.00274402,
 -0.00007311,-0.00524890,-0.00400275,-0.00026689,0.00016833,-0.00015462
 ,0.00033679,0.00017697,0.00170437,-0.00166608,-0.00266511,-0.00232348,
 0.00005318,0.00026510,-0.00011866,0.00007338,-0.00005480,-0.00006237,0
 .00012488,-0.00112159,-0.00103556,-0.00514360,0.67861673,-0.00994045,-
 0.01018347,-0.02619029,0.00526635,-0.00463703,0.00434034,-0.01305073,0
 .01407263,-0.01332472,0.00267111,0.00462470,-0.00004660,-0.04876945,0.
 01082732,-0.22921254,0.00023020,-0.00008156,-0.00010100,-0.00118607,-0
 .00263335,0.00218419,-0.00044825,0.00008271,-0.00017892,0.00221309,-0.
 00312807,-0.00099917,-0.00111996,-0.00097212,0.00216559,-0.00036933,-0
 .00058817,0.00028416,-0.00365972,-0.00047077,-0.00452477,-0.00040546,-
 0.00047576,0.00024615,-0.00046765,0.00131306,-0.00090804,-0.00025966,0
 .00074802,0.00059745,0.00020189,0.00102004,-0.00043819,-0.01745349,0.0
 1978966,0.55685771,-0.00018146,0.00231082,-0.00235099,-0.00006016,0.00
 004260,0.00076735,-0.00012818,-0.00084594,-0.00096703,-0.00017540,-0.0
 0038281,-0.00010000,-0.00400063,-0.01362433,-0.00574397,0.00002757,0.0
 0005603,0.00002792,0.00003501,0.00021411,0.00025926,0.00007007,0.00004
 531,-0.00007932,0.00022940,0.00086461,-0.00109994,0.00059547,-0.000511
 61,-0.00052062,-0.00008925,-0.00003255,0.00001734,-0.00044080,-0.00005
 756,-0.00060687,-0.00033135,0.00057393,0.00035065,0.00022363,-0.000018
 21,0.00014017,0.00032537,-0.00014340,-0.00018341,-0.00021973,0.0001401
 9,0.00035512,-0.07034737,-0.03185048,-0.01305675,0.06712796,0.00094317
 ,0.00118423,0.00154823,0.00017891,-0.00011316,0.00055033,0.00118101,0.
 00018369,0.00254789,-0.00005326,-0.00010572,-0.00012135,0.00158977,0.0
 0319660,0.00321299,-0.00000311,0.00003933,0.00002199,0.00029677,0.0007
 2670,0.00011023,0.00003031,0.00001643,-0.00005716,0.00092032,0.0007375
 9,0.00217962,-0.00004543,0.00028853,-0.00000976,-0.00005081,-0.0000089
 5,-0.00000472,-0.00036814,0.00001090,-0.00043690,-0.00030554,-0.000541
 38,-0.00007976,-0.00004233,0.00000978,-0.00026580,-0.00021487,0.000098
 12,0.00005255,0.00014310,0.00034521,-0.00028254,-0.03776558,-0.2902664
 4,-0.09480247,0.03738250,0.31133458,-0.00134819,0.00657457,-0.00410963
 ,-0.00098519,0.00089854,-0.00046393,0.00041645,-0.00169807,0.00006858,
 -0.00038515,-0.00082674,0.00010218,-0.00676034,-0.04105742,-0.02232200
 ,0.00008757,0.00001968,0.00000074,0.00044322,0.00028220,0.00032398,0.0
 0013562,0.00000226,-0.00000937,-0.00072699,0.00121919,-0.00000727,-0.0
 0063627,-0.00167947,-0.00091730,0.00005515,0.00004054,-0.00004607,0.00
 052502,-0.00016605,0.00073352,-0.00011897,0.00054162,-0.00004728,0.000
 00312,-0.00013062,0.00023264,0.00002466,0.00014864,-0.00002136,-0.0000
 6629,-0.00022210,0.00023173,-0.01363178,-0.07856325,-0.09640776,0.0212
 6571,0.09683195,0.11145389,0.00061994,0.00033123,0.00010556,0.00033696
 ,0.00058069,-0.00115296,0.00018286,-0.00044527,-0.00142813,0.00032525,
 0.00023431,0.00038959,0.01320729,0.00999195,-0.01183834,0.00030767,0.0
 0004020,0.00006427,-0.00073278,-0.00003828,0.00014839,-0.00006506,-0.0
 0014618,0.00017507,0.00033519,0.00018875,-0.00003434,-0.00039739,0.000
 04021,0.00016917,-0.00036175,0.00003944,0.00011686,-0.00200793,-0.0021
 3284,0.00019375,-0.00026027,-0.00060229,0.00010092,0.00018633,0.000094
 14,-0.00031124,0.00007348,-0.00021450,0.00001436,0.00027779,0.00044474
 ,-0.00015911,-0.19234174,-0.08927433,0.09891419,-0.00111447,-0.0008614
 1,0.00039573,0.20105797,-0.00005560,-0.00113142,-0.00167365,-0.0001117
 4,0.00130731,-0.00069918,0.00054637,0.00027733,0.00038129,-0.00020629,
 -0.00008543,0.00028927,-0.00036865,-0.00054536,0.00429634,-0.00001438,
 -0.00012136,-0.00012982,0.00060854,0.00010178,0.00001787,0.00003359,-0
 .00012310,0.00013437,-0.00070382,-0.00005557,0.00050075,0.00003866,0.0
 0002061,0.00012303,0.00033348,-0.00007475,-0.00005892,-0.00121304,-0.0
 0192708,-0.00003595,0.00003009,0.00079068,-0.00074144,-0.00001711,0.00
 002595,0.00004787,-0.00001277,0.00009335,0.00029380,0.00016120,-0.0006
 3528,-0.00023531,-0.08782755,-0.12797049,0.06653414,-0.02301339,-0.013
 12377,0.01772296,0.09785895,0.13134530,0.00127589,0.00359847,0.0002898
 9,-0.00283078,0.00219663,-0.00233059,0.00446757,-0.00445670,-0.0015070
 7,-0.00098733,-0.00203523,0.00065761,0.01826247,0.02182062,-0.03351681
 ,0.00025092,0.00004304,0.00005111,-0.00186259,0.00018623,0.00025021,0.
 00030584,-0.00002727,0.00016642,0.00040317,0.00042547,-0.00000834,-0.0
 0114238,-0.00044205,0.00025114,-0.00002913,0.00020767,0.00006157,0.001
 53528,-0.00025398,0.00233365,0.00088903,0.00050819,-0.00055984,-0.0000
 7392,-0.00004244,0.00023086,0.00010477,-0.00030275,0.00028642,0.000230
 68,-0.00089447,0.00012307,0.09040544,0.06124539,-0.12993031,-0.0107399
 3,-0.00572689,0.01028351,-0.10118683,-0.07513514,0.15108298,0.00005551
 ,0.00145651,-0.00065411,-0.00030337,0.00044566,0.00055308,0.00127868,-
 0.00299978,-0.00158625,-0.00027095,-0.00049651,0.00008814,-0.00872993,
 0.00780911,-0.00336933,0.00006661,0.00001057,-0.00008277,-0.00017155,0
 .00039842,0.00000970,0.00002545,-0.00000968,-0.00004534,-0.00009524,0.
 00001518,0.00019802,0.00018938,-0.00023781,-0.00009069,0.00014550,-0.0
 0005001,-0.00001213,-0.00022886,-0.00039880,-0.00040332,0.00072755,0.0
 0091650,0.00026555,0.00034493,-0.00007009,0.00056434,0.00056227,-0.000
 26512,-0.00007270,-0.00063408,-0.00058858,0.00051610,-0.25726510,0.111
 68108,0.00069015,0.00845433,-0.00295537,0.00130690,-0.01962934,0.01393
 344,0.00072181,0.27547820,-0.00021334,-0.00019609,-0.00059137,-0.00004
 255,-0.00000178,0.00057546,0.00038726,0.00005182,0.00098871,-0.0000109
 0,-0.00008025,0.00000296,0.00202626,-0.00257192,0.00179845,0.00002918,
 -0.00000295,-0.00002417,0.00005310,0.00005577,0.00034850,0.00002956,0.
 00001867,-0.00003470,0.00047367,0.00055538,0.00011118,0.00007578,0.000
 02997,0.00013946,0.00002389,-0.00005853,-0.00000161,-0.00022714,-0.000
 15185,-0.00041925,-0.00142169,-0.00105351,-0.00115766,-0.00007714,0.00
 008094,-0.00018050,0.00006947,-0.00022171,-0.00045903,-0.00034412,-0.0
 0064000,-0.00073923,0.11504277,-0.13232203,-0.00103950,0.02885018,-0.0
 1401227,0.00006156,-0.01612954,0.01183130,-0.00091479,-0.12859471,0.13
 868903,0.00011716,0.00133053,0.00057134,-0.00108506,0.00072483,-0.0003
 2078,0.00011101,-0.00393250,-0.00476221,-0.00058207,-0.00107343,0.0001
 5761,-0.03860999,0.02594550,-0.00512495,0.00011596,0.00007357,0.000019
 87,-0.00009890,0.00146727,-0.00054029,0.00012534,0.00004541,0.00002459
 ,-0.00024269,0.00029266,0.00025923,0.00063271,0.00020356,-0.00010721,-
 0.00004353,0.00007221,0.00002706,0.00043233,0.00009277,0.00045959,-0.0
 0134466,-0.00099577,-0.00005150,0.00022599,0.00013979,-0.00013151,0.00
 050001,-0.00090637,-0.00031477,0.00035487,-0.00048234,-0.00029974,0.01
 040029,-0.00763250,-0.06441327,0.01226529,-0.00526842,0.00092123,0.015
 32309,-0.01163229,0.00178452,0.00140285,0.00153553,0.07184119\\-0.0000
 0068,-0.00000091,-0.00000137,0.00000085,-0.00000048,-0.00000144,0.0000
 0106,-0.00000046,0.00000108,-0.00000033,0.00000110,0.00000016,0.000000
 85,0.00000099,0.00000130,0.00000034,0.00000061,-0.00000053,0.00000015,
 0.00000071,0.00000128,0.00000103,0.00000068,-0.00000179,-0.00000086,-0
 .00000052,0.00000171,0.00000075,0.00000145,-0.00000005,-0.00000089,-0.
 00000070,-0.00000008,-0.00000054,-0.00000016,-0.00000169,0.00000052,0.
 00000127,0.00000154,0.00000074,0.00000102,-0.00000147,0.00000052,0.000
 00026,-0.00000060,-0.00000052,-0.00000189,-0.00000151,-0.00000106,0.00
 000093,0.00000074,0.00001084,-0.00000138,-0.00000210,-0.00000642,0.000
 01031,0.00000235,-0.00000636,-0.00001283,0.00000249\\\@
 The archive entry for this job was punched.


 AND ALL THIS SCIENCE I DON'T UNDERSTAND
 IT'S JUST MY JOB FIVE DAYS A WEEK

                           -- ELTON JOHN, "ROCKET MAN"
 Job cpu time:       0 days  2 hours 35 minutes 41.9 seconds.
 Elapsed time:       0 days  0 hours 24 minutes 48.2 seconds.
 File lengths (MBytes):  RWF=      6 Int=      0 D2E=      0 Chk=      2 Scr=      1
 Normal termination of Gaussian 16 at Tue Jan 16 21:55:07 2024.
