Unloading slurm/anatra/current
  ERROR: No such file or directory on
    '/cm/local/modulefiles/slurm/anatra/current'
environment: line 0: unalias: gv: not found
environment: line 0: unalias: sl: not found
 Entering Gaussian System, Link 0=g16
 Initial command:
 /apps/gaussian/g16/C.01/g16/l1.exe "/local/jobs/1157665/Gau-563525.inp" -scrdir="/local/jobs/1157665/"
 Entering Link 1 = /apps/gaussian/g16/C.01/g16/l1.exe PID=    563528.
  
 Copyright (c) 1988-2019, Gaussian, Inc.  All Rights Reserved.
  
 This is part of the Gaussian(R) 16 program.  It is based on
 the Gaussian(R) 09 system (copyright 2009, Gaussian, Inc.),
 the Gaussian(R) 03 system (copyright 2003, Gaussian, Inc.),
 the Gaussian(R) 98 system (copyright 1998, Gaussian, Inc.),
 the Gaussian(R) 94 system (copyright 1995, Gaussian, Inc.),
 the Gaussian 92(TM) system (copyright 1992, Gaussian, Inc.),
 the Gaussian 90(TM) system (copyright 1990, Gaussian, Inc.),
 the Gaussian 88(TM) system (copyright 1988, Gaussian, Inc.),
 the Gaussian 86(TM) system (copyright 1986, Carnegie Mellon
 University), and the Gaussian 82(TM) system (copyright 1983,
 Carnegie Mellon University). Gaussian is a federally registered
 trademark of Gaussian, Inc.
  
 This software contains proprietary and confidential information,
 including trade secrets, belonging to Gaussian, Inc.
  
 This software is provided under written license and may be
 used, copied, transmitted, or stored only in accord with that
 written license.
  
 The following legend is applicable only to US Government
 contracts under FAR:
  
                    RESTRICTED RIGHTS LEGEND
  
 Use, reproduction and disclosure by the US Government is
 subject to restrictions as set forth in subparagraphs (a)
 and (c) of the Commercial Computer Software - Restricted
 Rights clause in FAR 52.227-19.
  
 Gaussian, Inc.
 340 Quinnipiac St., Bldg. 40, Wallingford CT 06492
  
  
 ---------------------------------------------------------------
 Warning -- This program may not be used in any manner that
 competes with the business of Gaussian, Inc. or will provide
 assistance to any competitor of Gaussian, Inc.  The licensee
 of this program is prohibited from giving any competitor of
 Gaussian, Inc. access to this program.  By using this program,
 the user acknowledges that Gaussian, Inc. is engaged in the
 business of creating and licensing software in the field of
 computational chemistry and represents and warrants to the
 licensee that it is not a competitor of Gaussian, Inc. and that
 it will not use this program in any manner prohibited above.
 ---------------------------------------------------------------
  

 Cite this work as:
 Gaussian 16, Revision C.01,
 M. J. Frisch, G. W. Trucks, H. B. Schlegel, G. E. Scuseria, 
 M. A. Robb, J. R. Cheeseman, G. Scalmani, V. Barone, 
 G. A. Petersson, H. Nakatsuji, X. Li, M. Caricato, A. V. Marenich, 
 J. Bloino, B. G. Janesko, R. Gomperts, B. Mennucci, H. P. Hratchian, 
 J. V. Ortiz, A. F. Izmaylov, J. L. Sonnenberg, D. Williams-Young, 
 F. Ding, F. Lipparini, F. Egidi, J. Goings, B. Peng, A. Petrone, 
 T. Henderson, D. Ranasinghe, V. G. Zakrzewski, J. Gao, N. Rega, 
 G. Zheng, W. Liang, M. Hada, M. Ehara, K. Toyota, R. Fukuda, 
 J. Hasegawa, M. Ishida, T. Nakajima, Y. Honda, O. Kitao, H. Nakai, 
 T. Vreven, K. Throssell, J. A. Montgomery, Jr., J. E. Peralta, 
 F. Ogliaro, M. J. Bearpark, J. J. Heyd, E. N. Brothers, K. N. Kudin, 
 V. N. Staroverov, T. A. Keith, R. Kobayashi, J. Normand, 
 K. Raghavachari, A. P. Rendell, J. C. Burant, S. S. Iyengar, 
 J. Tomasi, M. Cossi, J. M. Millam, M. Klene, C. Adamo, R. Cammi, 
 J. W. Ochterski, R. L. Martin, K. Morokuma, O. Farkas, 
 J. B. Foresman, and D. J. Fox, Gaussian, Inc., Wallingford CT, 2019.
 
 ******************************************
 Gaussian 16:  ES64L-G16RevC.01  3-Jul-2019
                16-Jan-2024 
 ******************************************
 %nprocshared=12
 Will use up to   12 processors via shared memory.
 %mem=48GB
 ----------------------------------------------------------------------
 # external="~/scripts/MiMe -H 'hf 6-31g(d)' -EF 'wb97xd def2svp' -c 12
  -m 48GB" opt=(calcall,ts,noeigen,maxcycles=50,maxstep=10,nomicro)
 ----------------------------------------------------------------------
 1/5=1,6=50,8=10,10=4,11=1,18=20,26=1,38=1/1,3;
 2/9=110,12=2,17=6,18=5,40=1/2;
 3/11=9,25=1,30=1,41=9900000,43=2,71=2,140=1/1;
 4/20=17,22=2,24=3,113=1,114=1/2;
 6/7=2,8=2,9=2,10=2,18=1/1;
 7/25=1,44=-1/16;
 1/5=1,6=50,8=10,10=4,11=1,18=20,26=1/3(3);
 2/9=110/2;
 7/8=1,9=1,25=1,44=-1/16;
 99//99;
 2/9=110/2;
 3/11=9,25=1,30=1,41=9900000,43=2,71=2,140=1/1;
 4/16=2,20=17,22=2,24=3,113=1,114=1/2;
 7/25=1,44=-1/16;
 1/5=1,6=50,8=10,10=4,11=1,18=20,26=1/3(-4);
 2/9=110/2;
 6/7=2,8=2,9=2,10=2,18=1/1;
 7/8=1,9=1,25=1,44=-1/16;
 99//99;
 -----
 *****
 -----
 Symbolic Z-matrix:
 Charge =  0 Multiplicity = 1
 C                     1.926     0.1722   -0.005 
 C                     0.7332   -1.561     0.2678 
 C                     0.4112    1.2555    1.075 
 C                    -0.531    -1.0586    0.8293 
 N                     1.7025    0.7364    1.2998 
 H                     0.6664   -1.9557   -0.7531 
 H                     1.3297   -2.1646    0.9585 
 H                    -0.2593    1.6608    1.8195 
 H                    -0.6848   -1.0875    1.9035 
 O                     1.2051    0.8334   -1.0306 
 C                     0.2136    1.5119   -0.3666 
 O                    -0.6834    2.1731   -0.8537 
 C                    -1.7411   -0.9446   -0.0186 
 O                    -1.7938   -1.287    -1.187 
 O                    -2.7058   -0.3299    0.7041 
 C                    -3.864    -0.0087   -0.0696 
 H                    -4.6046    0.4407    0.5972 
 H                    -4.2985   -0.9112   -0.5123 
 H                    -3.6099    0.72     -0.8471 
 C                     3.2267   -0.349    -0.3333 
 N                     4.2764   -0.7867   -0.567 
 H                     2.014     0.283     2.1522 
 
 Add virtual bond connecting atoms C2         and C1         Dist= 4.01D+00.

 GradGradGradGradGradGradGradGradGradGradGradGradGradGradGradGradGradGrad
 Berny optimization.
 Initialization pass.
                           ----------------------------
                           !    Initial Parameters    !
                           ! (Angstroms and Degrees)  !
 --------------------------                            --------------------------
 ! Name  Definition              Value          Derivative Info.                !
 --------------------------------------------------------------------------------
 ! R1    R(1,2)                  2.1216         calculate D2E/DX2 analytically  !
 ! R2    R(1,5)                  1.439          calculate D2E/DX2 analytically  !
 ! R3    R(1,10)                 1.4173         calculate D2E/DX2 analytically  !
 ! R4    R(1,20)                 1.4392         calculate D2E/DX2 analytically  !
 ! R5    R(2,4)                  1.4717         calculate D2E/DX2 analytically  !
 ! R6    R(2,6)                  1.0966         calculate D2E/DX2 analytically  !
 ! R7    R(2,7)                  1.0942         calculate D2E/DX2 analytically  !
 ! R8    R(3,5)                  1.4098         calculate D2E/DX2 analytically  !
 ! R9    R(3,8)                  1.0808         calculate D2E/DX2 analytically  !
 ! R10   R(3,11)                 1.4775         calculate D2E/DX2 analytically  !
 ! R11   R(4,9)                  1.0855         calculate D2E/DX2 analytically  !
 ! R12   R(4,13)                 1.482          calculate D2E/DX2 analytically  !
 ! R13   R(5,22)                 1.0145         calculate D2E/DX2 analytically  !
 ! R14   R(10,11)                1.3727         calculate D2E/DX2 analytically  !
 ! R15   R(11,12)                1.2162         calculate D2E/DX2 analytically  !
 ! R16   R(13,14)                1.2187         calculate D2E/DX2 analytically  !
 ! R17   R(13,15)                1.3531         calculate D2E/DX2 analytically  !
 ! R18   R(15,16)                1.4294         calculate D2E/DX2 analytically  !
 ! R19   R(16,17)                1.0932         calculate D2E/DX2 analytically  !
 ! R20   R(16,18)                1.0951         calculate D2E/DX2 analytically  !
 ! R21   R(16,19)                1.0955         calculate D2E/DX2 analytically  !
 ! R22   R(20,21)                1.1611         calculate D2E/DX2 analytically  !
 ! A1    A(2,1,5)               96.6836         calculate D2E/DX2 analytically  !
 ! A2    A(2,1,10)             100.8474         calculate D2E/DX2 analytically  !
 ! A3    A(2,1,20)             103.9809         calculate D2E/DX2 analytically  !
 ! A4    A(5,1,10)             113.2177         calculate D2E/DX2 analytically  !
 ! A5    A(5,1,20)             119.2878         calculate D2E/DX2 analytically  !
 ! A6    A(10,1,20)            117.6183         calculate D2E/DX2 analytically  !
 ! A7    A(1,2,4)              104.6627         calculate D2E/DX2 analytically  !
 ! A8    A(1,2,6)              102.0394         calculate D2E/DX2 analytically  !
 ! A9    A(1,2,7)              103.0222         calculate D2E/DX2 analytically  !
 ! A10   A(4,2,6)              115.1979         calculate D2E/DX2 analytically  !
 ! A11   A(4,2,7)              114.5681         calculate D2E/DX2 analytically  !
 ! A12   A(6,2,7)              114.9823         calculate D2E/DX2 analytically  !
 ! A13   A(5,3,8)              126.6183         calculate D2E/DX2 analytically  !
 ! A14   A(5,3,11)             109.9978         calculate D2E/DX2 analytically  !
 ! A15   A(8,3,11)             121.6052         calculate D2E/DX2 analytically  !
 ! A16   A(2,4,9)              119.3514         calculate D2E/DX2 analytically  !
 ! A17   A(2,4,13)             120.623          calculate D2E/DX2 analytically  !
 ! A18   A(9,4,13)             116.9056         calculate D2E/DX2 analytically  !
 ! A19   A(1,5,3)               98.1661         calculate D2E/DX2 analytically  !
 ! A20   A(1,5,22)             122.6115         calculate D2E/DX2 analytically  !
 ! A21   A(3,5,22)             125.436          calculate D2E/DX2 analytically  !
 ! A22   A(1,10,11)            104.3563         calculate D2E/DX2 analytically  !
 ! A23   A(3,11,10)            106.8333         calculate D2E/DX2 analytically  !
 ! A24   A(3,11,12)            125.7168         calculate D2E/DX2 analytically  !
 ! A25   A(10,11,12)           127.4253         calculate D2E/DX2 analytically  !
 ! A26   A(4,13,14)            124.2103         calculate D2E/DX2 analytically  !
 ! A27   A(4,13,15)            108.1513         calculate D2E/DX2 analytically  !
 ! A28   A(14,13,15)           127.5095         calculate D2E/DX2 analytically  !
 ! A29   A(13,15,16)           112.9966         calculate D2E/DX2 analytically  !
 ! A30   A(15,16,17)           108.1285         calculate D2E/DX2 analytically  !
 ! A31   A(15,16,18)           110.7999         calculate D2E/DX2 analytically  !
 ! A32   A(15,16,19)           110.2239         calculate D2E/DX2 analytically  !
 ! A33   A(17,16,18)           108.4554         calculate D2E/DX2 analytically  !
 ! A34   A(17,16,19)           108.4572         calculate D2E/DX2 analytically  !
 ! A35   A(18,16,19)           110.6899         calculate D2E/DX2 analytically  !
 ! A36   L(1,20,21,7,-1)       178.6613         calculate D2E/DX2 analytically  !
 ! A37   L(1,20,21,7,-2)       181.2752         calculate D2E/DX2 analytically  !
 ! D1    D(5,1,2,4)             48.0218         calculate D2E/DX2 analytically  !
 ! D2    D(5,1,2,6)            168.405          calculate D2E/DX2 analytically  !
 ! D3    D(5,1,2,7)            -72.0859         calculate D2E/DX2 analytically  !
 ! D4    D(10,1,2,4)           -67.2301         calculate D2E/DX2 analytically  !
 ! D5    D(10,1,2,6)            53.1531         calculate D2E/DX2 analytically  !
 ! D6    D(10,1,2,7)           172.6621         calculate D2E/DX2 analytically  !
 ! D7    D(20,1,2,4)           170.4849         calculate D2E/DX2 analytically  !
 ! D8    D(20,1,2,6)           -69.1319         calculate D2E/DX2 analytically  !
 ! D9    D(20,1,2,7)            50.3772         calculate D2E/DX2 analytically  !
 ! D10   D(2,1,5,3)            -77.6549         calculate D2E/DX2 analytically  !
 ! D11   D(2,1,5,22)            64.2671         calculate D2E/DX2 analytically  !
 ! D12   D(10,1,5,3)            27.2044         calculate D2E/DX2 analytically  !
 ! D13   D(10,1,5,22)          169.1264         calculate D2E/DX2 analytically  !
 ! D14   D(20,1,5,3)           172.1858         calculate D2E/DX2 analytically  !
 ! D15   D(20,1,5,22)          -45.8922         calculate D2E/DX2 analytically  !
 ! D16   D(2,1,10,11)           83.2911         calculate D2E/DX2 analytically  !
 ! D17   D(5,1,10,11)          -18.8984         calculate D2E/DX2 analytically  !
 ! D18   D(20,1,10,11)        -164.5064         calculate D2E/DX2 analytically  !
 ! D19   D(1,2,4,9)            -97.1235         calculate D2E/DX2 analytically  !
 ! D20   D(1,2,4,13)           103.4561         calculate D2E/DX2 analytically  !
 ! D21   D(6,2,4,9)            151.6908         calculate D2E/DX2 analytically  !
 ! D22   D(6,2,4,13)            -7.7296         calculate D2E/DX2 analytically  !
 ! D23   D(7,2,4,9)             14.9451         calculate D2E/DX2 analytically  !
 ! D24   D(7,2,4,13)          -144.4754         calculate D2E/DX2 analytically  !
 ! D25   D(8,3,5,1)            170.3514         calculate D2E/DX2 analytically  !
 ! D26   D(8,3,5,22)            29.9653         calculate D2E/DX2 analytically  !
 ! D27   D(11,3,5,1)           -24.7896         calculate D2E/DX2 analytically  !
 ! D28   D(11,3,5,22)         -165.1757         calculate D2E/DX2 analytically  !
 ! D29   D(5,3,11,10)           15.7905         calculate D2E/DX2 analytically  !
 ! D30   D(5,3,11,12)         -165.9069         calculate D2E/DX2 analytically  !
 ! D31   D(8,3,11,10)         -178.4594         calculate D2E/DX2 analytically  !
 ! D32   D(8,3,11,12)           -0.1568         calculate D2E/DX2 analytically  !
 ! D33   D(2,4,13,14)            2.5317         calculate D2E/DX2 analytically  !
 ! D34   D(2,4,13,15)         -173.6078         calculate D2E/DX2 analytically  !
 ! D35   D(9,4,13,14)         -157.3735         calculate D2E/DX2 analytically  !
 ! D36   D(9,4,13,15)           26.4871         calculate D2E/DX2 analytically  !
 ! D37   D(1,10,11,3)            1.736          calculate D2E/DX2 analytically  !
 ! D38   D(1,10,11,12)        -176.5286         calculate D2E/DX2 analytically  !
 ! D39   D(4,13,15,16)         172.3219         calculate D2E/DX2 analytically  !
 ! D40   D(14,13,15,16)         -3.6532         calculate D2E/DX2 analytically  !
 ! D41   D(13,15,16,17)        177.5006         calculate D2E/DX2 analytically  !
 ! D42   D(13,15,16,18)         58.77           calculate D2E/DX2 analytically  !
 ! D43   D(13,15,16,19)        -64.0987         calculate D2E/DX2 analytically  !
 --------------------------------------------------------------------------------
 Trust Radius=1.00D-01 FncErr=1.00D-07 GrdErr=1.00D-07 EigMax=2.50D+02 EigMin=1.00D-04
 Number of steps in this run=     50 maximum allowed number of steps=    132.
 Search for a saddle point of order  1.
 GradGradGradGradGradGradGradGradGradGradGradGradGradGradGradGradGradGrad

                          Input orientation:                          
 ---------------------------------------------------------------------
 Center     Atomic      Atomic             Coordinates (Angstroms)
 Number     Number       Type             X           Y           Z
 ---------------------------------------------------------------------
      1          6           0        1.926000    0.172200   -0.005000
      2          6           0        0.733200   -1.561000    0.267800
      3          6           0        0.411200    1.255500    1.075000
      4          6           0       -0.531000   -1.058600    0.829300
      5          7           0        1.702500    0.736400    1.299800
      6          1           0        0.666400   -1.955700   -0.753100
      7          1           0        1.329700   -2.164600    0.958500
      8          1           0       -0.259300    1.660800    1.819500
      9          1           0       -0.684800   -1.087500    1.903500
     10          8           0        1.205100    0.833400   -1.030600
     11          6           0        0.213600    1.511900   -0.366600
     12          8           0       -0.683400    2.173100   -0.853700
     13          6           0       -1.741100   -0.944600   -0.018600
     14          8           0       -1.793800   -1.287000   -1.187000
     15          8           0       -2.705800   -0.329900    0.704100
     16          6           0       -3.864000   -0.008700   -0.069600
     17          1           0       -4.604600    0.440700    0.597200
     18          1           0       -4.298500   -0.911200   -0.512300
     19          1           0       -3.609900    0.720000   -0.847100
     20          6           0        3.226700   -0.349000   -0.333300
     21          7           0        4.276400   -0.786700   -0.567000
     22          1           0        2.014000    0.283000    2.152200
 ---------------------------------------------------------------------
                    Distance matrix (angstroms):
                    1          2          3          4          5
     1  C    0.000000
     2  C    2.121597   0.000000
     3  C    2.152802   2.947529   0.000000
     4  C    2.871894   1.471696   2.510611   0.000000
     5  N    1.439019   2.698632   1.409771   2.903776   0.000000
     6  H    2.583448   1.096580   3.703901   2.177738   3.540523
     7  H    2.597025   1.094172   3.543205   2.168440   2.944701
     8  H    3.212517   3.711176   1.080795   2.906794   2.230081
     9  H    3.470662   2.215951   2.716114   1.085539   3.064354
    10  O    1.417299   2.764360   2.289541   3.170636   2.384865
    11  C    2.204056   3.180434   1.477497   2.931224   2.365399
    12  O    3.396007   4.148255   2.400005   3.646862   3.520538
    13  C    3.833412   2.565957   3.266312   1.481983   4.052446
    14  O    4.166929   2.928694   4.054994   2.390041   4.743673
    15  O    4.712589   3.678680   3.516639   2.297049   4.574381
    16  C    5.793185   4.863920   4.602787   3.608213   5.780688
    17  H    6.563800   5.710290   5.103963   4.346952   6.352999
    18  H    6.338415   5.133108   5.421751   4.001959   6.481535
    19  H    5.626314   5.030753   4.488928   3.931076   5.729838
    20  C    1.439184   2.836866   3.533379   3.996934   2.483605
    21  N    2.599945   3.721653   4.669745   5.013450   3.525583
    22  H    2.161835   2.931168   2.162194   3.166541   1.014490
                    6          7          8          9         10
     6  H    0.000000
     7  H    1.847480   0.000000
     8  H    4.533681   4.230831   0.000000
     9  H    3.104358   2.472120   2.782312   0.000000
    10  O    2.854169   3.600007   3.309400   3.983782   0.000000
    11  C    3.518332   4.064261   2.241615   3.566140   1.372709
    12  O    4.345005   5.113930   2.754689   4.270090   2.322180
    13  C    2.712539   3.445713   3.516028   2.197876   3.586854
    14  O    2.586119   3.889679   4.481435   3.289509   3.676134
    15  O    4.017262   4.440282   3.345499   2.469202   4.433688
    16  C    4.978203   5.716591   4.398840   3.894130   5.227660
    17  H    5.945543   6.491074   4.675927   4.405298   6.046202
    18  H    5.079291   5.950706   5.326125   4.350402   5.796713
    19  H    5.045290   5.998396   4.384334   4.403302   4.819830
    20  C    3.051697   2.926390   4.563556   4.566015   2.443596
    21  N    3.799118   3.592882   5.679631   5.550437   3.503217
    22  H    3.907502   2.807834   2.678976   3.037045   3.329786
                   11         12         13         14         15
    11  C    0.000000
    12  O    1.216166   0.000000
    13  C    3.158536   3.396494   0.000000
    14  O    3.540699   3.649160   1.218677   0.000000
    15  O    3.614073   3.575172   1.353070   2.307389   0.000000
    16  C    4.362024   3.935896   2.320606   2.677380   1.429408
    17  H    5.029059   4.525719   3.240046   3.750855   2.051997
    18  H    5.123640   4.764285   2.604832   2.621062   2.086680
    19  H    3.934099   3.267407   2.636232   2.727966   2.079882
    20  C    3.541586   4.681953   5.013264   5.178230   6.022551
    21  N    4.672266   5.782926   6.044500   6.122257   7.111644
    22  H    3.331064   4.459134   4.507788   5.302311   4.974852
                   16         17         18         19         20
    16  C    0.000000
    17  H    1.093193   0.000000
    18  H    1.095116   1.775478   0.000000
    19  H    1.095480   1.775793   1.801964   0.000000
    20  C    7.103757   7.925826   7.548294   6.938721   0.000000
    21  N    8.192607   9.040688   8.575978   8.033824   1.161063
    22  H    6.290657   6.800644   6.955094   6.388663   2.836860
                   21         22
    21  N    0.000000
    22  H    3.695505   0.000000
 Stoichiometry    C8H8N2O4
 Framework group  C1[X(C8H8N2O4)]
 Deg. of freedom    60
 Full point group                 C1      NOp   1
 Largest Abelian subgroup         C1      NOp   1
 Largest concise Abelian subgroup C1      NOp   1
                         Standard orientation:                         
 ---------------------------------------------------------------------
 Center     Atomic      Atomic             Coordinates (Angstroms)
 Number     Number       Type             X           Y           Z
 ---------------------------------------------------------------------
      1          6           0        1.901595    0.103954    0.015435
      2          6           0        0.662124   -1.607415    0.205441
      3          6           0        0.407708    1.179062    1.132128
      4          6           0       -0.592612   -1.096648    0.780457
      5          7           0        1.683388    0.616915    1.342097
      6          1           0        0.592488   -1.955723   -0.832018
      7          1           0        1.237674   -2.255800    0.872937
      8          1           0       -0.257403    1.569313    1.889393
      9          1           0       -0.754911   -1.167894    1.851428
     10          8           0        1.205623    0.827616   -0.984902
     11          6           0        0.227327    1.502648   -0.298170
     12          8           0       -0.648592    2.207669   -0.761604
     13          6           0       -1.793143   -0.914287   -0.069097
     14          8           0       -1.846252   -1.204357   -1.251558
     15          8           0       -2.746736   -0.306217    0.673673
     16          6           0       -3.890530    0.078505   -0.092442
     17          1           0       -4.624003    0.518004    0.588682
     18          1           0       -4.345153   -0.792264   -0.576548
     19          1           0       -3.611903    0.833189   -0.836012
     20          6           0        3.190634   -0.436629   -0.327198
     21          7           0        4.230253   -0.891301   -0.573236
     22          1           0        1.976778    0.119051    2.175910
 ---------------------------------------------------------------------
 Rotational constants (GHZ):           1.3537180           0.4678392           0.4214048
 Standard basis: STO-3G (5D, 7F)
 There are    78 symmetry adapted cartesian basis functions of A   symmetry.
 There are    78 symmetry adapted basis functions of A   symmetry.
    78 basis functions,   234 primitive gaussians,    78 cartesian basis functions
    51 alpha electrons       51 beta electrons
       nuclear repulsion energy       892.5014373949 Hartrees.
 NAtoms=   22 NActive=   22 NUniq=   22 SFac= 1.00D+00 NAtFMM=   60 NAOKFM=F Big=F
 Integral buffers will be    131072 words long.
 Raffenetti 1 integral format.
 Two-electron integral symmetry is turned on.
 External calculation of energy, first and second derivatives.
 Running external command "~/scripts/MiMe -H 'hf 6-31g(d)' -EF 'wb97xd def2svp' -c 12 -m 48GB R"
         input file       "/local/jobs/1157665/Gau-563528.EIn"
         output file      "/local/jobs/1157665/Gau-563528.EOu"
         message file     "/local/jobs/1157665/Gau-563528.EMs"
         fchk file        "/local/jobs/1157665/Gau-563528.EFC"
         mat. el file     "/local/jobs/1157665/Gau-563528.EUF"
 Read checkpoint file Gau-563528_H.chk type G16
 Write formatted file Gau-563528_H.fchk

deriv: 2

spelevel: wb97xd def2svp
gradlevel: wb97xd def2svp
hesslevel: hf 6-31g(d)

runspe: False
runforce: True
runfreq: True

Running Gaussian ...

Parsing files ...
SPE file: Gau-563528_F.out
FORCE file: Gau-563528_F.out
HESS file: Gau-563528_H.out

 ExternalExternalExternalExternalExternalExternalExternalExternalExternalExternal
 Output from external command:
 "~/scripts/MiMe -H 'hf 6-31g(d)' -EF 'wb97xd def2svp' -c 12 -m 48GB R /local/jobs/1157665/Gau-563528.EIn /local/jobs/1157665/Gau-563528.EOu /local/jobs/1157665/Gau-563528.EMs /local/jobs/1157665/Gau-563528.EFC /local/jobs/1157665/Gau-563528.EUF"
  
 --------------------------------------------------
 Force calculation at wb97xd def2svp
 Hessian calculation at hf 6-31g(d)
 ExternalExternalExternalExternalExternalExternalExternalExternalExternalExternal

 Recovered energy= -719.169780601     dipole=     -0.727200000000     -0.282600000000      6.089500000000
 Energy=    -719.169781     NIter=   0.
 Dipole moment=      -0.727200      -0.282600       6.089500
 ***** Axes restored to original set *****
 -------------------------------------------------------------------
 Center     Atomic                   Forces (Hartrees/Bohr)
 Number     Number              X              Y              Z
 -------------------------------------------------------------------
      1        6          -0.007809128   -0.033880465    0.012001507
      2        6          -0.037738720    0.019364654    0.012982594
      3        6           0.021030036   -0.025659028    0.009116698
      4        6           0.052942876   -0.002016738   -0.024704305
      5        7          -0.053825496    0.022031473   -0.080129080
      6        1           0.001869437    0.003600916   -0.000072009
      7        1           0.006664384    0.004129268   -0.001545387
      8        1           0.003233376    0.004460791    0.006453284
      9        1          -0.001086389    0.001641267    0.004297616
     10        8           0.022565221   -0.008158445    0.048475282
     11        6          -0.036398399    0.019679857    0.014875119
     12        8           0.030671408   -0.023132674    0.001406252
     13        6           0.015579323    0.006459839   -0.005942299
     14        8          -0.009581802    0.010777451    0.027120315
     15        8          -0.006323560   -0.007241723   -0.024801972
     16        6          -0.002091419    0.001332276    0.006068176
     17        1           0.001420962    0.000504077    0.005021870
     18        1           0.000740954   -0.001497495   -0.003464945
     19        1           0.001600462   -0.000862124   -0.003344665
     20        6           0.006686364    0.007692508   -0.004444712
     21        7          -0.010283729    0.001597627    0.002580480
     22        1           0.000133837   -0.000823308   -0.001949818
 -------------------------------------------------------------------
 Cartesian Forces:  Max     0.080129080 RMS     0.020056788
 FormGI is forming the generalized inverse of G from B-inverse, IUseBI=4.

 GradGradGradGradGradGradGradGradGradGradGradGradGradGradGradGradGradGrad
 Berny optimization.
 Internal  Forces:  Max     0.056108454 RMS     0.014922348
 Search for a saddle point.
 Step number   1 out of a maximum of   50
 All quantities printed in internal units (Hartrees-Bohrs-Radians)
 Swapping is turned off.
 Second derivative matrix not updated -- analytic derivatives used.
 ITU=  0
     Eigenvalues ---   -0.14746   0.00414   0.01255   0.01370   0.01536
     Eigenvalues ---    0.02030   0.02678   0.02970   0.03585   0.04139
     Eigenvalues ---    0.05093   0.05328   0.06118   0.06692   0.07078
     Eigenvalues ---    0.07933   0.08241   0.09131   0.10372   0.10899
     Eigenvalues ---    0.11265   0.11897   0.12704   0.14266   0.14538
     Eigenvalues ---    0.15856   0.16139   0.17929   0.19846   0.21568
     Eigenvalues ---    0.23032   0.23527   0.24269   0.24395   0.26772
     Eigenvalues ---    0.27323   0.28115   0.28685   0.29641   0.31170
     Eigenvalues ---    0.34097   0.35304   0.35379   0.35776   0.36093
     Eigenvalues ---    0.36359   0.38102   0.38270   0.39615   0.40071
     Eigenvalues ---    0.40885   0.41720   0.44885   0.47893   0.50047
     Eigenvalues ---    0.50642   0.53942   0.83377   0.85588   1.31217
 Eigenvectors required to have negative eigenvalues:
                          R1        R5        A7        D27       D10
   1                    0.70336  -0.25498   0.18813   0.18551  -0.17950
                          D29       D16       D12       D26       A8
   1                   -0.17811   0.16429  -0.16389  -0.15551  -0.13874
 RFO step:  Lambda0=3.280881363D-03 Lambda=-5.67421484D-02.
 Linear search not attempted -- option 19 set.
 Maximum step size (   0.100) exceeded in Quadratic search.
    -- Step size scaled by   0.255
 Iteration  1 RMS(Cart)=  0.02396167 RMS(Int)=  0.00021137
 Iteration  2 RMS(Cart)=  0.00027971 RMS(Int)=  0.00005243
 Iteration  3 RMS(Cart)=  0.00000006 RMS(Int)=  0.00005243
 Variable       Old X    -DE/DX   Delta X   Delta X   Delta X     New X
                                 (Linear)    (Quad)   (Total)
    R1        4.00924  -0.04413   0.00000   0.00040   0.00040   4.00963
    R2        2.71935  -0.04058   0.00000  -0.03715  -0.03713   2.68222
    R3        2.67831  -0.04662   0.00000  -0.03666  -0.03667   2.64164
    R4        2.71966  -0.00619   0.00000  -0.00290  -0.00290   2.71676
    R5        2.78110  -0.05013   0.00000  -0.04215  -0.04215   2.73895
    R6        2.07224  -0.00134   0.00000  -0.00084  -0.00084   2.07139
    R7        2.06768   0.00036   0.00000   0.00016   0.00016   2.06784
    R8        2.66408  -0.03886   0.00000  -0.02898  -0.02891   2.63517
    R9        2.04241   0.00411   0.00000   0.00192   0.00192   2.04433
   R10        2.79206  -0.01716   0.00000  -0.01517  -0.01519   2.77688
   R11        2.05137   0.00436   0.00000   0.00298   0.00298   2.05435
   R12        2.80054  -0.00074   0.00000   0.00066   0.00066   2.80120
   R13        1.91711  -0.00123   0.00000  -0.00030  -0.00030   1.91681
   R14        2.59404   0.00473   0.00000   0.00979   0.00973   2.60378
   R15        2.29822  -0.03576   0.00000  -0.01012  -0.01012   2.28810
   R16        2.30297  -0.02862   0.00000  -0.00734  -0.00734   2.29563
   R17        2.55693  -0.01117   0.00000  -0.00649  -0.00649   2.55044
   R18        2.70119  -0.00379   0.00000  -0.00356  -0.00356   2.69763
   R19        2.06584   0.00231   0.00000   0.00109   0.00109   2.06692
   R20        2.06947   0.00234   0.00000   0.00163   0.00163   2.07110
   R21        2.07016   0.00217   0.00000   0.00118   0.00118   2.07134
   R22        2.19409  -0.01042   0.00000  -0.00208  -0.00208   2.19201
    A1        1.68745  -0.00818   0.00000   0.00175   0.00166   1.68911
    A2        1.76012  -0.00731   0.00000  -0.00622  -0.00624   1.75388
    A3        1.81481   0.01648   0.00000   0.00615   0.00613   1.82094
    A4        1.97602  -0.01403   0.00000  -0.01584  -0.01583   1.96019
    A5        2.08196   0.00871   0.00000   0.00847   0.00845   2.09042
    A6        2.05283   0.00354   0.00000   0.00552   0.00553   2.05836
    A7        1.82671  -0.05611   0.00000  -0.01337  -0.01334   1.81337
    A8        1.78092   0.01303   0.00000  -0.01143  -0.01140   1.76952
    A9        1.79808   0.01458   0.00000  -0.00594  -0.00587   1.79220
   A10        2.01058   0.01196   0.00000   0.00745   0.00725   2.01783
   A11        1.99959   0.01495   0.00000   0.01228   0.01215   2.01174
   A12        2.00682  -0.00586   0.00000   0.00287   0.00269   2.00951
   A13        2.20991   0.00335   0.00000  -0.00186  -0.00191   2.20800
   A14        1.91982  -0.01668   0.00000  -0.01058  -0.01052   1.90930
   A15        2.12241   0.01251   0.00000   0.01290   0.01289   2.13530
   A16        2.08307   0.00154   0.00000   0.00525   0.00524   2.08831
   A17        2.10527  -0.00194   0.00000   0.00035   0.00034   2.10561
   A18        2.04039   0.00136   0.00000  -0.00271  -0.00272   2.03766
   A19        1.71332   0.02895   0.00000   0.02863   0.02874   1.74206
   A20        2.13997  -0.01329   0.00000  -0.00836  -0.00840   2.13157
   A21        2.18927  -0.01672   0.00000  -0.00996  -0.01008   2.17919
   A22        1.82136   0.00994   0.00000   0.01446   0.01436   1.83572
   A23        1.86459  -0.00893   0.00000  -0.01292  -0.01300   1.85160
   A24        2.19417   0.02058   0.00000   0.02606   0.02609   2.22026
   A25        2.22399  -0.01156   0.00000  -0.01292  -0.01290   2.21109
   A26        2.16788   0.00471   0.00000   0.00238   0.00237   2.17025
   A27        1.88760   0.01642   0.00000   0.01103   0.01101   1.89861
   A28        2.22546  -0.02089   0.00000  -0.01286  -0.01287   2.21259
   A29        1.97216   0.01238   0.00000   0.00953   0.00953   1.98170
   A30        1.88720  -0.00596   0.00000  -0.00578  -0.00578   1.88142
   A31        1.93382   0.00087   0.00000   0.00034   0.00034   1.93416
   A32        1.92377  -0.00029   0.00000   0.00006   0.00006   1.92383
   A33        1.89290   0.00372   0.00000   0.00432   0.00432   1.89722
   A34        1.89293   0.00385   0.00000   0.00481   0.00481   1.89774
   A35        1.93190  -0.00213   0.00000  -0.00361  -0.00361   1.92829
   A36        3.11823  -0.00543   0.00000  -0.00824  -0.00824   3.10999
   A37        3.16385  -0.00107   0.00000  -0.00097  -0.00097   3.16288
    D1        0.83814  -0.00940   0.00000  -0.00812  -0.00814   0.83000
    D2        2.93922  -0.01304   0.00000  -0.01011  -0.01009   2.92914
    D3       -1.25814  -0.00892   0.00000  -0.01362  -0.01363  -1.27177
    D4       -1.17339   0.00901   0.00000   0.00928   0.00925  -1.16414
    D5        0.92770   0.00537   0.00000   0.00729   0.00731   0.93500
    D6        3.01352   0.00948   0.00000   0.00378   0.00376   3.01728
    D7        2.97552   0.00183   0.00000   0.00343   0.00342   2.97894
    D8       -1.20658  -0.00181   0.00000   0.00144   0.00148  -1.20510
    D9        0.87925   0.00230   0.00000  -0.00207  -0.00207   0.87718
   D10       -1.35533   0.01967   0.00000   0.00628   0.00627  -1.34907
   D11        1.12167   0.01457   0.00000   0.01667   0.01670   1.13837
   D12        0.47481   0.00435   0.00000  -0.00354  -0.00354   0.47127
   D13        2.95181  -0.00075   0.00000   0.00685   0.00690   2.95871
   D14        3.00521   0.00236   0.00000  -0.00498  -0.00500   3.00021
   D15       -0.80097  -0.00274   0.00000   0.00541   0.00543  -0.79554
   D16        1.45370  -0.01504   0.00000  -0.00366  -0.00360   1.45010
   D17       -0.32984   0.00173   0.00000   0.00193   0.00193  -0.32791
   D18       -2.87118   0.00160   0.00000   0.00206   0.00208  -2.86910
   D19       -1.69512  -0.00218   0.00000  -0.00404  -0.00402  -1.69915
   D20        1.80565  -0.00551   0.00000  -0.01270  -0.01270   1.79295
   D21        2.64750   0.01067   0.00000   0.01431   0.01439   2.66190
   D22       -0.13491   0.00734   0.00000   0.00564   0.00571  -0.12920
   D23        0.26084  -0.01140   0.00000  -0.01341  -0.01348   0.24736
   D24       -2.52157  -0.01473   0.00000  -0.02207  -0.02216  -2.54374
   D25        2.97319  -0.00104   0.00000   0.00180   0.00187   2.97506
   D26        0.52299   0.00155   0.00000  -0.01061  -0.01058   0.51242
   D27       -0.43266  -0.00296   0.00000   0.00556   0.00561  -0.42705
   D28       -2.88286  -0.00038   0.00000  -0.00685  -0.00684  -2.88970
   D29        0.27560  -0.00359   0.00000  -0.01375  -0.01370   0.26190
   D30       -2.89562  -0.00078   0.00000  -0.00645  -0.00635  -2.90197
   D31       -3.11470  -0.00672   0.00000  -0.01259  -0.01257  -3.12727
   D32       -0.00274  -0.00391   0.00000  -0.00530  -0.00522  -0.00795
   D33        0.04419   0.00199   0.00000   0.00404   0.00405   0.04823
   D34       -3.03003  -0.00084   0.00000  -0.00360  -0.00363  -3.03366
   D35       -2.74669  -0.00132   0.00000  -0.00598  -0.00595  -2.75264
   D36        0.46229  -0.00415   0.00000  -0.01363  -0.01363   0.44865
   D37        0.03030   0.00136   0.00000   0.00706   0.00709   0.03739
   D38       -3.08100  -0.00223   0.00000  -0.00126  -0.00107  -3.08208
   D39        3.00758   0.00274   0.00000   0.00866   0.00862   3.01621
   D40       -0.06376  -0.00156   0.00000  -0.00012  -0.00009  -0.06385
   D41        3.09797   0.00021   0.00000  -0.00014  -0.00014   3.09783
   D42        1.02573  -0.00117   0.00000  -0.00205  -0.00205   1.02368
   D43       -1.11873   0.00115   0.00000   0.00227   0.00226  -1.11647
         Item               Value     Threshold  Converged?
 Maximum Force            0.056108     0.000450     NO 
 RMS     Force            0.014922     0.000300     NO 
 Maximum Displacement     0.081508     0.001800     NO 
 RMS     Displacement     0.023958     0.001200     NO 
 Predicted change in Energy=-1.222862D-02
 GradGradGradGradGradGradGradGradGradGradGradGradGradGradGradGradGradGrad

                          Input orientation:                          
 ---------------------------------------------------------------------
 Center     Atomic      Atomic             Coordinates (Angstroms)
 Number     Number       Type             X           Y           Z
 ---------------------------------------------------------------------
      1          6           0        1.909896    0.167961   -0.004801
      2          6           0        0.727893   -1.571394    0.277302
      3          6           0        0.397066    1.245115    1.083731
      4          6           0       -0.512090   -1.063791    0.830039
      5          7           0        1.680865    0.735667    1.275772
      6          1           0        0.666692   -1.959735   -0.745908
      7          1           0        1.336550   -2.166657    0.964755
      8          1           0       -0.255622    1.649388    1.845886
      9          1           0       -0.669305   -1.083306    1.905548
     10          8           0        1.180340    0.811387   -1.008722
     11          6           0        0.177651    1.487886   -0.348830
     12          8           0       -0.715833    2.129968   -0.854282
     13          6           0       -1.720517   -0.934353   -0.018643
     14          8           0       -1.780028   -1.275486   -1.183035
     15          8           0       -2.687051   -0.316924    0.692768
     16          6           0       -3.843974    0.006842   -0.078291
     17          1           0       -4.578500    0.458589    0.594559
     18          1           0       -4.281445   -0.894913   -0.521714
     19          1           0       -3.588281    0.732747   -0.858758
     20          6           0        3.213530   -0.337956   -0.338602
     21          7           0        4.263153   -0.772027   -0.573947
     22          1           0        2.007611    0.293493    2.128173
 ---------------------------------------------------------------------
                    Distance matrix (angstroms):
                    1          2          3          4          5
     1  C    0.000000
     2  C    2.121807   0.000000
     3  C    2.152630   2.948304   0.000000
     4  C    2.842566   1.449391   2.494388   0.000000
     5  N    1.419370   2.688425   1.394474   2.871547   0.000000
     6  H    2.573302   1.096135   3.700181   2.162371   3.518654
     7  H    2.592143   1.094255   3.540759   2.156834   2.939179
     8  H    3.210784   3.714996   1.081813   2.908447   2.215829
     9  H    3.444906   2.200359   2.689623   1.087115   3.037859
    10  O    1.397893   2.745215   2.275961   3.124364   2.339908
    11  C    2.204820   3.170804   1.469459   2.894223   2.337695
    12  O    3.386081   4.130969   2.403623   3.616427   3.496479
    13  C    3.794099   2.547179   3.232563   1.482334   4.004233
    14  O    4.133680   2.917158   4.028820   2.388503   4.697685
    15  O    4.674787   3.661714   3.479166   2.303717   4.530622
    16  C    5.756594   4.849664   4.568373   3.615629   5.734852
    17  H    6.522497   5.690280   5.061044   4.348423   6.302418
    18  H    6.303142   5.117570   5.389400   4.007967   6.437305
    19  H    5.592689   5.022853   4.463045   3.942402   5.685079
    20  C    1.437650   2.842375   3.530101   3.971498   2.471423
    21  N    2.597176   3.723127   4.665125   4.985904   3.516079
    22  H    2.138898   2.922534   2.142498   3.142652   1.014332
                    6          7          8          9         10
     6  H    0.000000
     7  H    1.848755   0.000000
     8  H    4.538042   4.227719   0.000000
     9  H    3.095680   2.466211   2.764473   0.000000
    10  O    2.830551   3.575998   3.303486   3.937514   0.000000
    11  C    3.504699   4.052683   2.242896   3.522865   1.377859
    12  O    4.318425   5.097270   2.780945   4.236031   2.314731
    13  C    2.697979   3.439667   3.506865   2.197668   3.527441
    14  O    2.577929   3.888476   4.478064   3.287854   3.626182
    15  O    4.002026   4.436762   3.332853   2.475778   4.373199
    16  C    4.965808   5.714007   4.390522   3.899046   5.172691
    17  H    5.929349   6.482035   4.655222   4.402037   5.988256
    18  H    5.066377   5.948848   5.318481   4.355990   5.742799
    19  H    5.036565   5.998808   4.388843   4.411332   4.771627
    20  C    3.046710   2.926763   4.555935   4.546225   2.429796
    21  N    3.791404   3.588538   5.669054   5.529370   3.492844
    22  H    3.890429   2.802892   2.653368   3.018446   3.285225
                   11         12         13         14         15
    11  C    0.000000
    12  O    1.210812   0.000000
    13  C    3.095045   3.331328   0.000000
    14  O    3.487782   3.582974   1.214793   0.000000
    15  O    3.542426   3.502334   1.349634   2.293507   0.000000
    16  C    4.294199   3.859416   2.323462   2.669213   1.427525
    17  H    4.956854   4.451162   3.237957   3.741430   2.046617
    18  H    5.058770   4.687653   2.610170   2.615200   2.085936
    19  H    3.874597   3.194245   2.640749   2.721752   2.078763
    20  C    3.542650   4.668669   4.980249   5.150499   5.990077
    21  N    4.674314   5.769789   6.011574   6.094628   7.079338
    22  H    3.303161   4.436758   4.473854   5.269915   4.947004
                   16         17         18         19         20
    16  C    0.000000
    17  H    1.093769   0.000000
    18  H    1.095977   1.779402   0.000000
    19  H    1.096105   1.779839   1.800930   0.000000
    20  C    7.070715   7.888029   7.517871   6.905186   0.000000
    21  N    8.159523   9.003035   8.545641   7.999404   1.159963
    22  H    6.260328   6.764324   6.927224   6.358357   2.817436
                   21         22
    21  N    0.000000
    22  H    3.677534   0.000000
 Stoichiometry    C8H8N2O4
 Framework group  C1[X(C8H8N2O4)]
 Deg. of freedom    60
 Full point group                 C1      NOp   1
 Largest Abelian subgroup         C1      NOp   1
 Largest concise Abelian subgroup C1      NOp   1
                         Standard orientation:                         
 ---------------------------------------------------------------------
 Center     Atomic      Atomic             Coordinates (Angstroms)
 Number     Number       Type             X           Y           Z
 ---------------------------------------------------------------------
      1          6           0        1.889856    0.113288    0.012843
      2          6           0        0.670575   -1.610332    0.223918
      3          6           0        0.392883    1.180724    1.132427
      4          6           0       -0.562058   -1.097812    0.788431
      5          7           0        1.664716    0.637925    1.312335
      6          1           0        0.607666   -1.959237   -0.813300
      7          1           0        1.262616   -2.243130    0.892086
      8          1           0       -0.256004    1.570048    1.905532
      9          1           0       -0.726236   -1.153784    1.861619
     10          8           0        1.179877    0.808416   -0.970434
     11          6           0        0.187304    1.480783   -0.291305
     12          8           0       -0.689650    2.159558   -0.777392
     13          6           0       -1.762336   -0.911982   -0.061341
     14          8           0       -1.821716   -1.208539   -1.237883
     15          8           0       -2.720294   -0.301288    0.667275
     16          6           0       -3.865553    0.074754   -0.097448
     17          1           0       -4.594732    0.516512    0.587736
     18          1           0       -4.318774   -0.800700   -0.576340
     19          1           0       -3.590182    0.823528   -0.849082
     20          6           0        3.184817   -0.406963   -0.332484
     21          7           0        4.226702   -0.853786   -0.578125
     22          1           0        1.977052    0.157849    2.149498
 ---------------------------------------------------------------------
 Rotational constants (GHZ):           1.3788741           0.4733284           0.4272088
 Standard basis: STO-3G (5D, 7F)
 There are    78 symmetry adapted cartesian basis functions of A   symmetry.
 There are    78 symmetry adapted basis functions of A   symmetry.
    78 basis functions,   234 primitive gaussians,    78 cartesian basis functions
    51 alpha electrons       51 beta electrons
       nuclear repulsion energy       897.8461478231 Hartrees.
 NAtoms=   22 NActive=   22 NUniq=   22 SFac= 1.00D+00 NAtFMM=   60 NAOKFM=F Big=F
 Integral buffers will be    131072 words long.
 Raffenetti 1 integral format.
 Two-electron integral symmetry is turned on.
 External calculation of energy, first and second derivatives.
 Running external command "~/scripts/MiMe -H 'hf 6-31g(d)' -EF 'wb97xd def2svp' -c 12 -m 48GB R"
         input file       "/local/jobs/1157665/Gau-563528.EIn"
         output file      "/local/jobs/1157665/Gau-563528.EOu"
         message file     "/local/jobs/1157665/Gau-563528.EMs"
         fchk file        "/local/jobs/1157665/Gau-563528.EFC"
         mat. el file     "/local/jobs/1157665/Gau-563528.EUF"
 Read checkpoint file Gau-563528_H.chk type G16
 Write formatted file Gau-563528_H.fchk

deriv: 2

spelevel: wb97xd def2svp
gradlevel: wb97xd def2svp
hesslevel: hf 6-31g(d)

runspe: False
runforce: True
runfreq: True

Running Gaussian ...

Parsing files ...
SPE file: Gau-563528_F.out
FORCE file: Gau-563528_F.out
HESS file: Gau-563528_H.out

 ExternalExternalExternalExternalExternalExternalExternalExternalExternalExternal
 Output from external command:
 "~/scripts/MiMe -H 'hf 6-31g(d)' -EF 'wb97xd def2svp' -c 12 -m 48GB R /local/jobs/1157665/Gau-563528.EIn /local/jobs/1157665/Gau-563528.EOu /local/jobs/1157665/Gau-563528.EMs /local/jobs/1157665/Gau-563528.EFC /local/jobs/1157665/Gau-563528.EUF"
  
 --------------------------------------------------
 Force calculation at wb97xd def2svp
 Hessian calculation at hf 6-31g(d)
 ExternalExternalExternalExternalExternalExternalExternalExternalExternalExternal

 Recovered energy= -719.182061306     dipole=     -0.617600000000     -0.177400000000      6.141500000000
 Energy=    -719.182061     NIter=   0.
 Dipole moment=      -0.617600      -0.177400       6.141500
 ***** Axes restored to original set *****
 -------------------------------------------------------------------
 Center     Atomic                   Forces (Hartrees/Bohr)
 Number     Number              X              Y              Z
 -------------------------------------------------------------------
      1        6          -0.005234845   -0.030356973    0.008685226
      2        6          -0.030025617    0.014246772    0.010260934
      3        6           0.014883160   -0.021008370    0.007946883
      4        6           0.041378936   -0.000908223   -0.018912512
      5        7          -0.044036774    0.017155389   -0.062506731
      6        1           0.001906921    0.003400635   -0.000252927
      7        1           0.006121377    0.003964409   -0.001618104
      8        1           0.003427054    0.003801609    0.005318829
      9        1          -0.001163127    0.001473813    0.003158632
     10        8           0.018524211   -0.005169967    0.038251344
     11        6          -0.029089253    0.015987002    0.011482613
     12        8           0.023894494   -0.018368702    0.000727135
     13        6           0.012650735    0.006025686   -0.003691986
     14        8          -0.007610697    0.008437981    0.020513026
     15        8          -0.005290473   -0.005804946   -0.019906381
     16        6          -0.001970785    0.001119963    0.005090892
     17        1           0.001315051    0.000393276    0.004135252
     18        1           0.000694095   -0.001112401   -0.002937922
     19        1           0.001360341   -0.000847712   -0.002804425
     20        6           0.005402691    0.006395524   -0.003443189
     21        7          -0.007905898    0.001060233    0.001934138
     22        1           0.000768403    0.000115000   -0.001430729
 -------------------------------------------------------------------
 Cartesian Forces:  Max     0.062506731 RMS     0.015919677
 FormGI is forming the generalized inverse of G from B-inverse, IUseBI=4.

 GradGradGradGradGradGradGradGradGradGradGradGradGradGradGradGradGradGrad
 Berny optimization.
 Internal  Forces:  Max     0.046482512 RMS     0.011929222
 Search for a saddle point.
 Step number   2 out of a maximum of   50
 All quantities printed in internal units (Hartrees-Bohrs-Radians)
 Swapping is turned off.
 Second derivative matrix not updated -- analytic derivatives used.
 ITU=  0  0
     Eigenvalues ---   -0.13365   0.00666   0.01257   0.01423   0.01587
     Eigenvalues ---    0.02110   0.02726   0.03023   0.03677   0.04192
     Eigenvalues ---    0.05173   0.05427   0.06232   0.06781   0.07135
     Eigenvalues ---    0.07941   0.08297   0.09458   0.10390   0.10899
     Eigenvalues ---    0.11298   0.12544   0.12749   0.14394   0.14839
     Eigenvalues ---    0.16008   0.16217   0.19213   0.20093   0.22211
     Eigenvalues ---    0.23183   0.23946   0.24433   0.25207   0.27488
     Eigenvalues ---    0.28648   0.29054   0.29260   0.31180   0.32329
     Eigenvalues ---    0.35115   0.35280   0.35501   0.35782   0.36196
     Eigenvalues ---    0.36276   0.37777   0.39350   0.39867   0.40840
     Eigenvalues ---    0.41541   0.42320   0.47044   0.47936   0.50206
     Eigenvalues ---    0.53332   0.55396   0.86306   0.88120   1.32149
 Eigenvectors required to have negative eigenvalues:
                          R1        R5        D27       D29       D12
   1                    0.71624  -0.24319   0.19615  -0.17766  -0.17757
                          D10       D16       D26       A7        A8
   1                   -0.17232   0.15379  -0.15167   0.14793  -0.13371
 RFO step:  Lambda0=2.428762643D-03 Lambda=-3.66006952D-02.
 Linear search not attempted -- option 19 set.
 Maximum step size (   0.100) exceeded in Quadratic search.
    -- Step size scaled by   0.317
 Iteration  1 RMS(Cart)=  0.02367409 RMS(Int)=  0.00024528
 Iteration  2 RMS(Cart)=  0.00031558 RMS(Int)=  0.00007191
 Iteration  3 RMS(Cart)=  0.00000008 RMS(Int)=  0.00007191
 Variable       Old X    -DE/DX   Delta X   Delta X   Delta X     New X
                                 (Linear)    (Quad)   (Total)
    R1        4.00963  -0.03662   0.00000   0.00219   0.00219   4.01182
    R2        2.68222  -0.03047   0.00000  -0.03393  -0.03391   2.64831
    R3        2.64164  -0.03642   0.00000  -0.03333  -0.03335   2.60829
    R4        2.71676  -0.00454   0.00000  -0.00297  -0.00297   2.71380
    R5        2.73895  -0.03817   0.00000  -0.03968  -0.03968   2.69927
    R6        2.07139  -0.00108   0.00000  -0.00101  -0.00101   2.07039
    R7        2.06784   0.00022   0.00000  -0.00012  -0.00012   2.06772
    R8        2.63517  -0.02947   0.00000  -0.02730  -0.02722   2.60796
    R9        2.04433   0.00310   0.00000   0.00184   0.00184   2.04617
   R10        2.77688  -0.01252   0.00000  -0.01384  -0.01386   2.76301
   R11        2.05435   0.00327   0.00000   0.00289   0.00289   2.05724
   R12        2.80120  -0.00045   0.00000   0.00053   0.00053   2.80174
   R13        1.91681  -0.00100   0.00000  -0.00019  -0.00019   1.91662
   R14        2.60378   0.00442   0.00000   0.01125   0.01118   2.61496
   R15        2.28810  -0.02768   0.00000  -0.00982  -0.00982   2.27828
   R16        2.29563  -0.02166   0.00000  -0.00663  -0.00663   2.28899
   R17        2.55044  -0.00873   0.00000  -0.00652  -0.00652   2.54392
   R18        2.69763  -0.00311   0.00000  -0.00377  -0.00377   2.69386
   R19        2.06692   0.00182   0.00000   0.00107   0.00107   2.06799
   R20        2.07110   0.00183   0.00000   0.00172   0.00172   2.07281
   R21        2.07134   0.00175   0.00000   0.00123   0.00123   2.07257
   R22        2.19201  -0.00794   0.00000  -0.00196  -0.00196   2.19005
    A1        1.68911  -0.00684   0.00000   0.00232   0.00221   1.69132
    A2        1.75388  -0.00668   0.00000  -0.00650  -0.00651   1.74737
    A3        1.82094   0.01402   0.00000   0.00764   0.00761   1.82855
    A4        1.96019  -0.01162   0.00000  -0.01793  -0.01792   1.94227
    A5        2.09042   0.00707   0.00000   0.00879   0.00876   2.09917
    A6        2.05836   0.00307   0.00000   0.00593   0.00594   2.06430
    A7        1.81337  -0.04648   0.00000  -0.01244  -0.01238   1.80098
    A8        1.76952   0.01034   0.00000  -0.01602  -0.01600   1.75352
    A9        1.79220   0.01214   0.00000  -0.01059  -0.01051   1.78169
   A10        2.01783   0.00951   0.00000   0.00834   0.00805   2.02589
   A11        2.01174   0.01244   0.00000   0.01492   0.01472   2.02646
   A12        2.00951  -0.00480   0.00000   0.00435   0.00402   2.01352
   A13        2.20800   0.00218   0.00000  -0.00418  -0.00424   2.20376
   A14        1.90930  -0.01335   0.00000  -0.01049  -0.01043   1.89888
   A15        2.13530   0.01048   0.00000   0.01478   0.01477   2.15007
   A16        2.08831   0.00157   0.00000   0.00655   0.00653   2.09485
   A17        2.10561  -0.00158   0.00000  -0.00004  -0.00006   2.10554
   A18        2.03766   0.00085   0.00000  -0.00297  -0.00300   2.03466
   A19        1.74206   0.02339   0.00000   0.02998   0.03007   1.77213
   A20        2.13157  -0.01049   0.00000  -0.00713  -0.00721   2.12436
   A21        2.17919  -0.01352   0.00000  -0.00906  -0.00924   2.16995
   A22        1.83572   0.00826   0.00000   0.01501   0.01490   1.85062
   A23        1.85160  -0.00725   0.00000  -0.01281  -0.01290   1.83870
   A24        2.22026   0.01718   0.00000   0.02784   0.02787   2.24813
   A25        2.21109  -0.00987   0.00000  -0.01486  -0.01483   2.19626
   A26        2.17025   0.00377   0.00000   0.00239   0.00238   2.17263
   A27        1.89861   0.01319   0.00000   0.01149   0.01147   1.91008
   A28        2.21259  -0.01679   0.00000  -0.01331  -0.01333   2.19926
   A29        1.98170   0.01007   0.00000   0.01019   0.01019   1.99189
   A30        1.88142  -0.00497   0.00000  -0.00640  -0.00640   1.87502
   A31        1.93416   0.00078   0.00000   0.00035   0.00034   1.93451
   A32        1.92383  -0.00033   0.00000  -0.00003  -0.00003   1.92380
   A33        1.89722   0.00317   0.00000   0.00511   0.00511   1.90233
   A34        1.89774   0.00327   0.00000   0.00568   0.00568   1.90342
   A35        1.92829  -0.00187   0.00000  -0.00453  -0.00454   1.92375
   A36        3.10999  -0.00439   0.00000  -0.00933  -0.00933   3.10067
   A37        3.16288  -0.00104   0.00000  -0.00146  -0.00146   3.16142
    D1        0.83000  -0.00771   0.00000  -0.00904  -0.00907   0.82093
    D2        2.92914  -0.01065   0.00000  -0.01106  -0.01104   2.91809
    D3       -1.27177  -0.00769   0.00000  -0.01607  -0.01606  -1.28783
    D4       -1.16414   0.00754   0.00000   0.01038   0.01035  -1.15379
    D5        0.93500   0.00460   0.00000   0.00837   0.00837   0.94338
    D6        3.01728   0.00757   0.00000   0.00336   0.00335   3.02064
    D7        2.97894   0.00161   0.00000   0.00367   0.00366   2.98260
    D8       -1.20510  -0.00133   0.00000   0.00165   0.00168  -1.20342
    D9        0.87718   0.00164   0.00000  -0.00336  -0.00334   0.87384
   D10       -1.34907   0.01669   0.00000   0.00684   0.00683  -1.34224
   D11        1.13837   0.01270   0.00000   0.02204   0.02209   1.16047
   D12        0.47127   0.00358   0.00000  -0.00336  -0.00336   0.46791
   D13        2.95871  -0.00042   0.00000   0.01184   0.01191   2.97062
   D14        3.00021   0.00190   0.00000  -0.00689  -0.00693   2.99328
   D15       -0.79554  -0.00209   0.00000   0.00830   0.00834  -0.78720
   D16        1.45010  -0.01266   0.00000  -0.00457  -0.00450   1.44561
   D17       -0.32791   0.00123   0.00000   0.00076   0.00076  -0.32714
   D18       -2.86910   0.00121   0.00000   0.00292   0.00294  -2.86616
   D19       -1.69915  -0.00209   0.00000  -0.00417  -0.00415  -1.70329
   D20        1.79295  -0.00506   0.00000  -0.01518  -0.01518   1.77777
   D21        2.66190   0.00936   0.00000   0.01875   0.01888   2.68077
   D22       -0.12920   0.00639   0.00000   0.00775   0.00784  -0.12135
   D23        0.24736  -0.01008   0.00000  -0.01760  -0.01771   0.22965
   D24       -2.54374  -0.01305   0.00000  -0.02861  -0.02874  -2.57248
   D25        2.97506  -0.00075   0.00000   0.00354   0.00362   2.97868
   D26        0.51242   0.00117   0.00000  -0.01393  -0.01390   0.49852
   D27       -0.42705  -0.00238   0.00000   0.00615   0.00623  -0.42082
   D28       -2.88970  -0.00046   0.00000  -0.01132  -0.01129  -2.90099
   D29        0.26190  -0.00302   0.00000  -0.01534  -0.01526   0.24664
   D30       -2.90197  -0.00069   0.00000  -0.00781  -0.00768  -2.90965
   D31       -3.12727  -0.00583   0.00000  -0.01601  -0.01597   3.13994
   D32       -0.00795  -0.00351   0.00000  -0.00848  -0.00839  -0.01634
   D33        0.04823   0.00171   0.00000   0.00440   0.00441   0.05264
   D34       -3.03366  -0.00057   0.00000  -0.00497  -0.00500  -3.03866
   D35       -2.75264  -0.00133   0.00000  -0.00813  -0.00809  -2.76073
   D36        0.44865  -0.00362   0.00000  -0.01750  -0.01750   0.43115
   D37        0.03739   0.00139   0.00000   0.00905   0.00908   0.04647
   D38       -3.08208  -0.00137   0.00000   0.00086   0.00108  -3.08100
   D39        3.01621   0.00207   0.00000   0.01122   0.01118   3.02738
   D40       -0.06385  -0.00122   0.00000   0.00084   0.00088  -0.06296
   D41        3.09783   0.00023   0.00000   0.00047   0.00047   3.09830
   D42        1.02368  -0.00104   0.00000  -0.00203  -0.00203   1.02165
   D43       -1.11647   0.00103   0.00000   0.00350   0.00350  -1.11297
         Item               Value     Threshold  Converged?
 Maximum Force            0.046483     0.000450     NO 
 RMS     Force            0.011929     0.000300     NO 
 Maximum Displacement     0.085423     0.001800     NO 
 RMS     Displacement     0.023676     0.001200     NO 
 Predicted change in Energy=-9.349390D-03
 GradGradGradGradGradGradGradGradGradGradGradGradGradGradGradGradGradGrad

                          Input orientation:                          
 ---------------------------------------------------------------------
 Center     Atomic      Atomic             Coordinates (Angstroms)
 Number     Number       Type             X           Y           Z
 ---------------------------------------------------------------------
      1          6           0        1.894738    0.161694   -0.004570
      2          6           0        0.721473   -1.583357    0.287368
      3          6           0        0.384233    1.236307    1.093488
      4          6           0       -0.495514   -1.070547    0.831677
      5          7           0        1.660066    0.734783    1.252609
      6          1           0        0.668079   -1.961451   -0.739538
      7          1           0        1.345816   -2.167567    0.970117
      8          1           0       -0.246504    1.642080    1.874481
      9          1           0       -0.657509   -1.080236    1.908158
     10          8           0        1.155735    0.789152   -0.987043
     11          6           0        0.141557    1.463677   -0.330315
     12          8           0       -0.748438    2.084764   -0.855359
     13          6           0       -1.700659   -0.922849   -0.019183
     14          8           0       -1.765700   -1.260510   -1.180631
     15          8           0       -2.670299   -0.304759    0.680802
     16          6           0       -3.826001    0.021323   -0.087418
     17          1           0       -4.554397    0.474125    0.592270
     18          1           0       -4.265365   -0.879585   -0.532931
     19          1           0       -3.568978    0.744849   -0.870569
     20          6           0        3.201193   -0.328202   -0.344424
     21          7           0        4.250417   -0.759356   -0.581782
     22          1           0        2.004659    0.308162    2.105792
 ---------------------------------------------------------------------
                    Distance matrix (angstroms):
                    1          2          3          4          5
     1  C    0.000000
     2  C    2.122966   0.000000
     3  C    2.154565   2.951960   0.000000
     4  C    2.816209   1.428392   2.482756   0.000000
     5  N    1.401428   2.680749   1.380071   2.843048   0.000000
     6  H    2.559808   1.095601   3.696784   2.148574   3.496050
     7  H    2.583948   1.094190   3.539240   2.147816   2.932948
     8  H    3.210497   3.722815   1.082789   2.916812   2.201119
     9  H    3.422702   2.186706   2.667450   1.088646   3.015824
    10  O    1.380248   2.727912   2.263576   3.081046   2.296377
    11  C    2.207921   3.162634   1.462123   2.859786   2.311451
    12  O    3.377635   4.113584   2.408490   3.586927   3.473740
    13  C    3.755440   2.529223   3.201058   1.482616   3.957230
    14  O    4.099341   2.906077   4.003489   2.387224   4.651636
    15  O    4.639706   3.646055   3.446064   2.310602   4.489952
    16  C    5.723061   4.836836   4.538370   3.623404   5.692243
    17  H    6.484226   5.671067   5.022172   4.349467   6.254882
    18  H    6.269793   5.102621   5.361064   4.013776   6.395707
    19  H    5.562573   5.016904   4.441501   3.954679   5.643659
    20  C    1.436079   2.850190   3.528532   3.949674   2.460797
    21  N    2.594365   3.726640   4.662250   4.961710   3.508184
    22  H    2.118292   2.920800   2.124145   3.126511   1.014234
                    6          7          8          9         10
     6  H    0.000000
     7  H    1.850603   0.000000
     8  H    4.544776   4.226910   0.000000
     9  H    3.089339   2.464857   2.753373   0.000000
    10  O    2.804440   3.550886   3.298800   3.894183   0.000000
    11  C    3.489440   4.040705   2.245783   3.481489   1.383776
    12  O    4.288565   5.079427   2.810681   4.202680   2.306909
    13  C    2.684870   3.436429   3.504196   2.197175   3.467952
    14  O    2.570829   3.889730   4.479586   3.286519   3.573985
    15  O    3.988328   4.436545   3.330139   2.481752   4.314728
    16  C    4.955139   5.714657   4.391890   3.903217   5.120213
    17  H    5.914389   6.475633   4.643934   4.396969   5.932882
    18  H    5.054897   5.950076   5.320307   4.360711   5.690275
    19  H    5.029302   6.002124   4.402176   4.419153   4.726356
    20  C    3.039783   2.924672   4.548864   4.530923   2.417713
    21  N    3.781940   3.581642   5.658836   5.512758   3.484131
    22  H    3.877304   2.802332   2.626895   3.008961   3.243093
                   11         12         13         14         15
    11  C    0.000000
    12  O    1.205616   0.000000
    13  C    3.030853   3.263687   0.000000
    14  O    3.432471   3.511621   1.211283   0.000000
    15  O    3.472211   3.429746   1.346185   2.279625   0.000000
    16  C    4.228582   3.784035   2.326627   2.661400   1.425531
    17  H    4.886958   4.378940   3.235619   3.732153   2.040668
    18  H    4.995287   4.610868   2.616013   2.610162   2.085140
    19  H    3.817938   3.122667   2.645126   2.714666   2.077511
    20  C    3.545758   4.656505   4.948489   5.122349   5.960373
    21  N    4.678445   5.757813   5.979846   6.066584   7.049616
    22  H    3.277344   4.416364   4.445254   5.241842   4.925596
                   16         17         18         19         20
    16  C    0.000000
    17  H    1.094334   0.000000
    18  H    1.096886   1.783858   0.000000
    19  H    1.096758   1.784444   1.799373   0.000000
    20  C    7.040573   7.853044   7.489262   6.874844   0.000000
    21  N    8.129107   8.967978   8.516771   7.967996   1.158924
    22  H    6.236108   6.733462   6.905563   6.333628   2.800037
                   21         22
    21  N    0.000000
    22  H    3.661431   0.000000
 Stoichiometry    C8H8N2O4
 Framework group  C1[X(C8H8N2O4)]
 Deg. of freedom    60
 Full point group                 C1      NOp   1
 Largest Abelian subgroup         C1      NOp   1
 Largest concise Abelian subgroup C1      NOp   1
                         Standard orientation:                         
 ---------------------------------------------------------------------
 Center     Atomic      Atomic             Coordinates (Angstroms)
 Number     Number       Type             X           Y           Z
 ---------------------------------------------------------------------
      1          6           0        1.879162    0.120958    0.010051
      2          6           0        0.678334   -1.614036    0.244119
      3          6           0        0.379603    1.184974    1.133146
      4          6           0       -0.533468   -1.099353    0.798143
      5          7           0        1.646941    0.659573    1.282830
      6          1           0        0.624324   -1.960298   -0.793921
      7          1           0        1.290434   -2.227885    0.911783
      8          1           0       -0.248802    1.576671    1.923153
      9          1           0       -0.700902   -1.138870    1.873109
     10          8           0        1.154547    0.788764   -0.956412
     11          6           0        0.147408    1.458617   -0.284249
     12          8           0       -0.730534    2.108628   -0.794362
     13          6           0       -1.732038   -0.907901   -0.053283
     14          8           0       -1.796420   -1.209539   -1.224640
     15          8           0       -2.695707   -0.296426    0.660619
     16          6           0       -3.842564    0.070078   -0.102620
     17          1           0       -4.567407    0.513302    0.587105
     18          1           0       -4.293235   -0.810279   -0.576988
     19          1           0       -3.570815    0.812785   -0.862500
     20          6           0        3.179756   -0.378316   -0.338522
     21          7           0        4.223529   -0.818049   -0.584034
     22          1           0        1.980856    0.202362    2.124334
 ---------------------------------------------------------------------
 Rotational constants (GHZ):           1.4042248           0.4784559           0.4328653
 Standard basis: STO-3G (5D, 7F)
 There are    78 symmetry adapted cartesian basis functions of A   symmetry.
 There are    78 symmetry adapted basis functions of A   symmetry.
    78 basis functions,   234 primitive gaussians,    78 cartesian basis functions
    51 alpha electrons       51 beta electrons
       nuclear repulsion energy       902.9872419161 Hartrees.
 NAtoms=   22 NActive=   22 NUniq=   22 SFac= 1.00D+00 NAtFMM=   60 NAOKFM=F Big=F
 Integral buffers will be    131072 words long.
 Raffenetti 1 integral format.
 Two-electron integral symmetry is turned on.
 External calculation of energy, first and second derivatives.
 Running external command "~/scripts/MiMe -H 'hf 6-31g(d)' -EF 'wb97xd def2svp' -c 12 -m 48GB R"
         input file       "/local/jobs/1157665/Gau-563528.EIn"
         output file      "/local/jobs/1157665/Gau-563528.EOu"
         message file     "/local/jobs/1157665/Gau-563528.EMs"
         fchk file        "/local/jobs/1157665/Gau-563528.EFC"
         mat. el file     "/local/jobs/1157665/Gau-563528.EUF"
 Read checkpoint file Gau-563528_H.chk type G16
 Write formatted file Gau-563528_H.fchk

deriv: 2

spelevel: wb97xd def2svp
gradlevel: wb97xd def2svp
hesslevel: hf 6-31g(d)

runspe: False
runforce: True
runfreq: True

Running Gaussian ...

Parsing files ...
SPE file: Gau-563528_F.out
FORCE file: Gau-563528_F.out
HESS file: Gau-563528_H.out

 ExternalExternalExternalExternalExternalExternalExternalExternalExternalExternal
 Output from external command:
 "~/scripts/MiMe -H 'hf 6-31g(d)' -EF 'wb97xd def2svp' -c 12 -m 48GB R /local/jobs/1157665/Gau-563528.EIn /local/jobs/1157665/Gau-563528.EOu /local/jobs/1157665/Gau-563528.EMs /local/jobs/1157665/Gau-563528.EFC /local/jobs/1157665/Gau-563528.EUF"
  
 --------------------------------------------------
 Force calculation at wb97xd def2svp
 Hessian calculation at hf 6-31g(d)
 ExternalExternalExternalExternalExternalExternalExternalExternalExternalExternal

 Recovered energy= -719.191478424     dipole=     -0.497000000000     -0.059700000000      6.198800000000
 Energy=    -719.191478     NIter=   0.
 Dipole moment=      -0.497000      -0.059700       6.198800
 ***** Axes restored to original set *****
 -------------------------------------------------------------------
 Center     Atomic                   Forces (Hartrees/Bohr)
 Number     Number              X              Y              Z
 -------------------------------------------------------------------
      1        6          -0.002998074   -0.026046995    0.005469828
      2        6          -0.021553439    0.009121697    0.007239989
      3        6           0.008794421   -0.016104241    0.006670388
      4        6           0.029253683    0.000365441   -0.012995533
      5        7          -0.033196176    0.012342224   -0.044198793
      6        1           0.001818581    0.003030633   -0.000379657
      7        1           0.005309831    0.003592100   -0.001583770
      8        1           0.003390657    0.003093899    0.004079928
      9        1          -0.001098521    0.001276364    0.002066782
     10        8           0.013863570   -0.002387843    0.027362139
     11        6          -0.021384380    0.012179575    0.007953466
     12        8           0.017052634   -0.013643645    0.000177909
     13        6           0.009569933    0.005158054   -0.001863612
     14        8          -0.005574821    0.006114509    0.014178786
     15        8          -0.004161892   -0.004308966   -0.014749675
     16        6          -0.001746571    0.000873173    0.003996286
     17        1           0.001133048    0.000293119    0.003166384
     18        1           0.000618855   -0.000729925   -0.002333115
     19        1           0.001117584   -0.000750723   -0.002210021
     20        6           0.004094469    0.004977634   -0.002373873
     21        7          -0.005586141    0.000614703    0.001282330
     22        1           0.001282747    0.000939215   -0.000956165
 -------------------------------------------------------------------
 Cartesian Forces:  Max     0.044198793 RMS     0.011610835
 FormGI is forming the generalized inverse of G from B-inverse, IUseBI=4.

 GradGradGradGradGradGradGradGradGradGradGradGradGradGradGradGradGradGrad
 Berny optimization.
 Internal  Forces:  Max     0.036198706 RMS     0.008826883
 Search for a saddle point.
 Step number   3 out of a maximum of   50
 All quantities printed in internal units (Hartrees-Bohrs-Radians)
 Swapping is turned off.
 Second derivative matrix not updated -- analytic derivatives used.
 ITU=  0  0  0
     Eigenvalues ---   -0.11964   0.00890   0.01261   0.01464   0.01634
     Eigenvalues ---    0.02176   0.02778   0.03073   0.03764   0.04226
     Eigenvalues ---    0.05246   0.05532   0.06313   0.06853   0.07145
     Eigenvalues ---    0.07933   0.08348   0.09776   0.10448   0.10898
     Eigenvalues ---    0.11297   0.12760   0.13089   0.14492   0.15137
     Eigenvalues ---    0.16142   0.16287   0.19586   0.20717   0.22640
     Eigenvalues ---    0.23314   0.24228   0.24709   0.25898   0.27834
     Eigenvalues ---    0.28963   0.29621   0.30973   0.32734   0.33738
     Eigenvalues ---    0.35033   0.35223   0.35807   0.36168   0.36194
     Eigenvalues ---    0.37342   0.37883   0.39294   0.40398   0.42229
     Eigenvalues ---    0.42410   0.43111   0.47903   0.48868   0.50770
     Eigenvalues ---    0.54029   0.60082   0.89149   0.90567   1.33036
 Eigenvectors required to have negative eigenvalues:
                          R1        R5        D27       D12       D29
   1                    0.72555  -0.22815   0.20537  -0.18990  -0.17531
                          D10       D26       D16       D21       D24
   1                   -0.16499  -0.14627   0.14374   0.14026  -0.13909
 RFO step:  Lambda0=1.754056761D-03 Lambda=-2.05524578D-02.
 Linear search not attempted -- option 19 set.
 Maximum step size (   0.100) exceeded in Quadratic search.
    -- Step size scaled by   0.417
 Iteration  1 RMS(Cart)=  0.02324149 RMS(Int)=  0.00029719
 Iteration  2 RMS(Cart)=  0.00037170 RMS(Int)=  0.00010938
 Iteration  3 RMS(Cart)=  0.00000011 RMS(Int)=  0.00010938
 Variable       Old X    -DE/DX   Delta X   Delta X   Delta X     New X
                                 (Linear)    (Quad)   (Total)
    R1        4.01182  -0.02862   0.00000   0.00619   0.00619   4.01802
    R2        2.64831  -0.02022   0.00000  -0.02955  -0.02951   2.61881
    R3        2.60829  -0.02570   0.00000  -0.02839  -0.02840   2.57989
    R4        2.71380  -0.00300   0.00000  -0.00310  -0.00310   2.71069
    R5        2.69927  -0.02592   0.00000  -0.03631  -0.03631   2.66296
    R6        2.07039  -0.00078   0.00000  -0.00119  -0.00119   2.06920
    R7        2.06772   0.00011   0.00000  -0.00052  -0.00052   2.06720
    R8        2.60796  -0.02012   0.00000  -0.02509  -0.02499   2.58297
    R9        2.04617   0.00213   0.00000   0.00168   0.00168   2.04786
   R10        2.76301  -0.00792   0.00000  -0.01163  -0.01167   2.75134
   R11        2.05724   0.00220   0.00000   0.00261   0.00261   2.05985
   R12        2.80174  -0.00022   0.00000   0.00030   0.00030   2.80204
   R13        1.91662  -0.00076   0.00000  -0.00009  -0.00009   1.91653
   R14        2.61496   0.00384   0.00000   0.01252   0.01243   2.62739
   R15        2.27828  -0.01969   0.00000  -0.00925  -0.00925   2.26903
   R16        2.28899  -0.01500   0.00000  -0.00575  -0.00575   2.28325
   R17        2.54392  -0.00624   0.00000  -0.00626  -0.00626   2.53766
   R18        2.69386  -0.00239   0.00000  -0.00390  -0.00390   2.68996
   R19        2.06799   0.00133   0.00000   0.00101   0.00101   2.06900
   R20        2.07281   0.00130   0.00000   0.00176   0.00176   2.07458
   R21        2.07257   0.00135   0.00000   0.00130   0.00130   2.07387
   R22        2.19005  -0.00555   0.00000  -0.00176  -0.00176   2.18829
    A1        1.69132  -0.00528   0.00000   0.00300   0.00288   1.69420
    A2        1.74737  -0.00583   0.00000  -0.00646  -0.00647   1.74090
    A3        1.82855   0.01124   0.00000   0.00969   0.00965   1.83820
    A4        1.94227  -0.00892   0.00000  -0.01992  -0.01989   1.92238
    A5        2.09917   0.00525   0.00000   0.00855   0.00849   2.10766
    A6        2.06430   0.00248   0.00000   0.00611   0.00610   2.07039
    A7        1.80098  -0.03620   0.00000  -0.01116  -0.01106   1.78992
    A8        1.75352   0.00763   0.00000  -0.02187  -0.02184   1.73168
    A9        1.78169   0.00956   0.00000  -0.01773  -0.01763   1.76407
   A10        2.02589   0.00697   0.00000   0.00954   0.00911   2.03499
   A11        2.02646   0.00967   0.00000   0.01830   0.01796   2.04442
   A12        2.01352  -0.00368   0.00000   0.00616   0.00554   2.01907
   A13        2.20376   0.00106   0.00000  -0.00708  -0.00714   2.19662
   A14        1.89888  -0.00984   0.00000  -0.01033  -0.01025   1.88863
   A15        2.15007   0.00821   0.00000   0.01690   0.01687   2.16694
   A16        2.09485   0.00150   0.00000   0.00808   0.00805   2.10290
   A17        2.10554  -0.00126   0.00000  -0.00064  -0.00068   2.10486
   A18        2.03466   0.00048   0.00000  -0.00291  -0.00296   2.03170
   A19        1.77213   0.01729   0.00000   0.03107   0.03112   1.80326
   A20        2.12436  -0.00750   0.00000  -0.00458  -0.00478   2.11958
   A21        2.16995  -0.01006   0.00000  -0.00660  -0.00693   2.16303
   A22        1.85062   0.00632   0.00000   0.01510   0.01499   1.86561
   A23        1.83870  -0.00527   0.00000  -0.01216  -0.01227   1.82643
   A24        2.24813   0.01320   0.00000   0.02871   0.02875   2.27689
   A25        2.19626  -0.00790   0.00000  -0.01645  -0.01641   2.17984
   A26        2.17263   0.00275   0.00000   0.00236   0.00234   2.17497
   A27        1.91008   0.00981   0.00000   0.01159   0.01157   1.92165
   A28        2.19926  -0.01247   0.00000  -0.01339  -0.01341   2.18584
   A29        1.99189   0.00755   0.00000   0.01055   0.01055   2.00244
   A30        1.87502  -0.00385   0.00000  -0.00687  -0.00687   1.86815
   A31        1.93451   0.00066   0.00000   0.00032   0.00032   1.93482
   A32        1.92380  -0.00039   0.00000  -0.00016  -0.00016   1.92364
   A33        1.90233   0.00255   0.00000   0.00596   0.00596   1.90829
   A34        1.90342   0.00260   0.00000   0.00656   0.00656   1.90998
   A35        1.92375  -0.00152   0.00000  -0.00558  -0.00558   1.91817
   A36        3.10067  -0.00324   0.00000  -0.01037  -0.01037   3.09030
   A37        3.16142  -0.00099   0.00000  -0.00236  -0.00236   3.15906
    D1        0.82093  -0.00585   0.00000  -0.01010  -0.01012   0.81081
    D2        2.91809  -0.00807   0.00000  -0.01193  -0.01195   2.90614
    D3       -1.28783  -0.00622   0.00000  -0.01875  -0.01870  -1.30654
    D4       -1.15379   0.00590   0.00000   0.01116   0.01112  -1.14267
    D5        0.94338   0.00369   0.00000   0.00933   0.00929   0.95266
    D6        3.02064   0.00554   0.00000   0.00251   0.00253   3.02317
    D7        2.98260   0.00136   0.00000   0.00349   0.00348   2.98609
    D8       -1.20342  -0.00085   0.00000   0.00166   0.00165  -1.20176
    D9        0.87384   0.00100   0.00000  -0.00517  -0.00510   0.86874
   D10       -1.34224   0.01338   0.00000   0.00700   0.00698  -1.33526
   D11        1.16047   0.01052   0.00000   0.03139   0.03147   1.19193
   D12        0.46791   0.00276   0.00000  -0.00316  -0.00318   0.46473
   D13        2.97062  -0.00010   0.00000   0.02123   0.02131   2.99193
   D14        2.99328   0.00141   0.00000  -0.00987  -0.00992   2.98336
   D15       -0.78720  -0.00145   0.00000   0.01452   0.01457  -0.77263
   D16        1.44561  -0.01000   0.00000  -0.00549  -0.00541   1.44020
   D17       -0.32714   0.00070   0.00000  -0.00078  -0.00078  -0.32792
   D18       -2.86616   0.00082   0.00000   0.00456   0.00458  -2.86158
   D19       -1.70329  -0.00189   0.00000  -0.00293  -0.00289  -1.70619
   D20        1.77777  -0.00443   0.00000  -0.01782  -0.01782   1.75995
   D21        2.68077   0.00777   0.00000   0.02575   0.02593   2.70671
   D22       -0.12135   0.00522   0.00000   0.01087   0.01101  -0.11034
   D23        0.22965  -0.00842   0.00000  -0.02299  -0.02316   0.20649
   D24       -2.57248  -0.01097   0.00000  -0.03788  -0.03808  -2.61056
[...]
 -0.00821517,0.02121008,-0.00538857,-0.00640451,-0.00287386,0.00225170,
 -0.05460660,0.03390124,-0.03007468,0.00662951,-0.00633977,-0.00265614,
 0.01407007,-0.01027844,-0.01413509,-0.00042829,0.00076384,-0.00040014,
 0.00032945,0.00087591,0.00065070,0.00080985,-0.00110486,0.00081519,0.0
 0066533,0.00137172,0.00015846,0.01581768,-0.01254157,0.04563213,-0.269
 50080,0.15785160,-0.29381727,0.30432374,-0.17911917,0.29935486,-0.0070
 9068,0.01249616,0.00813966,-0.03155796,0.00771505,-0.01070224,-0.02189
 190,-0.00409983,-0.01285912,-0.19401822,0.02226898,-0.07719332,0.02581
 408,-0.00389127,-0.00429160,-0.00227752,-0.00204904,-0.00039157,0.0006
 5150,0.00318358,0.00184235,0.00194051,0.00178143,-0.00042934,0.0132265
 8,-0.00349482,0.01124468,0.00431658,-0.00112947,-0.00091003,0.01302669
 ,-0.01357070,0.02417280,-0.01560662,0.00537586,-0.00981514,0.64527091,
 0.00073405,-0.01375553,-0.00638624,0.02286286,-0.00060960,0.00509750,0
 .00801491,-0.00329526,0.00400806,0.01722128,-0.07977701,0.02179640,-0.
 01617070,0.00346188,0.00689072,-0.00149408,-0.00511320,0.00130703,0.00
 662678,0.00565111,-0.00270125,-0.00104336,-0.00154138,0.00011366,-0.00
 090931,-0.00067129,-0.00361120,-0.00090156,0.00215668,-0.00175721,-0.0
 1868340,-0.00294662,-0.01347536,0.01010803,-0.00286202,0.00475783,-0.1
 2595089,0.36742060,0.00644652,0.01272961,0.00849096,-0.00583573,-0.000
 08372,0.02451933,-0.01191114,-0.00040307,-0.00747106,-0.04939259,0.007
 07026,-0.16335970,0.01591469,-0.00422115,-0.00816716,0.00381804,-0.001
 57894,-0.00167887,0.00404771,-0.00230891,-0.00299058,-0.00014738,0.000
 13519,-0.00081895,-0.02581345,0.00370375,-0.01629778,0.00170942,-0.003
 14914,-0.00319793,0.01040417,-0.00053762,0.02556151,-0.00951554,0.0002
 7175,-0.01169465,0.07472307,0.16576065,1.06159019,0.00320910,-0.000982
 16,-0.00155834,-0.00069509,0.00033526,-0.00050606,0.00507407,0.0002957
 6,0.00362637,0.00773026,-0.00323848,-0.03992002,-0.00645182,0.00008556
 ,-0.00015542,0.00043976,-0.00049809,-0.00201153,0.00006666,-0.00102076
 ,-0.00127083,-0.00047242,-0.00031800,0.00008377,-0.00664519,0.00156125
 ,-0.00476202,-0.00044373,-0.00076329,-0.00035704,-0.00546463,0.0028102
 7,-0.00581575,0.00429046,-0.00152483,0.00234830,-0.14068029,0.00204526
 ,-0.04600384,0.12925160,-0.00012199,0.00096923,0.00160027,-0.00046843,
 -0.00057625,0.00055907,-0.00089411,0.00107150,-0.00042298,0.00415961,0
 .01809000,-0.00362575,0.00214584,0.00012737,-0.00131580,-0.00066571,0.
 00031241,0.00103748,-0.00059058,-0.00022236,0.00083941,0.00014405,0.00
 024512,-0.00007825,0.00006342,0.00277641,0.00067883,-0.00091472,0.0006
 0026,-0.00006478,0.00527091,-0.00290939,0.00449265,-0.00498288,-0.0002
 1938,-0.00324995,0.00068984,-0.13924989,-0.14438157,-0.02247230,0.1123
 8737,-0.00145957,-0.00657596,-0.00649226,0.01026492,-0.00257393,-0.006
 30462,0.00946059,0.00160925,0.00489658,-0.02753620,-0.00723654,-0.0455
 0973,-0.01191036,0.00184118,0.00485603,-0.00210138,0.00119694,0.000815
 75,-0.00034203,0.00059185,0.00110751,-0.00012326,-0.00026731,0.0005540
 6,-0.00621792,0.00099681,-0.00276100,-0.00101344,0.00215129,0.00275744
 ,-0.00625603,0.00067169,-0.01628046,0.00622549,0.00086554,0.00743332,-
 0.04777100,-0.14625200,-0.74748510,0.03145328,0.19468755,0.87221171,0.
 00161737,-0.00444081,-0.00270226,0.00055366,0.00242638,-0.00951073,0.0
 0645276,0.00038559,0.00566045,-0.05297688,0.02985954,0.02071056,-0.010
 13942,0.00075025,0.00164907,0.00157679,-0.00010409,0.00024625,-0.00304
 280,-0.00021979,0.00069636,-0.00050039,-0.00002355,0.00023485,-0.00108
 396,-0.00004177,0.00002316,-0.00162797,-0.00041097,0.00019711,-0.00674
 227,0.00548109,-0.01030693,0.00675589,-0.00328280,0.00421502,-0.236441
 82,0.07458004,0.05086244,0.00694246,0.02519775,0.05590021,0.52631658,-
 0.00167071,0.00405288,0.00207991,-0.00116872,0.00056248,0.00301839,-0.
 00503000,0.00054590,-0.00359132,0.02324375,0.00159254,-0.00884786,0.00
 650902,-0.00161185,-0.00137512,-0.00081305,0.00047706,-0.00017895,0.00
 049631,-0.00024847,0.00015928,0.00074806,0.00072016,0.00013779,-0.0002
 8205,-0.00057180,0.00004872,0.00031943,0.00032341,0.00071335,0.0071990
 1,-0.00414065,0.00630175,-0.00674273,0.00203490,-0.00185580,0.07587761
 ,-0.12337369,-0.04551955,0.02578598,0.00869235,-0.04675586,-0.19088076
 ,0.19761103,-0.00129625,0.00140280,-0.00030309,-0.00344943,0.00045527,
 -0.00240966,-0.00109686,-0.00058333,-0.00013995,-0.01818122,0.00710829
 ,0.01542293,0.00097014,-0.00069204,0.00026595,-0.00112950,0.00039002,0
 .00012057,-0.00083407,0.00061650,0.00075836,0.00061285,0.00070058,0.00
 012132,0.00103715,-0.00060975,0.00269724,0.00074131,-0.00049521,0.0008
 5462,-0.00108744,0.00085823,-0.00228348,0.00102485,-0.00009066,0.00176
 956,0.03560963,-0.03572699,-0.17880705,0.05801487,-0.04763008,-0.06546
 762,0.02017843,0.05400038,0.40719511,-0.00018452,0.00078566,0.00055908
 ,-0.00115625,0.00006619,0.00020148,-0.00194773,-0.00021503,-0.00127936
 ,0.00451461,0.00114717,0.00178844,0.00289348,0.00031051,-0.00029833,-0
 .00023415,0.00008275,-0.00003977,0.00023115,-0.00006719,0.00017749,-0.
 00004355,-0.00031597,-0.00020452,0.00011368,-0.00003509,-0.00060039,0.
 00078038,0.00004246,-0.00027556,-0.00061395,-0.00160893,0.00237732,-0.
 00085657,0.00162073,-0.00146719,-0.06333103,0.03052718,0.00362580,0.00
 297060,-0.00899653,-0.01710667,-0.17247684,0.03400465,-0.05522508,0.58
 508622,0.00067996,-0.00063970,-0.00054575,0.00052486,0.00055461,0.0000
 2226,0.00159083,-0.00014438,0.00164149,0.00031585,0.00418720,-0.001989
 72,-0.00183738,0.00006738,0.00031896,0.00023172,0.00011285,-0.00001128
 ,-0.00031163,-0.00029652,-0.00003677,0.00000798,0.00018777,0.00004431,
 -0.00023820,-0.00033002,0.00003807,0.00015576,-0.00049802,-0.00014556,
 -0.00317814,0.00250196,-0.00340469,0.00318552,-0.00114419,0.00181509,0
 .03052625,-0.01027106,0.00695516,-0.00462708,-0.00275690,0.00613806,0.
 03240009,-0.09303830,0.00927867,0.01358177,0.63374715,-0.00040740,0.00
 036676,0.00052870,0.00063363,-0.00049382,0.00155054,-0.00149187,0.0003
 8552,-0.00148191,0.00577872,-0.00347670,-0.00308572,0.00163068,0.00001
 983,-0.00033986,-0.00026282,-0.00000050,-0.00001924,0.00062950,-0.0000
 3466,-0.00012302,-0.00015368,-0.00016479,-0.00007165,0.00005506,0.0002
 0329,0.00017587,-0.00025277,0.00064122,-0.00001866,0.00298094,-0.00286
 214,0.00370729,-0.00371899,0.00133615,-0.00239108,0.00606831,0.0039403
 3,0.03426057,0.00389132,-0.00334070,-0.01114929,-0.08436603,0.02151016
 ,-0.16648837,-0.06512196,0.02776420,0.62533538,0.00018514,-0.00018956,
 -0.00017046,-0.00020004,0.00010632,-0.00053076,0.00047151,0.00009755,0
 .00033550,-0.00142816,0.00083575,0.00112708,-0.00068164,0.00000831,0.0
 0002125,0.00008191,-0.00000520,0.00000330,-0.00017041,0.00001715,0.000
 03937,-0.00008605,-0.00001049,0.00001398,-0.00003379,-0.00001114,-0.00
 004094,-0.00013896,-0.00000660,0.00002850,-0.00006445,0.00021419,-0.00
 041609,0.00011313,-0.00031341,0.00006022,-0.00014435,-0.00149869,-0.00
 768444,0.00090816,0.00030239,0.00150239,-0.03377690,0.01956628,0.01689
 772,-0.16199027,0.06210356,0.10478645,0.18809785,-0.00005043,0.0000872
 3,0.00008889,0.00004361,-0.00003323,0.00019646,-0.00023587,0.00003340,
 -0.00018453,0.00059497,-0.00020004,-0.00045010,0.00030324,-0.00000591,
 -0.00004989,-0.00003868,0.00000839,0.00000193,0.00005802,-0.00001322,-
 0.00000902,-0.00000284,0.00000543,-0.00002146,0.00002971,0.00001816,0.
 00003018,0.00000115,0.00004975,0.00000313,0.00033096,-0.00027129,0.000
 44695,-0.00039143,0.00004048,-0.00030452,-0.00037344,0.00058978,0.0023
 5612,0.00051910,0.00057813,-0.00031841,0.01166618,-0.00537365,-0.00523
 098,0.06453667,-0.11247373,-0.06934022,-0.08053752,0.11200363,-0.00004
 879,-0.00000785,-0.00004097,-0.00015149,0.00005453,-0.00023038,-0.0000
 0550,-0.00011235,0.00008379,-0.00060783,0.00039595,0.00080547,0.000065
 11,0.00003817,0.00005672,-0.00001482,0.00000544,0.00001113,-0.00006916
 ,0.00002023,0.00004484,0.00002164,-0.00000824,0.00000533,0.00004231,-0
 .00002255,-0.00000184,0.00012412,-0.00007888,-0.00001423,-0.00048709,0
 .00027917,-0.00039106,0.00053877,0.00007322,0.00035177,-0.00355629,0.0
 0028894,-0.00579423,0.00221290,-0.00065980,0.00232558,-0.02489596,0.01
 475390,0.01715027,0.11856633,-0.07609765,-0.18412281,-0.11453362,0.077
 41379,0.19032186,-0.00007579,-0.00003866,-0.00007333,0.00011020,0.0001
 1724,-0.00017180,0.00011829,0.00013974,0.00006980,-0.00055368,0.001033
 32,0.00027268,-0.00025340,-0.00007304,0.00004699,-0.00002747,0.0000228
 7,0.00000923,-0.00011397,-0.00003046,0.00003881,0.00002152,0.00007370,
 0.00002792,0.00011354,-0.00014674,0.00011930,-0.00011181,0.00001372,0.
 00008805,0.00024549,0.00001529,-0.00016356,-0.00019716,-0.00006861,0.0
 0004109,0.00453646,-0.00569291,-0.00787907,0.00033823,0.00130302,0.003
 98628,-0.02882207,-0.01807478,-0.02104862,-0.10097941,-0.07434329,-0.0
 3567173,0.01330669,0.01922955,0.00914090,0.11416591,-0.00014145,0.0002
 7037,0.00014526,-0.00007316,-0.00005048,-0.00000150,-0.00033466,0.0001
 2725,-0.00040088,-0.00015607,-0.00063938,0.00026847,0.00037408,-0.0001
 3018,-0.00011080,-0.00002829,-0.00000470,-0.00000402,0.00001883,0.0000
 4060,0.00000722,0.00003008,-0.00000297,0.00000800,0.00003666,0.0000300
 2,0.00004066,-0.00013470,0.00009801,0.00009323,0.00097156,-0.00058360,
 0.00083201,-0.00105954,0.00020020,-0.00036776,0.00026078,0.00053906,-0
 .00126086,0.00207440,0.00002982,0.00089148,0.00815447,0.01817807,0.007
 76802,-0.08415098,-0.24065266,-0.08939058,-0.00484000,-0.00945132,-0.0
 0431040,0.08695709,0.24967494,0.00006585,-0.00013566,-0.00006958,0.000
 10903,0.00011321,-0.00013922,0.00028280,-0.00005928,0.00027818,-0.0005
 8832,0.00040582,0.00011851,-0.00033057,-0.00000312,0.00007854,0.000030
 25,-0.00000091,0.00001455,-0.00008733,-0.00002263,0.00000235,0.0000346
 2,0.00005437,0.00001981,0.00000922,-0.00011129,0.00003805,0.00005246,-
 0.00011922,-0.00003352,-0.00061842,0.00062321,-0.00072841,0.00086811,-
 0.00025029,0.00038387,0.00381646,-0.00255280,-0.00226148,0.00024924,0.
 00087036,0.00144762,-0.02047095,-0.01147783,-0.01296586,-0.03990369,-0
 .08521438,-0.11108098,-0.00897614,-0.01917052,-0.00769378,0.05516452,0
 .09707144,0.11849949,-0.00010723,-0.00068348,-0.00035478,0.00049718,0.
 00003108,-0.00019012,0.00061261,-0.00036508,0.00054859,-0.00136255,-0.
 00034999,0.00028990,-0.00072087,0.00026020,0.00041190,-0.00000308,-0.0
 0000615,0.00001992,-0.00003739,-0.00001743,-0.00001348,0.00000710,-0.0
 0000117,0.00003113,0.00009906,-0.00000417,0.00016578,0.00034245,-0.000
 16808,-0.00013844,-0.00195162,0.00127787,-0.00176726,0.00108169,-0.000
 59581,0.00100686,0.00570956,-0.00109673,-0.00581856,-0.00081980,0.0009
 9267,0.00193000,-0.00353976,0.03117376,-0.03200483,-0.09231496,-0.0609
 2011,0.06521955,-0.00449803,-0.01565407,0.01366342,-0.00188254,-0.0079
 6520,0.01024479,0.09882499,-0.00002767,-0.00001102,-0.00001011,0.00002
 528,0.00002413,0.00001993,-0.00001739,0.00009979,-0.00018083,0.0002673
 1,-0.00007004,-0.00030724,0.00003607,0.00002299,-0.00000027,0.00002445
 ,-0.00002305,-0.00000273,0.00000762,-0.00002181,-0.00001350,-0.0000250
 7,-0.00002861,-0.00000890,-0.00010157,0.00001120,-0.00010295,0.0000790
 2,-0.00002264,-0.00000501,0.00026376,-0.00017413,0.00039708,-0.0009483
 2,-0.00026481,-0.00025398,-0.00263214,0.00139816,0.00561222,-0.0008993
 4,0.00049742,-0.00273605,0.00742630,-0.00550169,0.00870699,-0.05111304
 ,-0.17939225,0.11313239,0.00408263,0.01443615,-0.01202604,-0.01044300,
 -0.01760353,0.01994225,0.05400003,0.18663247,0.00018309,-0.00039508,-0
 .00017821,0.00015125,0.00000846,-0.00005746,0.00050066,-0.00022872,0.0
 0063270,-0.00068093,0.00024228,0.00008597,-0.00054736,0.00016001,0.000
 15326,0.00003890,-0.00000696,0.00002783,-0.00004515,-0.00000744,-0.000
 01406,-0.00001124,0.00003196,-0.00001254,0.00003523,-0.00002100,0.0000
 9010,0.00019640,-0.00022787,-0.00012736,-0.00157432,0.00114797,-0.0014
 3923,0.00202354,-0.00037919,0.00064136,0.00454995,-0.00250505,-0.00307
 529,-0.00018820,0.00022842,0.00200254,-0.00929605,0.01743476,-0.017457
 59,0.05449875,0.11324215,-0.18498827,0.00747119,0.01457747,-0.01287072
 ,-0.00401812,-0.01124429,0.01405334,-0.05331320,-0.13215113,0.20247871
 ,-0.28089846,0.10850865,0.05955885,-0.02185397,-0.01323439,0.00696456,
 0.01632133,0.00185696,0.00927918,0.00479306,-0.00659729,-0.00272021,-0
 .02743899,0.00246552,0.01272653,0.00087015,0.00197230,-0.00020215,0.00
 130181,0.00245685,-0.00034007,-0.00005312,0.00119270,0.00024845,0.0005
 7292,0.00056028,0.00048126,-0.04633233,0.01434168,0.00369778,0.0027066
 8,-0.00849855,-0.02146714,0.00105042,0.00214881,0.00528272,-0.00062259
 ,-0.00014644,-0.00218290,0.00007375,0.00012536,0.00100169,0.00101459,0
 .00009368,0.00042426,-0.00066155,0.00000209,-0.00016152,0.00005093,-0.
 00002870,-0.00002162,0.00010141,0.00006601,0.00003670,0.00001992,-0.00
 000058,-0.00004370,1.44789131,0.06743157,-0.06642602,-0.01147765,-0.00
 655919,0.00355416,0.00290260,-0.02234592,0.01125978,-0.01446840,0.0031
 9530,-0.00288676,0.00028198,0.04173273,-0.02833840,-0.02243860,-0.0010
 5919,-0.00073511,-0.00037304,-0.00115858,-0.00146313,0.00138572,0.0022
 8363,0.00236419,-0.00083061,-0.00022135,0.00028008,-0.00060873,0.03391
 528,-0.02122182,-0.00214011,-0.00166556,0.00424900,0.02750663,-0.00234
 355,0.00110308,-0.00743398,-0.00205994,0.00238608,-0.00041491,0.000445
 92,-0.00055076,0.00046369,0.00041364,-0.00085859,-0.00041169,0.0002083
 9,0.00024113,-0.00007717,0.00002711,-0.00001007,0.00001811,-0.00004951
 ,-0.00010001,0.00001465,0.00010056,-0.00000404,0.00010555,-0.51505439,
 0.32613243,0.05563886,-0.03218036,-0.10312604,0.00657778,0.00368796,-0
 .00127880,-0.00768634,-0.00257418,-0.01067198,-0.00101992,0.00235675,0
 .00099981,0.05011352,-0.00868712,-0.00615864,-0.00071205,-0.00054312,0
 .00029511,0.00013327,-0.00066623,0.00012543,0.00088289,-0.00212672,0.0
 0096719,-0.00018527,-0.00027151,-0.00013390,-0.02713904,0.01061328,0.0
 1583045,0.00225789,-0.00024294,-0.00199327,-0.00396438,0.00244138,-0.0
 0094358,-0.00025757,0.00040780,0.00024006,0.00011367,-0.00020187,-0.00
 000405,-0.00012547,-0.00019236,-0.00009833,0.00019655,0.00008503,-0.00
 003594,-0.00001324,-0.00000009,0.00001872,-0.00003576,-0.00004491,0.00
 000701,0.00004430,-0.00000384,0.00004972,-0.33584168,0.13007215,0.2341
 5872,-0.02128894,0.00975905,0.01399082,0.00488252,0.00606017,-0.001350
 08,-0.00906401,0.00166371,-0.00398754,-0.00096706,0.00074152,0.0007448
 9,0.00848501,-0.00409030,-0.00663328,-0.00020901,-0.00054435,-0.000086
 44,-0.00010758,-0.00088308,0.00036904,0.00022385,0.00012067,-0.0003749
 1,-0.00027759,-0.00004440,-0.00028016,0.00758483,-0.00236998,0.0011498
 4,0.00074797,0.00141985,0.00989018,-0.00254528,0.00077475,-0.00337800,
 0.00047421,0.00048318,0.00095491,-0.00018736,-0.00023315,-0.00047243,-
 0.00073587,-0.00008867,-0.00025702,0.00051811,0.00002695,0.00010863,-0
 .00004540,0.00002178,0.00002583,-0.00007160,-0.00006069,-0.00002335,0.
 00002413,0.00000128,0.00004332,-1.10036967,0.40453576,0.26099819,1.114
 00885,0.01400087,0.00996697,-0.00734327,-0.00206902,-0.00292359,0.0004
 7550,0.00676676,-0.00214187,0.00342281,-0.00010775,-0.00035339,-0.0005
 2101,-0.00722631,0.00717300,0.00490451,0.00062094,0.00060102,0.0001273
 2,0.00062841,0.00105940,-0.00069569,-0.00055888,-0.00070495,0.00031313
 ,0.00009542,0.00004539,0.00024669,-0.00479144,0.00418460,0.00019064,0.
 00003376,-0.00044340,-0.00738021,0.00135150,-0.00068694,0.00234956,0.0
 0027824,-0.00069732,-0.00027769,-0.00009049,0.00027505,0.00012006,0.00
 001920,0.00029204,0.00015579,-0.00017152,-0.00009226,0.00001732,-0.000
 00119,-0.00000023,-0.00001158,0.00003324,0.00004483,-0.00000008,-0.000
 03276,0.00000174,-0.00004479,0.40792917,-0.22739920,-0.10178109,-0.417
 16102,0.21177394,0.01073694,-0.00263548,0.01482508,-0.00145367,-0.0014
 8088,0.00008647,0.00208524,0.00000275,0.00215078,0.00037909,-0.0002738
 0,0.00008026,-0.00539468,0.00084086,0.00137294,0.00034837,0.00023076,-
 0.00000170,-0.00019334,0.00005592,-0.00001605,-0.00010698,0.00023898,-
 0.00004752,0.00001978,0.00003009,0.00007873,0.00178872,-0.00046223,-0.
 00195907,-0.00041693,0.00010861,-0.00139930,0.00102657,-0.00059762,0.0
 0084369,-0.00010500,-0.00016044,-0.00047920,0.00002962,0.00008759,0.00
 029676,0.00016166,0.00004860,0.00013858,-0.00012930,-0.00001340,-0.000
 04038,0.00000960,-0.00000369,-0.00000217,0.00002157,0.00001875,0.00000
 240,-0.00000816,-0.00000496,-0.00001551,0.26300204,-0.10187907,-0.1285
 2301,-0.27147522,0.10564910,0.11248967,0.00604171,-0.01426275,0.001936
 45,0.00365929,0.00126387,-0.00096363,-0.00725707,0.00089971,-0.0303752
 4,-0.00086892,0.00304636,0.00105614,-0.15513995,0.07567838,-0.14486154
 ,-0.00006549,-0.00012503,0.00010715,0.00004740,-0.00048901,0.00008761,
 0.00003681,-0.00108673,0.00110474,-0.00050033,-0.00073359,0.00023442,0
 .00632646,0.00316264,0.00721759,-0.00733438,0.00608392,0.00163624,0.00
 043572,-0.00043767,-0.00178416,-0.00130409,0.00038451,-0.00032214,0.00
 056522,-0.00005447,0.00058544,0.00067684,-0.00026604,0.00009913,-0.000
 31744,0.00012265,-0.00017402,0.00004311,-0.00002196,-0.00000916,0.0000
 3117,0.00000078,0.00003472,0.00001913,-0.00000562,0.00002599,0.0014624
 1,-0.00177273,0.00002380,-0.00108012,0.00045289,-0.00032592,0.15452252
 ,-0.01756774,0.00620605,-0.01756660,0.00123007,0.00085714,-0.00050106,
 -0.00431265,-0.00288430,0.01193251,-0.00014415,0.00092660,0.00060021,0
 .08433452,-0.07250679,0.08935497,0.00019160,-0.00017155,0.00014394,-0.
 00016928,-0.00119087,0.00004523,-0.00105185,-0.00150548,-0.00017548,-0
 .00033472,-0.00017837,0.00011869,0.00527180,0.00156844,-0.00244441,0.0
 0514856,0.00267428,-0.00024809,-0.00024015,-0.00039324,0.00082682,-0.0
 0120223,0.00056052,-0.00045758,0.00047605,-0.00016751,0.00049067,0.000
 64404,-0.00036413,0.00002918,-0.00023984,0.00012995,-0.00013588,0.0000
 5255,-0.00001783,-0.00000610,0.00002220,-0.00001434,0.00002269,0.00002
 408,-0.00000642,0.00003247,-0.00015971,-0.00157602,-0.00014802,-0.0001
 3301,0.00002518,0.00019955,-0.07184013,0.06802869,-0.01717277,0.014269
 66,-0.01310662,0.00222400,0.00058643,-0.00054990,-0.00124246,-0.001173
 15,0.01134171,0.00056260,0.00167728,0.00146950,-0.15221954,0.07119883,
 -0.35870333,-0.00004879,-0.00005384,-0.00000136,-0.00026243,-0.0004648
 4,0.00035540,-0.00000034,0.00001977,0.00016045,0.00003392,-0.00021699,
 -0.00002424,0.00039146,-0.00334138,-0.00395336,0.00339935,-0.00008841,
 -0.00033095,-0.00002821,-0.00049506,0.00121460,-0.00188470,0.00075962,
 -0.00108358,0.00052570,-0.00011012,0.00074923,0.00093881,-0.00041233,-
 0.00007351,-0.00033939,0.00011577,-0.00012119,0.00006913,-0.00003149,-
 0.00001328,0.00003484,-0.00000853,0.00002911,0.00003268,-0.00000332,0.
 00002073,0.00027695,-0.00019713,0.00027531,0.00004279,0.00008297,0.000
 11854,0.16466641,-0.08211371,0.36222674\\0.00000485,0.00000206,-0.0000
 0006,-0.00000078,-0.00000248,-0.00000142,0.00000361,-0.00000137,-0.000
 00009,-0.00000011,0.00000301,-0.00000002,-0.00000247,0.00000082,0.0000
 0082,-0.00000050,0.00000352,-0.00000226,0.00000057,-0.00000229,-0.0000
 0360,-0.00000291,-0.00000301,0.00000017,0.00000190,-0.00000342,-0.0000
 0056,0.00000463,0.00000372,0.00000283,-0.00000279,-0.00000153,0.000000
 98,0.00000146,0.00000060,-0.00000244,0.00000399,0.00000155,-0.00000147
 ,-0.00000827,-0.00000154,0.00000033,0.00000286,0.00000013,0.00000241,0
 .00000356,0.00000353,-0.00000114,0.00000361,0.00000369,0.00000375,-0.0
 0000493,-0.00000087,0.00000868,-0.00000423,-0.00000418,-0.00000326,-0.
 00000540,0.00000579,-0.00002989,0.00000446,-0.00000497,0.00002489,-0.0
 0000310,-0.00000274,0.00000135\\\@
 The archive entry for this job was punched.


 THERE IS SOMETHING FASCINATING ABOUT SCIENCE.
 ONE GETS SUCH WHOLESALE CONJECTURE OUT OF SUCH TRIFLING INVESTMENTS.

                                                       -- MARK TWAIN
 Job cpu time:       0 days  3 hours 11 minutes 21.3 seconds.
 Elapsed time:       0 days  0 hours 31 minutes 34.4 seconds.
 File lengths (MBytes):  RWF=      6 Int=      0 D2E=      0 Chk=      2 Scr=      1
 Normal termination of Gaussian 16 at Tue Jan 16 22:16:56 2024.
