Unloading slurm/anatra/current
  ERROR: No such file or directory on
    '/cm/local/modulefiles/slurm/anatra/current'
environment: line 0: unalias: gv: not found
environment: line 0: unalias: sl: not found
 Entering Gaussian System, Link 0=g16
 Initial command:
 /apps/gaussian/g16/C.01/g16/l1.exe "/local/jobs/1157667/Gau-583018.inp" -scrdir="/local/jobs/1157667/"
 Entering Link 1 = /apps/gaussian/g16/C.01/g16/l1.exe PID=    583021.
  
 Copyright (c) 1988-2019, Gaussian, Inc.  All Rights Reserved.
  
 This is part of the Gaussian(R) 16 program.  It is based on
 the Gaussian(R) 09 system (copyright 2009, Gaussian, Inc.),
 the Gaussian(R) 03 system (copyright 2003, Gaussian, Inc.),
 the Gaussian(R) 98 system (copyright 1998, Gaussian, Inc.),
 the Gaussian(R) 94 system (copyright 1995, Gaussian, Inc.),
 the Gaussian 92(TM) system (copyright 1992, Gaussian, Inc.),
 the Gaussian 90(TM) system (copyright 1990, Gaussian, Inc.),
 the Gaussian 88(TM) system (copyright 1988, Gaussian, Inc.),
 the Gaussian 86(TM) system (copyright 1986, Carnegie Mellon
 University), and the Gaussian 82(TM) system (copyright 1983,
 Carnegie Mellon University). Gaussian is a federally registered
 trademark of Gaussian, Inc.
  
 This software contains proprietary and confidential information,
 including trade secrets, belonging to Gaussian, Inc.
  
 This software is provided under written license and may be
 used, copied, transmitted, or stored only in accord with that
 written license.
  
 The following legend is applicable only to US Government
 contracts under FAR:
  
                    RESTRICTED RIGHTS LEGEND
  
 Use, reproduction and disclosure by the US Government is
 subject to restrictions as set forth in subparagraphs (a)
 and (c) of the Commercial Computer Software - Restricted
 Rights clause in FAR 52.227-19.
  
 Gaussian, Inc.
 340 Quinnipiac St., Bldg. 40, Wallingford CT 06492
  
  
 ---------------------------------------------------------------
 Warning -- This program may not be used in any manner that
 competes with the business of Gaussian, Inc. or will provide
 assistance to any competitor of Gaussian, Inc.  The licensee
 of this program is prohibited from giving any competitor of
 Gaussian, Inc. access to this program.  By using this program,
 the user acknowledges that Gaussian, Inc. is engaged in the
 business of creating and licensing software in the field of
 computational chemistry and represents and warrants to the
 licensee that it is not a competitor of Gaussian, Inc. and that
 it will not use this program in any manner prohibited above.
 ---------------------------------------------------------------
  

 Cite this work as:
 Gaussian 16, Revision C.01,
 M. J. Frisch, G. W. Trucks, H. B. Schlegel, G. E. Scuseria, 
 M. A. Robb, J. R. Cheeseman, G. Scalmani, V. Barone, 
 G. A. Petersson, H. Nakatsuji, X. Li, M. Caricato, A. V. Marenich, 
 J. Bloino, B. G. Janesko, R. Gomperts, B. Mennucci, H. P. Hratchian, 
 J. V. Ortiz, A. F. Izmaylov, J. L. Sonnenberg, D. Williams-Young, 
 F. Ding, F. Lipparini, F. Egidi, J. Goings, B. Peng, A. Petrone, 
 T. Henderson, D. Ranasinghe, V. G. Zakrzewski, J. Gao, N. Rega, 
 G. Zheng, W. Liang, M. Hada, M. Ehara, K. Toyota, R. Fukuda, 
 J. Hasegawa, M. Ishida, T. Nakajima, Y. Honda, O. Kitao, H. Nakai, 
 T. Vreven, K. Throssell, J. A. Montgomery, Jr., J. E. Peralta, 
 F. Ogliaro, M. J. Bearpark, J. J. Heyd, E. N. Brothers, K. N. Kudin, 
 V. N. Staroverov, T. A. Keith, R. Kobayashi, J. Normand, 
 K. Raghavachari, A. P. Rendell, J. C. Burant, S. S. Iyengar, 
 J. Tomasi, M. Cossi, J. M. Millam, M. Klene, C. Adamo, R. Cammi, 
 J. W. Ochterski, R. L. Martin, K. Morokuma, O. Farkas, 
 J. B. Foresman, and D. J. Fox, Gaussian, Inc., Wallingford CT, 2019.
 
 ******************************************
 Gaussian 16:  ES64L-G16RevC.01  3-Jul-2019
                16-Jan-2024 
 ******************************************
 %nprocshared=12
 Will use up to   12 processors via shared memory.
 %mem=48GB
 ----------------------------------------------------------------------
 # external="~/scripts/MiMe -H 'hf 6-31g(d)' -EF 'wb97xd def2svp' -c 12
  -m 48GB" opt=(calcall,ts,noeigen,maxcycles=50,maxstep=10,nomicro)
 ----------------------------------------------------------------------
 1/5=1,6=50,8=10,10=4,11=1,18=20,26=1,38=1/1,3;
 2/9=110,12=2,17=6,18=5,40=1/2;
 3/11=9,25=1,30=1,41=9900000,43=2,71=2,140=1/1;
 4/20=17,22=2,24=3,113=1,114=1/2;
 6/7=2,8=2,9=2,10=2,18=1/1;
 7/25=1,44=-1/16;
 1/5=1,6=50,8=10,10=4,11=1,18=20,26=1/3(3);
 2/9=110/2;
 7/8=1,9=1,25=1,44=-1/16;
 99//99;
 2/9=110/2;
 3/11=9,25=1,30=1,41=9900000,43=2,71=2,140=1/1;
 4/16=2,20=17,22=2,24=3,113=1,114=1/2;
 7/25=1,44=-1/16;
 1/5=1,6=50,8=10,10=4,11=1,18=20,26=1/3(-4);
 2/9=110/2;
 6/7=2,8=2,9=2,10=2,18=1/1;
 7/8=1,9=1,25=1,44=-1/16;
 99//99;
 -----
 *****
 -----
 Symbolic Z-matrix:
 Charge =  0 Multiplicity = 1
 C                    -1.3702   -1.1403    0.2064 
 C                    -0.7558    1.0745    0.4479 
 C                     0.8224   -1.0488   -0.4901 
 C                     0.4828    1.0089   -0.3265 
 C                    -0.5147   -1.684     1.261 
 C                     0.7603   -1.6448    0.8547 
 H                     1.6214   -1.9327    1.4402 
 C                     2.1344   -0.8467   -1.1832 
 H                     2.732    -1.7637   -1.2043 
 H                     1.9589   -0.5494   -2.2243 
 C                     2.8795    0.2805   -0.4393 
 H                     3.5219   -0.1491    0.3372 
 H                     3.493     0.8687   -1.1278 
 C                     1.8545    1.1796    0.2336 
 O                     2.1015    1.9406    1.1586 
 H                    -0.8674   -2.0171    2.2257 
 H                     0.4116    1.3562   -1.3585 
 H                    -0.7091    1.1299    1.5312 
 C                    -0.5513   -1.3121   -1.0671 
 H                    -0.6272   -2.3346   -1.4563 
 H                    -0.8476   -0.617    -1.8576 
 Cl                   -2.0176    2.097    -0.1611 
 C                    -2.8412   -1.3691    0.2271 
 H                    -3.3446   -0.7133   -0.4888 
 H                    -3.0749   -2.4056   -0.0352 
 H                    -3.253    -1.1641    1.2206 
 

 GradGradGradGradGradGradGradGradGradGradGradGradGradGradGradGradGradGrad
 Berny optimization.
 Initialization pass.
                           ----------------------------
                           !    Initial Parameters    !
                           ! (Angstroms and Degrees)  !
 --------------------------                            --------------------------
 ! Name  Definition              Value          Derivative Info.                !
 --------------------------------------------------------------------------------
 ! R1    R(1,5)                  1.4628         calculate D2E/DX2 analytically  !
 ! R2    R(1,19)                 1.5238         calculate D2E/DX2 analytically  !
 ! R3    R(1,23)                 1.4888         calculate D2E/DX2 analytically  !
 ! R4    R(2,4)                  1.4622         calculate D2E/DX2 analytically  !
 ! R5    R(2,18)                 1.0857         calculate D2E/DX2 analytically  !
 ! R6    R(2,22)                 1.7345         calculate D2E/DX2 analytically  !
 ! R7    R(3,6)                  1.4723         calculate D2E/DX2 analytically  !
 ! R8    R(3,8)                  1.4975         calculate D2E/DX2 analytically  !
 ! R9    R(3,19)                 1.513          calculate D2E/DX2 analytically  !
 ! R10   R(4,14)                 1.4914         calculate D2E/DX2 analytically  !
 ! R11   R(4,17)                 1.0912         calculate D2E/DX2 analytically  !
 ! R12   R(5,6)                  1.3387         calculate D2E/DX2 analytically  !
 ! R13   R(5,16)                 1.0798         calculate D2E/DX2 analytically  !
 ! R14   R(6,7)                  1.0804         calculate D2E/DX2 analytically  !
 ! R15   R(8,9)                  1.0947         calculate D2E/DX2 analytically  !
 ! R16   R(8,10)                 1.0968         calculate D2E/DX2 analytically  !
 ! R17   R(8,11)                 1.5424         calculate D2E/DX2 analytically  !
 ! R18   R(11,12)                1.0955         calculate D2E/DX2 analytically  !
 ! R19   R(11,13)                1.0938         calculate D2E/DX2 analytically  !
 ! R20   R(11,14)                1.5205         calculate D2E/DX2 analytically  !
 ! R21   R(14,15)                1.223          calculate D2E/DX2 analytically  !
 ! R22   R(19,20)                1.0967         calculate D2E/DX2 analytically  !
 ! R23   R(19,21)                1.0935         calculate D2E/DX2 analytically  !
 ! R24   R(23,24)                1.0936         calculate D2E/DX2 analytically  !
 ! R25   R(23,25)                1.0944         calculate D2E/DX2 analytically  !
 ! R26   R(23,26)                1.0948         calculate D2E/DX2 analytically  !
 ! A1    A(5,1,19)             104.2605         calculate D2E/DX2 analytically  !
 ! A2    A(5,1,23)             120.7107         calculate D2E/DX2 analytically  !
 ! A3    A(19,1,23)            121.6864         calculate D2E/DX2 analytically  !
 ! A4    A(4,2,18)             119.6219         calculate D2E/DX2 analytically  !
 ! A5    A(4,2,22)             117.1749         calculate D2E/DX2 analytically  !
 ! A6    A(18,2,22)            110.5813         calculate D2E/DX2 analytically  !
 ! A7    A(6,3,8)              120.9539         calculate D2E/DX2 analytically  !
 ! A8    A(6,3,19)             103.8625         calculate D2E/DX2 analytically  !
 ! A9    A(8,3,19)             129.9718         calculate D2E/DX2 analytically  !
 ! A10   A(2,4,14)             125.1017         calculate D2E/DX2 analytically  !
 ! A11   A(2,4,17)             115.5514         calculate D2E/DX2 analytically  !
 ! A12   A(14,4,17)            112.2564         calculate D2E/DX2 analytically  !
 ! A13   A(1,5,6)              109.1057         calculate D2E/DX2 analytically  !
 ! A14   A(1,5,16)             124.5925         calculate D2E/DX2 analytically  !
 ! A15   A(6,5,16)             126.2457         calculate D2E/DX2 analytically  !
 ! A16   A(3,6,5)              109.2228         calculate D2E/DX2 analytically  !
 ! A17   A(3,6,7)              124.7004         calculate D2E/DX2 analytically  !
 ! A18   A(5,6,7)              125.9312         calculate D2E/DX2 analytically  !
 ! A19   A(3,8,9)              111.9706         calculate D2E/DX2 analytically  !
 ! A20   A(3,8,10)             109.6154         calculate D2E/DX2 analytically  !
 ! A21   A(3,8,11)             107.3751         calculate D2E/DX2 analytically  !
 ! A22   A(9,8,10)             107.223          calculate D2E/DX2 analytically  !
 ! A23   A(9,8,11)             110.9612         calculate D2E/DX2 analytically  !
 ! A24   A(10,8,11)            109.6933         calculate D2E/DX2 analytically  !
 ! A25   A(8,11,12)            109.7873         calculate D2E/DX2 analytically  !
 ! A26   A(8,11,13)            111.122          calculate D2E/DX2 analytically  !
 ! A27   A(8,11,14)            108.6587         calculate D2E/DX2 analytically  !
 ! A28   A(12,11,13)           109.1555         calculate D2E/DX2 analytically  !
 ! A29   A(12,11,14)           108.2705         calculate D2E/DX2 analytically  !
 ! A30   A(13,11,14)           109.7975         calculate D2E/DX2 analytically  !
 ! A31   A(4,14,11)            112.714          calculate D2E/DX2 analytically  !
 ! A32   A(4,14,15)            122.7514         calculate D2E/DX2 analytically  !
 ! A33   A(11,14,15)           124.5081         calculate D2E/DX2 analytically  !
 ! A34   A(1,19,3)              98.6029         calculate D2E/DX2 analytically  !
 ! A35   A(1,19,20)            111.378          calculate D2E/DX2 analytically  !
 ! A36   A(1,19,21)            112.7595         calculate D2E/DX2 analytically  !
 ! A37   A(3,19,20)            111.1257         calculate D2E/DX2 analytically  !
 ! A38   A(3,19,21)            114.2711         calculate D2E/DX2 analytically  !
 ! A39   A(20,19,21)           108.5024         calculate D2E/DX2 analytically  !
 ! A40   A(1,23,24)            110.7039         calculate D2E/DX2 analytically  !
 ! A41   A(1,23,25)            110.6828         calculate D2E/DX2 analytically  !
 ! A42   A(1,23,26)            110.8222         calculate D2E/DX2 analytically  !
 ! A43   A(24,23,25)           108.2245         calculate D2E/DX2 analytically  !
 ! A44   A(24,23,26)           107.9756         calculate D2E/DX2 analytically  !
 ! A45   A(25,23,26)           108.331          calculate D2E/DX2 analytically  !
 ! D1    D(19,1,5,6)            23.0327         calculate D2E/DX2 analytically  !
 ! D2    D(19,1,5,16)         -159.5491         calculate D2E/DX2 analytically  !
 ! D3    D(23,1,5,6)           164.4171         calculate D2E/DX2 analytically  !
 ! D4    D(23,1,5,16)          -18.1646         calculate D2E/DX2 analytically  !
 ! D5    D(5,1,19,3)           -35.7111         calculate D2E/DX2 analytically  !
 ! D6    D(5,1,19,20)           81.0757         calculate D2E/DX2 analytically  !
 ! D7    D(5,1,19,21)         -156.6622         calculate D2E/DX2 analytically  !
 ! D8    D(23,1,19,3)         -176.6196         calculate D2E/DX2 analytically  !
 ! D9    D(23,1,19,20)         -59.8327         calculate D2E/DX2 analytically  !
 ! D10   D(23,1,19,21)          62.4294         calculate D2E/DX2 analytically  !
 ! D11   D(5,1,23,24)          166.9633         calculate D2E/DX2 analytically  !
 ! D12   D(5,1,23,25)          -73.0335         calculate D2E/DX2 analytically  !
 ! D13   D(5,1,23,26)           47.1809         calculate D2E/DX2 analytically  !
 ! D14   D(19,1,23,24)         -58.3383         calculate D2E/DX2 analytically  !
 ! D15   D(19,1,23,25)          61.6649         calculate D2E/DX2 analytically  !
 ! D16   D(19,1,23,26)        -178.1206         calculate D2E/DX2 analytically  !
 ! D17   D(18,2,4,14)           -7.977          calculate D2E/DX2 analytically  !
 ! D18   D(18,2,4,17)         -156.0965         calculate D2E/DX2 analytically  !
 ! D19   D(22,2,4,14)          130.3078         calculate D2E/DX2 analytically  !
 ! D20   D(22,2,4,17)          -17.8117         calculate D2E/DX2 analytically  !
 ! D21   D(8,3,6,5)            178.4424         calculate D2E/DX2 analytically  !
 ! D22   D(8,3,6,7)              2.6139         calculate D2E/DX2 analytically  !
 ! D23   D(19,3,6,5)           -24.693          calculate D2E/DX2 analytically  !
 ! D24   D(19,3,6,7)           159.4785         calculate D2E/DX2 analytically  !
 ! D25   D(6,3,8,9)             51.8848         calculate D2E/DX2 analytically  !
 ! D26   D(6,3,8,10)           170.7483         calculate D2E/DX2 analytically  !
 ! D27   D(6,3,8,11)           -70.1496         calculate D2E/DX2 analytically  !
 ! D28   D(19,3,8,9)           -98.2635         calculate D2E/DX2 analytically  !
 ! D29   D(19,3,8,10)           20.6            calculate D2E/DX2 analytically  !
 ! D30   D(19,3,8,11)          139.702          calculate D2E/DX2 analytically  !
 ! D31   D(6,3,19,1)            36.0362         calculate D2E/DX2 analytically  !
 ! D32   D(6,3,19,20)          -80.9441         calculate D2E/DX2 analytically  !
 ! D33   D(6,3,19,21)          155.8657         calculate D2E/DX2 analytically  !
 ! D34   D(8,3,19,1)          -170.0468         calculate D2E/DX2 analytically  !
 ! D35   D(8,3,19,20)           72.9729         calculate D2E/DX2 analytically  !
 ! D36   D(8,3,19,21)          -50.2173         calculate D2E/DX2 analytically  !
 ! D37   D(2,4,14,11)          143.9173         calculate D2E/DX2 analytically  !
 ! D38   D(2,4,14,15)          -34.2897         calculate D2E/DX2 analytically  !
 ! D39   D(17,4,14,11)         -67.0704         calculate D2E/DX2 analytically  !
 ! D40   D(17,4,14,15)         114.7226         calculate D2E/DX2 analytically  !
 ! D41   D(1,5,6,3)              0.9437         calculate D2E/DX2 analytically  !
 ! D42   D(1,5,6,7)            176.7081         calculate D2E/DX2 analytically  !
 ! D43   D(16,5,6,3)          -176.4209         calculate D2E/DX2 analytically  !
 ! D44   D(16,5,6,7)            -0.6565         calculate D2E/DX2 analytically  !
 ! D45   D(3,8,11,12)           92.0212         calculate D2E/DX2 analytically  !
 ! D46   D(3,8,11,13)         -147.1267         calculate D2E/DX2 analytically  !
 ! D47   D(3,8,11,14)          -26.2174         calculate D2E/DX2 analytically  !
 ! D48   D(9,8,11,12)          -30.6399         calculate D2E/DX2 analytically  !
 ! D49   D(9,8,11,13)           90.2121         calculate D2E/DX2 analytically  !
 ! D50   D(9,8,11,14)         -148.8786         calculate D2E/DX2 analytically  !
 ! D51   D(10,8,11,12)        -148.9268         calculate D2E/DX2 analytically  !
 ! D52   D(10,8,11,13)         -28.0748         calculate D2E/DX2 analytically  !
 ! D53   D(10,8,11,14)          92.8345         calculate D2E/DX2 analytically  !
 ! D54   D(8,11,14,4)          -17.7035         calculate D2E/DX2 analytically  !
 ! D55   D(8,11,14,15)         160.4666         calculate D2E/DX2 analytically  !
 ! D56   D(12,11,14,4)        -136.897          calculate D2E/DX2 analytically  !
 ! D57   D(12,11,14,15)         41.273          calculate D2E/DX2 analytically  !
 ! D58   D(13,11,14,4)         104.0181         calculate D2E/DX2 analytically  !
 ! D59   D(13,11,14,15)        -77.8119         calculate D2E/DX2 analytically  !
 --------------------------------------------------------------------------------
 Trust Radius=1.00D-01 FncErr=1.00D-07 GrdErr=1.00D-07 EigMax=2.50D+02 EigMin=1.00D-04
 Number of steps in this run=     50 maximum allowed number of steps=    156.
 Search for a saddle point of order  1.
 GradGradGradGradGradGradGradGradGradGradGradGradGradGradGradGradGradGrad

                          Input orientation:                          
 ---------------------------------------------------------------------
 Center     Atomic      Atomic             Coordinates (Angstroms)
 Number     Number       Type             X           Y           Z
 ---------------------------------------------------------------------
      1          6           0       -1.370200   -1.140300    0.206400
      2          6           0       -0.755800    1.074500    0.447900
      3          6           0        0.822400   -1.048800   -0.490100
      4          6           0        0.482800    1.008900   -0.326500
      5          6           0       -0.514700   -1.684000    1.261000
      6          6           0        0.760300   -1.644800    0.854700
      7          1           0        1.621400   -1.932700    1.440200
      8          6           0        2.134400   -0.846700   -1.183200
      9          1           0        2.732000   -1.763700   -1.204300
     10          1           0        1.958900   -0.549400   -2.224300
     11          6           0        2.879500    0.280500   -0.439300
     12          1           0        3.521900   -0.149100    0.337200
     13          1           0        3.493000    0.868700   -1.127800
     14          6           0        1.854500    1.179600    0.233600
     15          8           0        2.101500    1.940600    1.158600
     16          1           0       -0.867400   -2.017100    2.225700
     17          1           0        0.411600    1.356200   -1.358500
     18          1           0       -0.709100    1.129900    1.531200
     19          6           0       -0.551300   -1.312100   -1.067100
     20          1           0       -0.627200   -2.334600   -1.456300
     21          1           0       -0.847600   -0.617000   -1.857600
     22         17           0       -2.017600    2.097000   -0.161100
     23          6           0       -2.841200   -1.369100    0.227100
     24          1           0       -3.344600   -0.713300   -0.488800
     25          1           0       -3.074900   -2.405600   -0.035200
     26          1           0       -3.253000   -1.164100    1.220600
 ---------------------------------------------------------------------
                    Distance matrix (angstroms):
                    1          2          3          4          5
     1  C    0.000000
     2  C    2.311093   0.000000
     3  C    2.302386   2.806949   0.000000
     4  C    2.887326   1.462234   2.091942   0.000000
     5  C    1.462761   2.885928   2.292960   3.281291   0.000000
     6  C    2.283384   3.139847   1.472263   2.917938   1.338746
     7  H    3.331641   3.959671   2.268422   3.615335   2.157982
     8  C    3.781456   3.834678   1.497523   2.627731   3.700394
     9  H    4.382550   4.790605   2.160494   3.676513   4.077391
    10  H    4.164177   4.140930   2.132717   2.865103   4.421915
    11  C    4.527201   3.825306   2.449751   2.507481   4.274444
    12  H    4.993218   4.450637   2.963307   3.319276   4.416273
    13  H    5.428341   4.536241   3.348966   3.118179   5.318299
    14  C    3.972577   2.621190   2.560222   1.491446   3.856017
    15  O    4.738284   3.069102   3.645658   2.386164   4.471321
    16  H    2.258132   3.568055   3.341945   4.182516   1.079814
    17  H    3.443288   2.169161   2.589768   1.091197   4.118571
    18  H    2.710342   1.085720   3.343334   2.210501   2.833519
    19  C    1.523783   2.834238   1.513046   2.646676   2.357901
    20  H    2.177837   3.906978   2.165217   3.699668   2.796365
    21  H    2.192498   2.860932   2.201229   2.599573   3.312850
    22  Cl   3.321791   1.734510   4.250870   2.731908   4.310109
    23  C    1.488831   3.220066   3.746856   4.124358   2.565290
    24  H    2.136326   3.282609   4.180485   4.200155   3.465890
    25  H    2.136670   4.209834   4.151721   4.939726   2.958964
    26  H    2.138715   3.441570   4.421388   4.590387   2.787511
                    6          7          8          9         10
     6  C    0.000000
     7  H    1.080366   0.000000
     8  C    2.584212   2.885272   0.000000
     9  H    2.853282   2.873217   1.094742   0.000000
    10  H    3.480917   3.931410   1.096849   1.764259   0.000000
    11  C    3.142010   3.164426   1.542446   2.187632   2.173123
    12  H    3.182980   2.830148   2.173343   2.367931   3.027291
    13  H    4.208995   4.236196   2.188940   2.741259   2.359403
    14  C    3.091969   3.346137   2.488284   3.391250   3.006927
    15  O    3.840087   3.913087   3.640625   4.438768   4.202909
    16  H    2.160476   2.611180   4.690548   4.978433   5.472167
    17  H    3.745110   4.484774   2.802060   3.891248   2.602894
    18  H    3.211814   3.849549   4.400046   5.262799   4.903270
    19  C    2.350383   3.375252   2.728197   3.317051   2.867390
    20  H    2.782391   3.688826   3.148788   3.416673   3.234915
    21  H    3.316366   4.324640   3.065926   3.815135   2.831162
    22  Cl   4.769659   5.660827   5.191258   6.209023   5.203151
    23  C    3.666155   4.658761   5.197927   5.767597   5.451810
    24  H    4.418471   5.465266   5.524439   6.208087   5.582646
    25  H    4.009925   4.945268   5.557417   5.958097   5.794547
    26  H    4.058514   4.939509   5.907883   6.485359   6.277666
                   11         12         13         14         15
    11  C    0.000000
    12  H    1.095530   0.000000
    13  H    1.093798   1.784090   0.000000
    14  C    1.520461   2.134572   2.152847   0.000000
    15  O    2.431975   2.656893   2.883204   1.223011   0.000000
    16  H    5.140083   5.130479   6.211835   4.647160   5.061270
    17  H    2.844748   3.849064   3.128243   2.155906   3.087568
    18  H    4.181196   4.578519   4.979573   2.873722   2.948820
    19  C    3.834175   4.462688   4.595208   3.699765   4.750910
    20  H    4.491100   5.020765   5.229253   4.622142   5.706211
    21  H    4.087586   4.912088   4.645505   3.860341   4.933150
    22  Cl   5.230550   5.998277   5.727996   3.998821   4.328170
    23  C    5.990966   6.479935   6.853145   5.342800   6.020971
    24  H    6.303135   6.938978   7.047256   5.579926   6.278305
    25  H    6.544716   6.981994   7.419712   6.101221   6.863653
    26  H    6.515343   6.907235   7.426693   5.705581   6.189804
                   16         17         18         19         20
    16  H    0.000000
    17  H    5.085419   0.000000
    18  H    3.226608   3.107659   0.000000
    19  C    3.382229   2.851651   3.569233   0.000000
    20  H    3.703461   3.835450   4.575437   1.096697   0.000000
    21  H    4.316713   2.393367   3.815076   1.093548   1.777574
    22  Cl   4.893423   2.807769   2.347623   3.820057   4.821808
    23  C    2.882740   4.530132   3.534336   2.630940   2.944116
    24  H    3.899349   4.375871   3.797848   2.914707   3.308917
    25  H    3.183655   5.296975   4.533253   2.937536   2.831219
    26  H    2.725605   5.141300   3.439525   3.543255   3.928192
                   21         22         23         24         25
    21  H    0.000000
    22  Cl   3.407757   0.000000
    23  C    2.980951   3.583694   0.000000
    24  H    2.849192   3.125076   1.093617   0.000000
    25  H    3.388377   4.626785   1.094417   1.772673   0.000000
    26  H    3.944690   3.751011   1.094827   1.770215   1.774845
                   26
    26  H    0.000000
 Stoichiometry    C11H13ClO
 Framework group  C1[X(C11H13ClO)]
 Deg. of freedom    72
 Full point group                 C1      NOp   1
 Largest Abelian subgroup         C1      NOp   1
 Largest concise Abelian subgroup C1      NOp   1
                         Standard orientation:                         
 ---------------------------------------------------------------------
 Center     Atomic      Atomic             Coordinates (Angstroms)
 Number     Number       Type             X           Y           Z
 ---------------------------------------------------------------------
      1          6           0       -1.441238   -1.145665    0.162447
      2          6           0       -0.738135    1.047558    0.353671
      3          6           0        0.784761   -1.178142   -0.424794
      4          6           0        0.532613    0.897341   -0.353975
      5          6           0       -0.664408   -1.685256    1.278265
      6          6           0        0.629432   -1.718174    0.936013
      7          1           0        1.446623   -2.020862    1.574581
      8          6           0        2.137078   -1.061207   -1.057363
      9          1           0        2.692155   -2.003820   -1.014576
     10          1           0        2.026706   -0.797082   -2.116198
     11          6           0        2.895894    0.060027   -0.318327
     12          1           0        3.478994   -0.367049    0.504951
     13          1           0        3.568836    0.593406   -0.995859
     14          6           0        1.881601    1.028935    0.268381
     15          8           0        2.117711    1.813619    1.176279
     16          1           0       -1.078943   -1.964768    2.235361
     17          1           0        0.528161    1.207128   -1.400265
     18          1           0       -0.742108    1.142847    1.435195
     19          6           0       -0.569655   -1.402744   -1.060733
     20          1           0       -0.673360   -2.435232   -1.415638
     21          1           0       -0.794532   -0.726448   -1.890131
     22         17           0       -1.920157    2.100352   -0.355537
     23          6           0       -2.920453   -1.308333    0.116841
     24          1           0       -3.357428   -0.659232   -0.647174
     25          1           0       -3.188467   -2.342906   -0.118907
     26          1           0       -3.370600   -1.046949    1.080009
 ---------------------------------------------------------------------
 Rotational constants (GHZ):           0.9244285           0.6743049           0.4755489
 Standard basis: STO-3G (5D, 7F)
 There are    82 symmetry adapted cartesian basis functions of A   symmetry.
 There are    82 symmetry adapted basis functions of A   symmetry.
    82 basis functions,   246 primitive gaussians,    82 cartesian basis functions
    52 alpha electrons       52 beta electrons
       nuclear repulsion energy       908.0129164764 Hartrees.
 NAtoms=   26 NActive=   26 NUniq=   26 SFac= 1.00D+00 NAtFMM=   60 NAOKFM=F Big=F
 Integral buffers will be    131072 words long.
 Raffenetti 1 integral format.
 Two-electron integral symmetry is turned on.
 External calculation of energy, first and second derivatives.
 Running external command "~/scripts/MiMe -H 'hf 6-31g(d)' -EF 'wb97xd def2svp' -c 12 -m 48GB R"
         input file       "/local/jobs/1157667/Gau-583021.EIn"
         output file      "/local/jobs/1157667/Gau-583021.EOu"
         message file     "/local/jobs/1157667/Gau-583021.EMs"
         fchk file        "/local/jobs/1157667/Gau-583021.EFC"
         mat. el file     "/local/jobs/1157667/Gau-583021.EUF"
 Read checkpoint file Gau-583021_H.chk type G16
 Write formatted file Gau-583021_H.fchk

deriv: 2

spelevel: wb97xd def2svp
gradlevel: wb97xd def2svp
hesslevel: hf 6-31g(d)

runspe: False
runforce: True
runfreq: True

Running Gaussian ...

Parsing files ...
SPE file: Gau-583021_F.out
FORCE file: Gau-583021_F.out
HESS file: Gau-583021_H.out

 ExternalExternalExternalExternalExternalExternalExternalExternalExternalExternal
 Output from external command:
 "~/scripts/MiMe -H 'hf 6-31g(d)' -EF 'wb97xd def2svp' -c 12 -m 48GB R /local/jobs/1157667/Gau-583021.EIn /local/jobs/1157667/Gau-583021.EOu /local/jobs/1157667/Gau-583021.EMs /local/jobs/1157667/Gau-583021.EFC /local/jobs/1157667/Gau-583021.EUF"
  
 --------------------------------------------------
 Force calculation at wb97xd def2svp
 Hessian calculation at hf 6-31g(d)
 ExternalExternalExternalExternalExternalExternalExternalExternalExternalExternal

 Recovered energy= -961.646326437     dipole=     -0.013600000000     -3.841900000000     -1.684100000000
 Energy=    -961.646326     NIter=   0.
 Dipole moment=      -0.013600      -3.841900      -1.684100
 ***** Axes restored to original set *****
 -------------------------------------------------------------------
 Center     Atomic                   Forces (Hartrees/Bohr)
 Number     Number              X              Y              Z
 -------------------------------------------------------------------
      1        6           0.015534276   -0.002419620    0.014527655
      2        6           0.025165460   -0.022585668   -0.018047436
      3        6          -0.004429335    0.012610082    0.015743331
      4        6          -0.021236225   -0.032971712    0.026292277
      5        6          -0.037879607    0.012672307   -0.016281519
      6        6           0.027636103    0.016673924   -0.030992173
      7        1           0.007459484    0.000724715    0.004393524
      8        6           0.002409326    0.002146362   -0.006570415
      9        1           0.003197174   -0.003573800   -0.001107518
     10        1          -0.001042977   -0.000650928   -0.002835174
     11        6          -0.004833236   -0.008862506   -0.001695690
     12        1           0.004303113    0.003908736    0.002499569
     13        1           0.005662964    0.003040961    0.000434486
     14        6          -0.002934437    0.023313384    0.025673252
     15        8           0.000713731   -0.019685487   -0.018114633
     16        1          -0.003500551   -0.000526457    0.007940079
     17        1          -0.002224943   -0.004554298   -0.006165094
     18        1           0.003099557   -0.001799130    0.003737807
     19        6           0.002900822    0.019773422    0.009087448
     20        1          -0.001481477   -0.006229005    0.002473783
     21        1          -0.000650856    0.000848145   -0.004001381
     22       17          -0.010341671    0.000337161   -0.005595914
     23        6          -0.000933156    0.009902642   -0.000069257
     24        1          -0.003325322    0.002729021   -0.002740165
     25        1          -0.001444547   -0.004850756   -0.001392684
     26        1          -0.001823672    0.000028504    0.002805842
 -------------------------------------------------------------------
 Cartesian Forces:  Max     0.037879607 RMS     0.012266822
 FormGI is forming the generalized inverse of G from B-inverse, IUseBI=4.

 GradGradGradGradGradGradGradGradGradGradGradGradGradGradGradGradGradGrad
 Berny optimization.
 Internal  Forces:  Max     0.200674620 RMS     0.033152262
 Search for a saddle point.
 Step number   1 out of a maximum of   50
 All quantities printed in internal units (Hartrees-Bohrs-Radians)
 Swapping is turned off.
 Second derivative matrix not updated -- analytic derivatives used.
 ITU=  0
     Eigenvalues ---   -1.55709   0.00408   0.00594   0.01015   0.01211
     Eigenvalues ---    0.01465   0.02135   0.02377   0.02452   0.02752
     Eigenvalues ---    0.03210   0.03501   0.03737   0.04765   0.04824
     Eigenvalues ---    0.05256   0.06279   0.06694   0.07416   0.07486
     Eigenvalues ---    0.08411   0.08846   0.09390   0.09555   0.10504
     Eigenvalues ---    0.11260   0.11449   0.12220   0.13322   0.13674
     Eigenvalues ---    0.13913   0.14393   0.15606   0.15890   0.16832
     Eigenvalues ---    0.18651   0.19732   0.21101   0.22768   0.23597
     Eigenvalues ---    0.24695   0.24880   0.25612   0.26885   0.26934
     Eigenvalues ---    0.29322   0.30083   0.30894   0.32633   0.33734
     Eigenvalues ---    0.34417   0.34757   0.34991   0.35102   0.35172
     Eigenvalues ---    0.35392   0.35820   0.35861   0.36168   0.36283
     Eigenvalues ---    0.36864   0.37360   0.38029   0.38891   0.39334
     Eigenvalues ---    0.39669   0.40101   0.52758   0.75164   0.85512
     Eigenvalues ---    1.18479   2.43809
 Eigenvectors required to have negative eigenvalues:
                          A27       A21       R4        A31       A30
   1                   -0.38876  -0.32556   0.28751  -0.23441   0.23114
                          D47       A19       D56       D46       A25
   1                    0.22362   0.20710   0.18235   0.17723   0.17643
 RFO step:  Lambda0=5.063084142D-02 Lambda=-7.06087802D-02.
 Linear search not attempted -- option 19 set.
 Maximum step size (   0.100) exceeded in Quadratic search.
    -- Step size scaled by   0.341
 Iteration  1 RMS(Cart)=  0.01476858 RMS(Int)=  0.00025696
 Iteration  2 RMS(Cart)=  0.00032649 RMS(Int)=  0.00008086
 Iteration  3 RMS(Cart)=  0.00000004 RMS(Int)=  0.00008086
 Variable       Old X    -DE/DX   Delta X   Delta X   Delta X     New X
                                 (Linear)    (Quad)   (Total)
    R1        2.76422  -0.02123   0.00000  -0.04285  -0.04282   2.72140
    R2        2.87953  -0.00114   0.00000  -0.00532  -0.00532   2.87421
    R3        2.81348   0.00622   0.00000   0.00447   0.00447   2.81795
    R4        2.76322  -0.02681   0.00000  -0.05543  -0.05543   2.70780
    R5        2.05171   0.00377   0.00000   0.00208   0.00208   2.05380
    R6        3.27775   0.00969   0.00000   0.00712   0.00712   3.28487
    R7        2.78217  -0.02556   0.00000  -0.04493  -0.04494   2.73723
    R8        2.82991  -0.00596   0.00000   0.00448   0.00448   2.83438
    R9        2.85924  -0.00364   0.00000  -0.00239  -0.00241   2.85683
   R10        2.81842   0.01206   0.00000   0.00343   0.00343   2.82185
   R11        2.06206   0.00453   0.00000   0.00355   0.00355   2.06562
   R12        2.52986   0.03177   0.00000   0.03184   0.03186   2.56172
   R13        2.04055   0.00840   0.00000   0.00639   0.00639   2.04694
   R14        2.04160   0.00813   0.00000   0.00588   0.00588   2.04748
   R15        2.06876   0.00476   0.00000   0.00276   0.00276   2.07152
   R16        2.07274   0.00268   0.00000   0.00194   0.00194   2.07468
   R17        2.91480  -0.04067   0.00000   0.00119   0.00119   2.91600
   R18        2.07025   0.00276   0.00000   0.00218   0.00218   2.07243
   R19        2.06698   0.00454   0.00000   0.00397   0.00397   2.07094
   R20        2.87325  -0.02560   0.00000   0.00592   0.00592   2.87917
   R21        2.31116  -0.02581   0.00000  -0.01083  -0.01083   2.30033
   R22        2.07246   0.00503   0.00000   0.00381   0.00381   2.07627
   R23        2.06651   0.00361   0.00000   0.00294   0.00294   2.06945
   R24        2.06664   0.00496   0.00000   0.00370   0.00370   2.07033
   R25        2.06815   0.00523   0.00000   0.00387   0.00387   2.07202
   R26        2.06892   0.00324   0.00000   0.00259   0.00259   2.07151
    A1        1.81969  -0.00313   0.00000   0.00281   0.00262   1.82231
    A2        2.10680   0.00450   0.00000   0.01419   0.01412   2.12092
    A3        2.12383   0.00048   0.00000   0.00251   0.00231   2.12614
    A4        2.08780  -0.00400   0.00000   0.00990   0.00948   2.09728
    A5        2.04509   0.00724   0.00000   0.01563   0.01521   2.06030
    A6        1.93001   0.00273   0.00000   0.00778   0.00726   1.93727
    A7        2.11104   0.00232   0.00000   0.00621   0.00622   2.11727
    A8        1.81274   0.00230   0.00000   0.00551   0.00541   1.81816
    A9        2.26844   0.00229   0.00000  -0.00419  -0.00426   2.26417
   A10        2.18344   0.02135   0.00000   0.00619   0.00615   2.18958
   A11        2.01675  -0.00529   0.00000  -0.00083  -0.00088   2.01587
   A12        1.95924  -0.00464   0.00000   0.00209   0.00205   1.96129
   A13        1.90425   0.00007   0.00000   0.00374   0.00374   1.90800
   A14        2.17455  -0.00122   0.00000  -0.00023  -0.00023   2.17432
   A15        2.20340   0.00095   0.00000  -0.00369  -0.00370   2.19971
   A16        1.90630  -0.00557   0.00000  -0.00110  -0.00114   1.90516
   A17        2.17643   0.00157   0.00000   0.00227   0.00229   2.17872
   A18        2.19791   0.00356   0.00000  -0.00147  -0.00146   2.19645
   A19        1.95426   0.07941   0.00000   0.00121   0.00120   1.95546
   A20        1.91315   0.01788   0.00000   0.00200   0.00201   1.91516
   A21        1.87405  -0.16146   0.00000  -0.00781  -0.00781   1.86624
   A22        1.87139  -0.02294   0.00000  -0.00042  -0.00042   1.87097
   A23        1.93664   0.04897   0.00000   0.00115   0.00115   1.93779
   A24        1.91451   0.04095   0.00000   0.00412   0.00412   1.91863
   A25        1.91615   0.07493   0.00000   0.00567   0.00567   1.92182
   A26        1.93944   0.03552   0.00000   0.00455   0.00455   1.94399
   A27        1.89645  -0.20067   0.00000   0.00418   0.00417   1.90062
   A28        1.90512  -0.02997   0.00000  -0.00844  -0.00846   1.89666
   A29        1.88968   0.02869   0.00000  -0.00390  -0.00392   1.88575
   A30        1.91633   0.09176   0.00000  -0.00219  -0.00222   1.91411
   A31        1.96723  -0.10886   0.00000   0.00292   0.00292   1.97015
   A32        2.14242   0.06131   0.00000   0.00406   0.00405   2.14647
   A33        2.17308   0.04648   0.00000  -0.00681  -0.00681   2.16626
   A34        1.72095   0.00297   0.00000   0.00843   0.00837   1.72931
   A35        1.94391   0.00510   0.00000  -0.01293  -0.01294   1.93098
   A36        1.96802  -0.00804   0.00000   0.00688   0.00686   1.97488
   A37        1.93951   0.00207   0.00000  -0.00775  -0.00774   1.93176
   A38        1.99441  -0.00294   0.00000   0.00381   0.00376   1.99817
   A39        1.89372   0.00111   0.00000   0.00117   0.00119   1.89491
   A40        1.93215   0.00152   0.00000   0.00307   0.00307   1.93522
   A41        1.93178  -0.00004   0.00000  -0.00032  -0.00032   1.93146
   A42        1.93421   0.00070   0.00000   0.00062   0.00062   1.93483
   A43        1.88887  -0.00072   0.00000  -0.00131  -0.00131   1.88756
   A44        1.88453  -0.00091   0.00000  -0.00109  -0.00110   1.88343
   A45        1.89073  -0.00065   0.00000  -0.00111  -0.00111   1.88962
    D1        0.40200   0.00213   0.00000  -0.01519  -0.01520   0.38680
    D2       -2.78466  -0.00224   0.00000  -0.01935  -0.01939  -2.80405
    D3        2.86962   0.00411   0.00000   0.00881   0.00889   2.87851
    D4       -0.31703  -0.00025   0.00000   0.00465   0.00470  -0.31233
    D5       -0.62328  -0.00403   0.00000   0.02257   0.02259  -0.60069
    D6        1.41504   0.00173   0.00000   0.01337   0.01334   1.42837
    D7       -2.73427   0.00112   0.00000   0.01029   0.01023  -2.72405
    D8       -3.08259  -0.00798   0.00000  -0.00744  -0.00735  -3.08995
    D9       -1.04428  -0.00222   0.00000  -0.01664  -0.01661  -1.06088
   D10        1.08960  -0.00283   0.00000  -0.01972  -0.01972   1.06988
   D11        2.91406  -0.00091   0.00000  -0.01618  -0.01621   2.89785
   D12       -1.27468  -0.00084   0.00000  -0.01603  -0.01606  -1.29073
   D13        0.82346  -0.00122   0.00000  -0.01722  -0.01725   0.80621
   D14       -1.01819   0.00050   0.00000   0.01335   0.01338  -1.00482
   D15        1.07626   0.00056   0.00000   0.01350   0.01353   1.08978
   D16       -3.10879   0.00019   0.00000   0.01230   0.01233  -3.09646
   D17       -0.13922   0.00969   0.00000  -0.00535  -0.00548  -0.14470
   D18       -2.72440  -0.01162   0.00000  -0.02115  -0.02128  -2.74568
   D19        2.27430   0.01937   0.00000   0.04511   0.04524   2.31954
   D20       -0.31087  -0.00195   0.00000   0.02930   0.02944  -0.28144
   D21        3.11441  -0.01644   0.00000   0.00087   0.00077   3.11518
   D22        0.04562  -0.01021   0.00000   0.00522   0.00515   0.05077
   D23       -0.43097  -0.00154   0.00000   0.01526   0.01526  -0.41571
   D24        2.78343   0.00469   0.00000   0.01961   0.01964   2.80307
   D25        0.90556  -0.00158   0.00000   0.00816   0.00814   0.91370
   D26        2.98012   0.03149   0.00000   0.00971   0.00970   2.98982
   D27       -1.22434  -0.00345   0.00000   0.01121   0.01120  -1.21314
   D28       -1.71502  -0.02082   0.00000  -0.01397  -0.01396  -1.72898
   D29        0.35954   0.01226   0.00000  -0.01242  -0.01240   0.34713
   D30        2.43826  -0.02269   0.00000  -0.01091  -0.01090   2.42736
   D31        0.62895   0.00591   0.00000  -0.02073  -0.02078   0.60817
   D32       -1.41274  -0.00215   0.00000  -0.00755  -0.00755  -1.42029
   D33        2.72037  -0.00304   0.00000  -0.00585  -0.00583   2.71454
   D34       -2.96788   0.02272   0.00000  -0.00070  -0.00077  -2.96865
   D35        1.27362   0.01466   0.00000   0.01248   0.01246   1.28608
   D36       -0.87646   0.01377   0.00000   0.01418   0.01417  -0.86228
   D37        2.51183  -0.03791   0.00000   0.01214   0.01214   2.52397
   D38       -0.59847  -0.00181   0.00000   0.00649   0.00646  -0.59201
   D39       -1.17060  -0.01771   0.00000   0.02664   0.02667  -1.14393
   D40        2.00229   0.01840   0.00000   0.02099   0.02099   2.02328
   D41        0.01647  -0.00090   0.00000   0.00029   0.00028   0.01675
   D42        3.08414  -0.00733   0.00000  -0.00393  -0.00396   3.08018
   D43       -3.07913   0.00363   0.00000   0.00442   0.00443  -3.07469
   D44       -0.01146  -0.00280   0.00000   0.00020   0.00019  -0.01127
   D45        1.60607   0.02033   0.00000  -0.00005  -0.00004   1.60604
   D46       -2.56785   0.05566   0.00000  -0.00391  -0.00391  -2.57175
   D47       -0.45758   0.06079   0.00000  -0.00106  -0.00106  -0.45864
   D48       -0.53477  -0.00221   0.00000   0.00287   0.00287  -0.53189
   D49        1.57450   0.03313   0.00000  -0.00099  -0.00100   1.57350
   D50       -2.59842   0.03826   0.00000   0.00185   0.00185  -2.59657
   D51       -2.59926  -0.02960   0.00000   0.00009   0.00009  -2.59917
   D52       -0.49000   0.00573   0.00000  -0.00377  -0.00378  -0.49377
   D53        1.62027   0.01086   0.00000  -0.00092  -0.00093   1.61934
   D54       -0.30898   0.04619   0.00000  -0.00177  -0.00176  -0.31075
   D55        2.80067   0.00958   0.00000   0.00423   0.00422   2.80489
   D56       -2.38930   0.05379   0.00000  -0.00870  -0.00868  -2.39798
   D57        0.72035   0.01718   0.00000  -0.00270  -0.00270   0.71765
   D58        1.81546   0.01993   0.00000   0.00510   0.00510   1.82056
   D59       -1.35807  -0.01669   0.00000   0.01110   0.01108  -1.34699
         Item               Value     Threshold  Converged?
 Maximum Force            0.200675     0.000450     NO 
 RMS     Force            0.033152     0.000300     NO 
 Maximum Displacement     0.091343     0.001800     NO 
 RMS     Displacement     0.014830     0.001200     NO 
 Predicted change in Energy=-6.161913D-03
 GradGradGradGradGradGradGradGradGradGradGradGradGradGradGradGradGradGrad

                          Input orientation:                          
 ---------------------------------------------------------------------
 Center     Atomic      Atomic             Coordinates (Angstroms)
 Number     Number       Type             X           Y           Z
 ---------------------------------------------------------------------
      1          6           0       -1.369419   -1.150278    0.212627
      2          6           0       -0.739058    1.080153    0.446245
      3          6           0        0.827865   -1.055269   -0.485671
      4          6           0        0.476000    1.007673   -0.309794
      5          6           0       -0.521703   -1.674565    1.252045
      6          6           0        0.769491   -1.633216    0.841230
      7          1           0        1.632982   -1.911957    1.433354
      8          6           0        2.136349   -0.849643   -1.189421
      9          1           0        2.737234   -1.766078   -1.216655
     10          1           0        1.954542   -0.549629   -2.229741
     11          6           0        2.877898    0.276552   -0.439165
     12          1           0        3.526999   -0.149951    0.335097
     13          1           0        3.492335    0.874282   -1.121935
     14          6           0        1.852549    1.171937    0.245144
     15          8           0        2.110143    1.924477    1.166610
     16          1           0       -0.870949   -2.000576    2.224183
     17          1           0        0.404090    1.338792   -1.349027
     18          1           0       -0.704817    1.133510    1.531216
     19          6           0       -0.548788   -1.304114   -1.058686
     20          1           0       -0.627420   -2.328224   -1.448797
     21          1           0       -0.844403   -0.606165   -1.849088
     22         17           0       -2.037508    2.048663   -0.184338
     23          6           0       -2.844841   -1.366123    0.226962
     24          1           0       -3.343636   -0.701629   -0.487134
     25          1           0       -3.087149   -2.400919   -0.042706
     26          1           0       -3.259186   -1.164204    1.221546
 ---------------------------------------------------------------------
                    Distance matrix (angstroms):
                    1          2          3          4          5
     1  C    0.000000
     2  C    2.329539   0.000000
     3  C    2.307533   2.807800   0.000000
     4  C    2.887083   1.432904   2.100112   0.000000
     5  C    1.440100   2.878373   2.285721   3.260239   0.000000
     6  C    2.281076   3.129554   1.448480   2.895736   1.355604
     7  H    3.329376   3.943816   2.250508   3.591854   2.175292
     8  C    3.787682   3.829815   1.499892   2.641993   3.702228
     9  H    4.391658   4.790707   2.164550   3.691785   4.089441
    10  H    4.168292   4.131897   2.137019   2.880534   4.418156
    11  C    4.527734   3.809475   2.445106   2.514038   4.268997
    12  H    4.999056   4.441256   2.962867   3.326344   4.422356
    13  H    5.432914   4.517329   3.350731   3.126602   5.314594
    14  C    3.971752   2.601018   2.558224   1.493259   3.841027
    15  O    4.740417   3.057737   3.640488   2.385523   4.459486
    16  H    2.240053   3.559403   3.335099   4.157508   1.083194
    17  H    3.432137   2.143987   2.580019   1.093076   4.086929
    18  H    2.719570   1.086822   3.347790   2.190771   2.827853
    19  C    1.520966   2.825906   1.511769   2.637307   2.340394
    20  H    2.167591   3.901369   2.160066   3.693654   2.780826
    21  H    2.195990   2.850144   2.203879   2.591789   3.295852
    22  Cl   3.291982   1.738280   4.235040   2.723440   4.268875
    23  C    1.491195   3.235223   3.754097   4.117159   2.557909
    24  H    2.142074   3.290861   4.186465   4.188411   3.454656
    25  H    2.140069   4.227347   4.163452   4.938205   2.964032
    26  H    2.142272   3.462553   4.430626   4.584067   2.784818
                    6          7          8          9         10
     6  C    0.000000
     7  H    1.083478   0.000000
     8  C    2.570180   2.874167   0.000000
     9  H    2.850360   2.874579   1.096202   0.000000
    10  H    3.465453   3.921428   1.097874   1.765983   0.000000
    11  C    3.119616   3.137788   1.543078   2.190117   2.177457
    12  H    3.171765   2.810362   2.178905   2.375612   3.034922
    13  H    4.189921   4.213054   2.194350   2.747846   2.370562
    14  C    3.065487   3.312167   2.495056   3.398744   3.016496
    15  O    3.815809   3.875185   3.639685   4.437724   4.204832
    16  H    2.176823   2.627343   4.692673   4.991326   5.470474
    17  H    3.709929   4.451875   2.795612   3.886040   2.597248
    18  H    3.210053   3.840540   4.405335   5.273151   4.904074
    19  C    2.335776   3.367471   2.726463   3.322094   2.864835
    20  H    2.771033   3.686393   3.145139   3.419181   3.231068
    21  H    3.301106   4.314737   3.062569   3.817525   2.825277
    22  Cl   4.742074   5.637015   5.179909   6.198072   5.183750
    23  C    3.675875   4.669498   5.204339   5.779581   5.453084
    24  H    4.421563   5.469908   5.526785   6.216288   5.579469
    25  H    4.030433   4.969655   5.568334   5.975334   5.799055
    26  H    4.073678   4.953514   5.918066   6.501087   6.282678
                   11         12         13         14         15
    11  C    0.000000
    12  H    1.096685   0.000000
    13  H    1.095896   1.781346   0.000000
    14  C    1.523593   2.135242   2.155552   0.000000
    15  O    2.425618   2.646156   2.872421   1.217280   0.000000
    16  H    5.131529   5.131803   6.204801   4.625891   5.040973
    17  H    2.841818   3.847751   3.131230   2.160383   3.095492
    18  H    4.177634   4.581073   4.972171   2.862791   2.946619
    19  C    3.824197   4.459458   4.591306   3.687440   4.737684
    20  H    4.482351   5.018600   5.228314   4.612029   5.693862
    21  H    4.077082   4.907948   4.639804   3.849806   4.922188
    22  Cl   5.231303   6.005618   5.730395   4.010692   4.363885
    23  C    5.990980   6.487766   6.855562   5.339246   6.021864
    24  H    6.298144   6.941616   7.043931   5.571967   6.274951
    25  H    6.550406   6.996895   7.428411   6.103177   6.869013
    26  H    6.519014   6.918584   7.431714   5.704450   6.194567
                   16         17         18         19         20
    16  H    0.000000
    17  H    5.054199   0.000000
    18  H    3.214078   3.093155   0.000000
    19  C    3.371361   2.824398   3.560048   0.000000
    20  H    3.695598   3.810640   4.568377   1.098714   0.000000
    21  H    4.305418   2.364668   3.804262   1.095105   1.781235
    22  Cl   4.853676   2.796751   2.357265   3.771191   4.769103
    23  C    2.878831   4.511746   3.539625   2.632222   2.941217
    24  H    3.892644   4.353347   3.795371   2.915619   3.308841
    25  H    3.195404   5.280214   4.543669   2.945925   2.834191
    26  H    2.721851   5.127614   3.449665   3.544755   3.925795
                   21         22         23         24         25
    21  H    0.000000
    22  Cl   3.353059   0.000000
    23  C    2.981488   3.532948   0.000000
    24  H    2.847841   3.059700   1.095573   0.000000
    25  H    3.393238   4.573902   1.096465   1.775073   0.000000
    26  H    3.946058   3.713694   1.096198   1.772200   1.776906
                   26
    26  H    0.000000
 Stoichiometry    C11H13ClO
 Framework group  C1[X(C11H13ClO)]
 Deg. of freedom    72
 Full point group                 C1      NOp   1
 Largest Abelian subgroup         C1      NOp   1
 Largest concise Abelian subgroup C1      NOp   1
                         Standard orientation:                         
 ---------------------------------------------------------------------
 Center     Atomic      Atomic             Coordinates (Angstroms)
 Number     Number       Type             X           Y           Z
 ---------------------------------------------------------------------
      1          6           0       -1.441477   -1.143440    0.176929
      2          6           0       -0.714879    1.062493    0.357667
      3          6           0        0.786921   -1.178433   -0.421171
      4          6           0        0.527908    0.903974   -0.337723
      5          6           0       -0.667610   -1.665957    1.273284
      6          6           0        0.641187   -1.700993    0.921881
      7          1           0        1.462743   -1.996546    1.563455
      8          6           0        2.134062   -1.061693   -1.070215
      9          1           0        2.690447   -2.005572   -1.035749
     10          1           0        2.013824   -0.794188   -2.128190
     11          6           0        2.894936    0.056937   -0.328038
     12          1           0        3.487246   -0.369004    0.490779
     13          1           0        3.567605    0.598304   -1.002892
     14          6           0        1.884538    1.025186    0.274394
     15          8           0        2.136731    1.800125    1.178628
     16          1           0       -1.075470   -1.937247    2.239390
     17          1           0        0.518785    1.197435   -1.390630
     18          1           0       -0.726762    1.156336    1.440365
     19          6           0       -0.573102   -1.384768   -1.048234
     20          1           0       -0.683703   -2.418478   -1.403738
     21          1           0       -0.798819   -0.705029   -1.876643
     22         17           0       -1.935296    2.065369   -0.367894
     23          6           0       -2.924782   -1.289385    0.130365
     24          1           0       -3.358278   -0.630577   -0.630118
     25          1           0       -3.204620   -2.321429   -0.112149
     26          1           0       -3.373023   -1.029807    1.096465
 ---------------------------------------------------------------------
 Rotational constants (GHZ):           0.9390991           0.6711674           0.4778204
 Standard basis: STO-3G (5D, 7F)
 There are    82 symmetry adapted cartesian basis functions of A   symmetry.
 There are    82 symmetry adapted basis functions of A   symmetry.
    82 basis functions,   246 primitive gaussians,    82 cartesian basis functions
    52 alpha electrons       52 beta electrons
       nuclear repulsion energy       909.9726902904 Hartrees.
 NAtoms=   26 NActive=   26 NUniq=   26 SFac= 1.00D+00 NAtFMM=   60 NAOKFM=F Big=F
 Integral buffers will be    131072 words long.
 Raffenetti 1 integral format.
 Two-electron integral symmetry is turned on.
 External calculation of energy, first and second derivatives.
 Running external command "~/scripts/MiMe -H 'hf 6-31g(d)' -EF 'wb97xd def2svp' -c 12 -m 48GB R"
         input file       "/local/jobs/1157667/Gau-583021.EIn"
         output file      "/local/jobs/1157667/Gau-583021.EOu"
         message file     "/local/jobs/1157667/Gau-583021.EMs"
         fchk file        "/local/jobs/1157667/Gau-583021.EFC"
         mat. el file     "/local/jobs/1157667/Gau-583021.EUF"
 Read checkpoint file Gau-583021_H.chk type G16
 Write formatted file Gau-583021_H.fchk

deriv: 2

spelevel: wb97xd def2svp
gradlevel: wb97xd def2svp
hesslevel: hf 6-31g(d)

runspe: False
runforce: True
runfreq: True

Running Gaussian ...

Parsing files ...
SPE file: Gau-583021_F.out
FORCE file: Gau-583021_F.out
HESS file: Gau-583021_H.out

 ExternalExternalExternalExternalExternalExternalExternalExternalExternalExternal
 Output from external command:
 "~/scripts/MiMe -H 'hf 6-31g(d)' -EF 'wb97xd def2svp' -c 12 -m 48GB R /local/jobs/1157667/Gau-583021.EIn /local/jobs/1157667/Gau-583021.EOu /local/jobs/1157667/Gau-583021.EMs /local/jobs/1157667/Gau-583021.EFC /local/jobs/1157667/Gau-583021.EUF"
  
 --------------------------------------------------
 Force calculation at wb97xd def2svp
 Hessian calculation at hf 6-31g(d)
 ExternalExternalExternalExternalExternalExternalExternalExternalExternalExternal

 Recovered energy= -961.652250615     dipole=     -0.030500000000     -3.747300000000     -1.681800000000
 Energy=    -961.652251     NIter=   0.
 Dipole moment=      -0.030500      -3.747300      -1.681800
 ***** Axes restored to original set *****
 -------------------------------------------------------------------
 Center     Atomic                   Forces (Hartrees/Bohr)
 Number     Number              X              Y              Z
 -------------------------------------------------------------------
      1        6           0.010734698   -0.006448971    0.008835159
      2        6           0.016196554   -0.015477635   -0.010698563
      3        6          -0.003065466    0.006495952    0.009486998
      4        6          -0.013303009   -0.023814060    0.017266317
      5        6          -0.024635627    0.009148521   -0.010613538
      6        6           0.018324903    0.011700358   -0.019940000
      7        1           0.005265010    0.001432062    0.003613522
      8        6           0.001509918    0.003302188   -0.005268158
      9        1           0.002307798   -0.002631535   -0.000841508
     10        1          -0.000857937   -0.000542436   -0.002028502
     11        6          -0.003822610   -0.007265468   -0.002180259
     12        1           0.003400855    0.003444518    0.001901354
     13        1           0.004437861    0.002331409    0.000837754
     14        6          -0.002031982    0.016477286    0.018426101
     15        8           0.000863406   -0.014302784   -0.011977135
     16        1          -0.002273770    0.000242612    0.005971487
     17        1          -0.001174604   -0.004437751   -0.004690769
     18        1           0.002155404   -0.001661615    0.002778431
     19        6           0.001736538    0.019059877    0.005985398
     20        1          -0.001169011   -0.004715009    0.002153569
     21        1          -0.000599139    0.000062529   -0.003254013
     22       17          -0.008413730   -0.000426259   -0.004752973
     23        6          -0.000852252    0.009523811   -0.000054099
     24        1          -0.002344497    0.002130775   -0.001875036
     25        1          -0.001036211   -0.003455880   -0.001119414
     26        1          -0.001353098   -0.000172493    0.002037877
 -------------------------------------------------------------------
 Cartesian Forces:  Max     0.024635627 RMS     0.008517433
 FormGI is forming the generalized inverse of G from B-inverse, IUseBI=4.

 GradGradGradGradGradGradGradGradGradGradGradGradGradGradGradGradGradGrad
 Berny optimization.
 Internal  Forces:  Max     0.149652939 RMS     0.024782488
 Search for a saddle point.
 Step number   2 out of a maximum of   50
 All quantities printed in internal units (Hartrees-Bohrs-Radians)
 Swapping is turned off.
 Second derivative matrix not updated -- analytic derivatives used.
 ITU=  0  0
     Eigenvalues ---   -1.55057   0.00727   0.00777   0.01030   0.01468
     Eigenvalues ---    0.01773   0.02137   0.02472   0.02790   0.02888
     Eigenvalues ---    0.03403   0.03765   0.04024   0.04871   0.05040
     Eigenvalues ---    0.05260   0.06345   0.06661   0.07409   0.07483
     Eigenvalues ---    0.08443   0.09082   0.09585   0.09694   0.10366
     Eigenvalues ---    0.10836   0.11689   0.12173   0.13453   0.13805
     Eigenvalues ---    0.14144   0.14473   0.15812   0.16145   0.16651
     Eigenvalues ---    0.18662   0.19713   0.20516   0.22871   0.23413
     Eigenvalues ---    0.24715   0.25068   0.25906   0.26692   0.28024
     Eigenvalues ---    0.29544   0.30063   0.30729   0.32686   0.33727
     Eigenvalues ---    0.34196   0.34572   0.34734   0.34856   0.35071
     Eigenvalues ---    0.35272   0.35656   0.35680   0.35882   0.36286
     Eigenvalues ---    0.36936   0.37762   0.38490   0.38652   0.39319
     Eigenvalues ---    0.39842   0.41648   0.53158   0.78119   0.88680
     Eigenvalues ---    1.13715   2.23639
 Eigenvectors required to have negative eigenvalues:
                          A27       A21       R4        A31       A30
   1                   -0.38610  -0.32175   0.29970  -0.23217   0.22720
                          D47       A19       R12       R1        D56
   1                    0.21483   0.20251  -0.18984   0.18633   0.17441
 RFO step:  Lambda0=2.790031374D-02 Lambda=-4.18159524D-02.
 Linear search not attempted -- option 19 set.
 Maximum step size (   0.100) exceeded in Quadratic search.
    -- Step size scaled by   0.487
 Iteration  1 RMS(Cart)=  0.02299109 RMS(Int)=  0.00044718
 Iteration  2 RMS(Cart)=  0.00054622 RMS(Int)=  0.00012011
 Iteration  3 RMS(Cart)=  0.00000016 RMS(Int)=  0.00012011
 Variable       Old X    -DE/DX   Delta X   Delta X   Delta X     New X
                                 (Linear)    (Quad)   (Total)
    R1        2.72140  -0.01340   0.00000  -0.04037  -0.04032   2.68107
    R2        2.87421  -0.00103   0.00000  -0.00579  -0.00577   2.86843
    R3        2.81795   0.00436   0.00000   0.00436   0.00436   2.82231
    R4        2.70780  -0.01601   0.00000  -0.04811  -0.04811   2.65968
    R5        2.05380   0.00276   0.00000   0.00238   0.00238   2.05618
    R6        3.28487   0.00777   0.00000   0.01015   0.01015   3.29502
    R7        2.73723  -0.01661   0.00000  -0.04170  -0.04173   2.69550
    R8        2.83438  -0.00448   0.00000   0.00628   0.00628   2.84066
    R9        2.85683  -0.00267   0.00000  -0.00194  -0.00198   2.85484
   R10        2.82185   0.00926   0.00000   0.00379   0.00379   2.82564
   R11        2.06562   0.00319   0.00000   0.00369   0.00369   2.06931
   R12        2.56172   0.02098   0.00000   0.03433   0.03435   2.59607
   R13        2.04694   0.00602   0.00000   0.00701   0.00701   2.05395
   R14        2.04748   0.00580   0.00000   0.00641   0.00641   2.05389
   R15        2.07152   0.00349   0.00000   0.00315   0.00315   2.07467
   R16        2.07468   0.00192   0.00000   0.00200   0.00200   2.07668
   R17        2.91600  -0.03040   0.00000   0.00107   0.00107   2.91706
   R18        2.07243   0.00202   0.00000   0.00259   0.00259   2.07502
   R19        2.07094   0.00324   0.00000   0.00443   0.00443   2.07538
   R20        2.87917  -0.01896   0.00000   0.00708   0.00708   2.88625
   R21        2.30033  -0.01773   0.00000  -0.01084  -0.01084   2.28949
   R22        2.07627   0.00371   0.00000   0.00501   0.00501   2.08127
   R23        2.06945   0.00255   0.00000   0.00272   0.00272   2.07217
   R24        2.07033   0.00358   0.00000   0.00354   0.00354   2.07388
   R25        2.07202   0.00376   0.00000   0.00439   0.00439   2.07641
   R26        2.07151   0.00233   0.00000   0.00284   0.00284   2.07436
    A1        1.82231  -0.00174   0.00000   0.00646   0.00611   1.82841
    A2        2.12092   0.00383   0.00000   0.01925   0.01902   2.13994
    A3        2.12614  -0.00001   0.00000   0.00298   0.00249   2.12862
    A4        2.09728  -0.00260   0.00000   0.01082   0.01027   2.10755
    A5        2.06030   0.00531   0.00000   0.01397   0.01341   2.07372
    A6        1.93727   0.00218   0.00000   0.01080   0.01015   1.94742
    A7        2.11727   0.00181   0.00000   0.00673   0.00669   2.12396
    A8        1.81816   0.00231   0.00000   0.00851   0.00830   1.82646
    A9        2.26417   0.00114   0.00000  -0.00388  -0.00403   2.26014
   A10        2.18958   0.01650   0.00000   0.00975   0.00967   2.19926
   A11        2.01587  -0.00413   0.00000  -0.00037  -0.00046   2.01541
   A12        1.96129  -0.00388   0.00000   0.00069   0.00060   1.96190
   A13        1.90800   0.00002   0.00000   0.00278   0.00278   1.91078
   A14        2.17432  -0.00072   0.00000   0.00049   0.00046   2.17478
   A15        2.19971   0.00053   0.00000  -0.00370  -0.00373   2.19598
   A16        1.90516  -0.00418   0.00000  -0.00154  -0.00162   1.90354
   A17        2.17872   0.00136   0.00000   0.00310   0.00312   2.18184
   A18        2.19645   0.00243   0.00000  -0.00233  -0.00232   2.19413
   A19        1.95546   0.05961   0.00000   0.00087   0.00086   1.95631
   A20        1.91516   0.01345   0.00000   0.00243   0.00245   1.91762
   A21        1.86624  -0.12112   0.00000  -0.00982  -0.00982   1.85642
   A22        1.87097  -0.01734   0.00000  -0.00012  -0.00012   1.87084
   A23        1.93779   0.03665   0.00000   0.00022   0.00021   1.93799
   A24        1.91863   0.03081   0.00000   0.00676   0.00676   1.92539
   A25        1.92182   0.05619   0.00000   0.00808   0.00809   1.92991
   A26        1.94399   0.02661   0.00000   0.00761   0.00761   1.95160
   A27        1.90062  -0.14965   0.00000   0.00433   0.00432   1.90494
   A28        1.89666  -0.02269   0.00000  -0.01233  -0.01238   1.88428
   A29        1.88575   0.02172   0.00000  -0.00640  -0.00643   1.87932
   A30        1.91411   0.06906   0.00000  -0.00174  -0.00179   1.91232
   A31        1.97015  -0.08181   0.00000  -0.00065  -0.00065   1.96949
   A32        2.14647   0.04649   0.00000   0.00779   0.00778   2.15425
   A33        2.16626   0.03467   0.00000  -0.00702  -0.00702   2.15924
   A34        1.72931   0.00168   0.00000   0.00878   0.00871   1.73803
   A35        1.93098   0.00359   0.00000  -0.01672  -0.01673   1.91424
   A36        1.97488  -0.00551   0.00000   0.00965   0.00958   1.98446
   A37        1.93176   0.00168   0.00000  -0.00881  -0.00883   1.92293
   A38        1.99817  -0.00180   0.00000   0.00625   0.00616   2.00433
   A39        1.89491   0.00063   0.00000   0.00013   0.00018   1.89509
   A40        1.93522   0.00101   0.00000   0.00383   0.00382   1.93904
   A41        1.93146  -0.00009   0.00000  -0.00179  -0.00179   1.92967
   A42        1.93483   0.00062   0.00000   0.00132   0.00131   1.93614
   A43        1.88756  -0.00045   0.00000  -0.00128  -0.00128   1.88628
   A44        1.88343  -0.00065   0.00000  -0.00057  -0.00058   1.88286
   A45        1.88962  -0.00051   0.00000  -0.00165  -0.00165   1.88797
    D1        0.38680   0.00134   0.00000  -0.01990  -0.01993   0.36687
    D2       -2.80405  -0.00239   0.00000  -0.02930  -0.02939  -2.83344
    D3        2.87851   0.00369   0.00000   0.01760   0.01779   2.89630
    D4       -0.31233  -0.00004   0.00000   0.00820   0.00832  -0.30401
    D5       -0.60069  -0.00234   0.00000   0.03000   0.03003  -0.57066
    D6        1.42837   0.00170   0.00000   0.01835   0.01830   1.44667
    D7       -2.72405   0.00126   0.00000   0.01301   0.01290  -2.71115
    D8       -3.08995  -0.00650   0.00000  -0.01530  -0.01513  -3.10508
    D9       -1.06088  -0.00247   0.00000  -0.02695  -0.02686  -1.08775
   D10        1.06988  -0.00291   0.00000  -0.03229  -0.03227   1.03762
   D11        2.89785  -0.00154   0.00000  -0.02578  -0.02584   2.87201
   D12       -1.29073  -0.00150   0.00000  -0.02606  -0.02612  -1.31685
   D13        0.80621  -0.00179   0.00000  -0.02845  -0.02852   0.77769
   D14       -1.00482   0.00099   0.00000   0.02104   0.02110  -0.98372
   D15        1.08978   0.00103   0.00000   0.02076   0.02082   1.11060
   D16       -3.09646   0.00074   0.00000   0.01837   0.01842  -3.07804
   D17       -0.14470   0.00722   0.00000  -0.00309  -0.00324  -0.14794
   D18       -2.74568  -0.00918   0.00000  -0.02456  -0.02471  -2.77039
   D19        2.31954   0.01584   0.00000   0.05721   0.05737   2.37690
   D20       -0.28144  -0.00056   0.00000   0.03574   0.03589  -0.24555
   D21        3.11518  -0.01269   0.00000  -0.00356  -0.00372   3.11146
   D22        0.05077  -0.00749   0.00000   0.00697   0.00687   0.05764
   D23       -0.41571  -0.00089   0.00000   0.02027   0.02028  -0.39543
   D24        2.80307   0.00430   0.00000   0.03080   0.03087   2.83394
   D25        0.91370  -0.00082   0.00000   0.01584   0.01581   0.92952
   D26        2.98982   0.02415   0.00000   0.01786   0.01783   3.00765
   D27       -1.21314  -0.00197   0.00000   0.02157   0.02154  -1.19160
   D28       -1.72898  -0.01629   0.00000  -0.01874  -0.01870  -1.74768
   D29        0.34713   0.00868   0.00000  -0.01672  -0.01669   0.33045
   D30        2.42736  -0.01744   0.00000  -0.01301  -0.01298   2.41438
   D31        0.60817   0.00369   0.00000  -0.02852  -0.02856   0.57961
   D32       -1.42029  -0.00181   0.00000  -0.01081  -0.01080  -1.43109
   D33        2.71454  -0.00263   0.00000  -0.00870  -0.00865   2.70589
   D34       -2.96865   0.01713   0.00000   0.00189   0.00181  -2.96684
   D35        1.28608   0.01163   0.00000   0.01960   0.01957   1.30564
   D36       -0.86228   0.01081   0.00000   0.02171   0.02172  -0.84056
   D37        2.52397  -0.02769   0.00000   0.01930   0.01930   2.54327
   D38       -0.59201  -0.00070   0.00000   0.01452   0.01449  -0.57751
   D39       -1.14393  -0.01204   0.00000   0.03981   0.03983  -1.10410
   D40        2.02328   0.01495   0.00000   0.03503   0.03503   2.05831
   D41        0.01675  -0.00066   0.00000   0.00022   0.00019   0.01695
   D42        3.08018  -0.00598   0.00000  -0.01015  -0.01018   3.07000
   D43       -3.07469   0.00319   0.00000   0.00963   0.00965  -3.06504
   D44       -0.01127  -0.00214   0.00000  -0.00073  -0.00073  -0.01199
   D45        1.60604   0.01524   0.00000  -0.00060  -0.00059   1.60545
   D46       -2.57175   0.04192   0.00000  -0.00570  -0.00570  -2.57746
   D47       -0.45864   0.04573   0.00000  -0.00016  -0.00014  -0.45878
   D48       -0.53189  -0.00165   0.00000   0.00457   0.00457  -0.52732
   D49        1.57350   0.02503   0.00000  -0.00053  -0.00054   1.57296
   D50       -2.59657   0.02884   0.00000   0.00501   0.00502  -2.59155
   D51       -2.59917  -0.02244   0.00000   0.00029   0.00029  -2.59888
   D52       -0.49377   0.00423   0.00000  -0.00481  -0.00483  -0.49860
   D53        1.61934   0.00805   0.00000   0.00074   0.00073   1.62007
   D54       -0.31075   0.03459   0.00000  -0.00184  -0.00183  -0.31258
   D55        2.80489   0.00741   0.00000   0.00325   0.00324   2.80813
   D56       -2.39798   0.03972   0.00000  -0.01030  -0.01026  -2.40824
   D57        0.71765   0.01255   0.00000  -0.00520  -0.00519   0.71247
   D58        1.82056   0.01551   0.00000   0.00923   0.00921   1.82977
   D59       -1.34699  -0.01166   0.00000   0.01432   0.01429  -1.33270
         Item               Value     Threshold  Converged?
 Maximum Force            0.149653     0.000450     NO 
 RMS     Force            0.024782     0.000300     NO 
 Maximum Displacement     0.149613     0.001800     NO 
 RMS     Displacement     0.023103     0.001200     NO 
 Predicted change in Energy=-5.663744D-03
 GradGradGradGradGradGradGradGradGradGradGradGradGradGradGradGradGradGrad

                          Input orientation:                          
 ---------------------------------------------------------------------
 Center     Atomic      Atomic             Coordinates (Angstroms)
 Number     Number       Type             X           Y           Z
 ---------------------------------------------------------------------
      1          6           0       -1.365723   -1.161469    0.219123
      2          6           0       -0.729864    1.073879    0.444957
      3          6           0        0.835217   -1.063428   -0.485123
      4          6           0        0.468850    0.996763   -0.288552
      5          6           0       -0.524119   -1.662319    1.245639
      6          6           0        0.783805   -1.618983    0.827630
      7          1           0        1.650931   -1.880175    1.428594
      8          6           0        2.139209   -0.849963   -1.201848
      9          1           0        2.744820   -1.764960   -1.238396
     10          1           0        1.949085   -0.544598   -2.240240
     11          6           0        2.875893    0.272101   -0.439546
     12          1           0        3.533466   -0.152066    0.330782
     13          1           0        3.492146    0.885090   -1.110822
     14          6           0        1.849133    1.157701    0.263477
     15          8           0        2.117190    1.896040    1.185888
     16          1           0       -0.867729   -1.973218    2.228811
     17          1           0        0.400063    1.304908   -1.337077
     18          1           0       -0.714706    1.128703    1.531551
     19          6           0       -0.546202   -1.293513   -1.051704
     20          1           0       -0.630452   -2.319807   -1.442373
     21          1           0       -0.842442   -0.593411   -1.841964
     22         17           0       -2.068171    1.969491   -0.223717
     23          6           0       -2.846958   -1.352282    0.228028
     24          1           0       -3.336803   -0.675059   -0.483178
     25          1           0       -3.104897   -2.383497   -0.050176
     26          1           0       -3.262140   -1.152429    1.224337
 ---------------------------------------------------------------------
                    Distance matrix (angstroms):
                    1          2          3          4          5
     1  C    0.000000
     2  C    2.334973   0.000000
     3  C    2.312945   2.807599   0.000000
     4  C    2.877735   1.407443   2.101726   0.000000
     5  C    1.418761   2.858356   2.280790   3.226522   0.000000
     6  C    2.280366   3.112738   1.426396   2.861326   1.373781
     7  H    3.328597   3.919459   2.234900   3.552841   2.193576
     8  C    3.794831   3.826841   1.503215   2.652284   3.707213
     9  H    4.402854   4.792297   2.169366   3.702616   4.106936
    10  H    4.173362   4.123897   2.142503   2.894129   4.417849
    11  C    4.525513   3.798246   2.439277   2.518291   4.259332
    12  H    5.003340   4.437562   2.962571   3.330954   4.425135
    13  H    5.436548   4.503494   3.353728   3.135111   5.307785
    14  C    3.964318   2.586732   2.553789   1.495265   3.814378
    15  O    4.734309   3.054610   3.632380   2.387404   4.431929
    16  H    2.223912   3.533546   3.330644   4.116352   1.086901
    17  H    3.409219   2.122677   2.554252   1.095030   4.040912
    18  H    2.718672   1.088081   3.357778   2.175083   2.812094
    19  C    1.517910   2.806826   1.510719   2.618797   2.326863
    20  H    2.154748   3.884457   2.154762   3.679593   2.769297
    21  H    2.201043   2.832408   2.208274   2.580935   3.282863
    22  Cl   3.239205   1.743649   4.206732   2.717881   4.211074
    23  C    1.493501   3.227291   3.761706   4.096272   2.554846
    24  H    2.148249   3.273584   4.190058   4.161233   3.445966
    25  H    2.142569   4.223671   4.178069   4.924901   2.976517
    26  H    2.146378   3.460680   4.440554   4.563787   2.785176
                    6          7          8          9         10
     6  C    0.000000
     7  H    1.086870   0.000000
     8  C    2.558768   2.866875   0.000000
     9  H    2.852254   2.884909   1.097871   0.000000
    10  H    3.453116   3.915738   1.098933   1.768097   0.000000
    11  C    3.091725   3.102059   1.543644   2.192023   2.183683
    12  H    3.155842   2.781274   2.186314   2.384473   3.045407
    13  H    4.166904   4.181554   2.202075   2.756364   2.387600
    14  C    3.027072   3.259673   2.502406   3.405852   3.029259
    15  O    3.776460   3.812624   3.638997   4.435538   4.209908
    16  H    2.194620   2.644363   4.698170   5.011528   5.472460
    17  H    3.658190   4.399814   2.772434   3.864158   2.576014
    18  H    3.207931   3.828862   4.419437   5.292846   4.911428
    19  C    2.325241   3.365032   2.725933   3.329856   2.863555
    20  H    2.764813   3.693296   3.144728   3.426649   3.231404
    21  H    3.289865   4.309201   3.060361   3.821684   2.820218
    22  Cl   4.702791   5.601944   5.158305   6.175806   5.150278
    23  C    3.689592   4.685193   5.211403   5.795574   5.454056
    24  H    4.425903   5.475825   5.525738   6.224497   5.571795
    25  H    4.059191   5.005796   5.583791   6.001137   5.806950
    26  H    4.092031   4.970875   5.928949   6.521029   6.287259
                   11         12         13         14         15
    11  C    0.000000
    12  H    1.098056   0.000000
    13  H    1.098242   1.776407   0.000000
    14  C    1.527339   2.134713   2.159284   0.000000
    15  O    2.419678   2.632827   2.861363   1.211545   0.000000
    16  H    5.116277   5.127341   6.191251   4.587650   4.996858
    17  H    2.828778   3.837023   3.128645   2.164081   3.108587
    18  H    4.184661   4.596649   4.973840   2.860441   2.954306
    19  C    3.812691   4.456216   4.588906   3.670937   4.719505
    20  H    4.474159   5.018107   5.232314   4.599057   5.677205
    21  H    4.067173   4.905525   4.637800   3.839771   4.911687
    22  Cl   5.231776   6.015548   5.734109   4.030090   4.416971
    23  C    5.986258   6.493141   6.854385   5.324898   6.009314
    24  H    6.284632   6.938058   7.032961   5.550714   6.256386
    25  H    6.555430   7.013721   7.438388   6.097612   6.863854
    26  H    6.517150   6.926719   7.431342   5.690788   6.183190
                   16         17         18         19         20
    16  H    0.000000
    17  H    5.006893   0.000000
    18  H    3.183003   3.082659   0.000000
    19  C    3.365585   2.780045   3.545241   0.000000
    20  H    3.695134   3.769829   4.554508   1.101362   0.000000
    21  H    4.298339   2.324294   3.789801   1.096546   1.784673
    22  Cl   4.795927   2.788085   2.370603   3.694476   4.685108
    23  C    2.882020   4.478098   3.521499   2.633371   2.939258
    24  H    3.890556   4.314346   3.766707   2.914303   3.309015
    25  H    3.219788   5.248352   4.533258   2.956018   2.839920
    26  H    2.723209   5.100107   3.433274   3.546349   3.924270
                   21         22         23         24         25
    21  H    0.000000
    22  Cl   3.269495   0.000000
    23  C    2.979737   3.441622   0.000000
    24  H    2.841619   2.944553   1.097448   0.000000
    25  H    3.396118   4.478105   1.098788   1.777647   0.000000
    26  H    3.945839   3.642638   1.097702   1.774561   1.778943
                   26
    26  H    0.000000
 Stoichiometry    C11H13ClO
 Framework group  C1[X(C11H13ClO)]
 Deg. of freedom    72
 Full point group                 C1      NOp   1
 Largest Abelian subgroup         C1      NOp   1
 Largest concise Abelian subgroup C1      NOp   1
                         Standard orientation:                         
 ---------------------------------------------------------------------
 Center     Atomic      Atomic             Coordinates (Angstroms)
 Number     Number       Type             X           Y           Z
 ---------------------------------------------------------------------
      1          6           0       -1.434927   -1.138797    0.196233
      2          6           0       -0.698687    1.070567    0.365829
      3          6           0        0.793402   -1.173202   -0.422702
      4          6           0        0.521841    0.908171   -0.315959
      5          6           0       -0.658763   -1.639700    1.273057
      6          6           0        0.664681   -1.675024    0.906288
      7          1           0        1.494347   -1.954224    1.550483
      8          6           0        2.132692   -1.049959   -1.094094
      9          1           0        2.693402   -1.993614   -1.073143
     10          1           0        1.997557   -0.775801   -2.149666
     11          6           0        2.894228    0.063914   -0.344304
     12          1           0        3.500259   -0.361447    0.466572
     13          1           0        3.565084    0.620579   -1.012294
     14          6           0        1.886345    1.023881    0.284505
     15          8           0        2.155145    1.783300    1.189420
     16          1           0       -1.054495   -1.895955    2.252386
[...]
 1,0.00027803,-0.00891035,-0.00606275,-0.00959837,0.00001187,0.00010814
 ,0.00011089,0.00153038,0.00052850,-0.00065933,-0.00150616,0.00060281,0
 .00152842,-0.00031586,-0.00033455,-0.00019688,-0.00014838,-0.00038332,
 -0.00052024,-0.00083660,-0.00072953,0.00027569,0.00021568,0.00021783,-
 0.00046980,-0.00284590,0.00232506,-0.00235399,-0.00009431,0.00040925,-
 0.00070858,-0.00004680,-0.00017090,0.00005964,0.51102681,0.00129313,-0
 .05161183,-0.00485717,-0.02394982,-0.02844266,-0.00614527,-0.01662513,
 -0.04509402,-0.00792378,0.01175941,-0.03953492,-0.02060000,0.00559086,
 -0.00381818,0.01837140,0.00886978,-0.00392329,0.02135141,-0.00077127,0
 .00495930,0.00514563,0.00052705,-0.00352920,-0.00052810,0.00170689,-0.
 00051112,-0.00071805,-0.00066532,0.00014212,0.00039867,-0.00199747,-0.
 00258190,0.00102571,0.00004149,0.00027237,0.00017414,-0.00066016,-0.00
 016978,-0.00008826,0.00009222,0.00304765,-0.00093149,-0.00023210,-0.00
 000121,0.00028912,0.00291778,0.00588721,0.00400760,-0.00092775,0.00121
 726,-0.00048294,0.00011916,-0.00007077,0.00057198,-0.01418200,0.589411
 62,0.04740700,0.00758355,-0.18514672,-0.00730239,-0.01067166,-0.000699
 53,-0.03733269,0.00950379,-0.11495382,0.00402760,-0.01203282,-0.005183
 06,0.00302769,-0.00217065,-0.04520596,-0.03018449,-0.00361526,-0.02934
 448,0.00155530,0.00284986,-0.00465889,0.01398371,0.00522111,0.01641945
 ,0.00177770,-0.00034874,-0.00106801,-0.00062069,-0.00029896,0.00101402
 ,0.00320926,-0.00024459,-0.00264512,0.00038805,0.00052535,0.00043959,0
 .00067453,0.00106181,0.00075062,0.00115521,0.00023201,-0.00282577,-0.0
 0081861,0.00028283,0.00145736,-0.00338680,0.00173599,-0.00196725,0.000
 29963,0.00188678,-0.00058806,0.00009264,0.00068700,-0.00011713,0.06696
 165,-0.05583257,0.64796626,0.00129028,0.02005513,0.00982294,-0.0019979
 4,0.00026239,0.00308785,-0.00402179,-0.02944510,-0.01473437,-0.0019183
 4,-0.00404876,-0.00214808,-0.00112881,-0.00082499,0.00189147,-0.002313
 83,-0.00004414,-0.00017150,-0.00008219,0.00111672,0.00032240,0.0002052
 9,0.00111298,0.00083261,-0.00024724,-0.00004480,-0.00010881,-0.0000351
 9,-0.00011757,0.00017582,-0.00012996,-0.00046440,-0.00027083,0.0000989
 5,0.00012712,0.00006695,-0.00003423,0.00018584,0.00019244,0.00181670,-
 0.00000226,0.00032481,-0.00066453,-0.00015269,-0.00068350,-0.00005748,
 -0.00067062,-0.00020905,0.00011767,0.00064464,0.00007591,0.00022931,0.
 00091397,-0.00014337,-0.05175159,-0.01819380,-0.01075960,0.05876517,-0
 .00070106,-0.00386717,-0.00360049,-0.00309317,-0.00159102,0.00008379,-
 0.00173047,-0.00463577,-0.00363194,0.00106533,-0.00323119,-0.00229204,
 0.00550601,0.00085997,0.00193202,-0.00306626,0.00077300,0.00480352,-0.
 00002032,-0.00011230,-0.00023383,-0.00021668,0.00005836,-0.00043631,-0
 .00028770,0.00003803,0.00002768,-0.00002064,-0.00014116,-0.00000400,-0
 .00037103,-0.00013563,0.00002314,-0.00006543,0.00005456,0.00002369,-0.
 00003941,-0.00000942,0.00000021,0.00101986,-0.00023839,0.00032171,-0.0
 0051316,0.00015600,-0.00043031,-0.00010648,-0.00015050,-0.00021866,0.0
 0001229,0.00081011,-0.00023025,0.00005708,-0.00013100,-0.00004986,-0.0
 1723696,-0.26942084,-0.07108788,0.02122896,0.29951347,-0.00293297,-0.0
 2377498,-0.01047829,-0.00275822,-0.00152449,-0.00155096,0.00167873,-0.
 00543718,-0.00188458,0.00300747,-0.00140350,-0.00158724,-0.00100619,-0
 .00111622,-0.00181280,0.00149975,-0.00121911,-0.00121550,-0.00009147,0
 .00069787,0.00009633,-0.00004750,0.00000713,-0.00000463,-0.00013690,-0
 .00005843,0.00007614,-0.00005617,0.00003383,0.00003480,-0.00012189,-0.
 00007495,-0.00005661,-0.00000743,0.00000701,0.00000256,-0.00002592,-0.
 00000500,0.00001932,-0.00019108,0.00066316,-0.00015785,0.00002942,-0.0
 0010331,0.00034704,0.00016875,0.00139663,0.00022121,-0.00002880,-0.000
 13592,0.00052828,-0.00011075,-0.00057935,0.00017449,-0.01135364,-0.074
 08884,-0.08277140,0.00917344,0.08159263,0.08771815,0.00997779,-0.01639
 697,0.01225678,0.00071629,-0.00028954,0.00107164,-0.00268320,0.0210629
 8,-0.02294529,-0.00138248,0.00103438,-0.00137740,-0.00302877,0.0013596
 9,0.00475010,-0.00669090,-0.00121462,-0.00354326,0.00045506,-0.0002857
 8,-0.00178611,0.00126983,-0.00024349,-0.00072510,0.00032601,0.00005150
 ,0.00010032,-0.00024784,-0.00023570,0.00086039,0.00010823,-0.00006394,
 0.00018377,0.00008138,0.00008226,0.00006740,-0.00002472,-0.00003528,-0
 .00000940,0.00028177,-0.00030278,0.00010459,-0.00008376,-0.00000524,-0
 .00001896,0.00094567,0.00030063,0.00079874,-0.00025858,-0.00090341,0.0
 0001950,-0.00011198,0.00027502,-0.00004249,-0.08679524,0.04396484,-0.0
 5073066,0.00135010,-0.00134632,0.00271487,0.08509786,-0.00226612,0.001
 66475,-0.00575581,-0.00052577,-0.00044914,-0.00080950,-0.00235232,0.00
 265585,-0.00797361,-0.00141537,-0.00157272,-0.00165800,0.00276292,0.00
 057919,-0.00020111,-0.00293506,0.00055237,0.00119756,0.00001527,0.0003
 6975,-0.00039155,0.00053693,-0.00038410,0.00017782,0.00006402,0.000027
 03,-0.00003407,0.00027036,0.00014047,-0.00004734,0.00007554,0.00013132
 ,-0.00011574,-0.00001390,-0.00004100,-0.00001954,0.00003142,0.00001938
 ,0.00001163,-0.00019439,-0.00040723,-0.00031597,-0.00003300,0.00010929
 ,-0.00005784,-0.00017214,0.00034069,-0.00023696,-0.00125441,-0.0006824
 1,-0.00127288,0.00000023,0.00009137,0.00000490,0.04679561,-0.15944872,
 0.12331367,0.00882878,-0.01957990,0.02409071,-0.04753518,0.17632983,-0
 .01174750,0.01543884,-0.01607847,0.00092455,0.00207565,-0.00147718,-0.
 00007432,0.00231395,-0.00562905,-0.00095562,0.00143730,0.00016535,0.00
 208290,0.00064287,-0.00534687,-0.00081703,0.00100388,-0.00121131,0.000
 00324,0.00002469,-0.00048260,-0.00000062,-0.00023555,0.00004478,-0.000
 03956,0.00002806,0.00012467,-0.00032140,-0.00007733,0.00028873,0.00001
 782,0.00000765,0.00017035,0.00004024,0.00001203,-0.00000776,-0.0000488
 1,-0.00005204,-0.00003194,-0.00030263,0.00009128,0.00037064,0.00028244
 ,-0.00001798,0.00014572,-0.00106073,-0.00037105,-0.00112519,-0.0002036
 4,-0.00072150,0.00086888,-0.00008754,-0.00035357,0.00014218,-0.0512685
 5,0.11650092,-0.20010689,0.00374347,-0.00645078,0.01095811,0.05901547,
 -0.12984625,0.21668037,-0.00219184,-0.00021900,-0.00266244,-0.12089273
 ,0.04702107,-0.05167444,0.00035510,-0.00235358,-0.00104581,-0.03662995
 ,0.02125798,-0.02412605,0.00004926,0.00027531,0.00175049,-0.00087796,0
 .00220401,-0.00109956,0.00003298,-0.00047646,-0.00003172,-0.00008959,-
 0.00035705,-0.00028642,0.00000538,0.00014892,0.00000821,-0.00000286,-0
 .00004426,0.00014921,-0.00184372,-0.00048390,-0.00055064,-0.00047412,0
 .00020613,0.00022818,-0.00036863,0.00017979,0.00028459,0.00257657,0.00
 497039,0.00736591,-0.00073749,-0.00093089,-0.00236629,-0.00000912,0.00
 000847,-0.00020399,0.00034685,-0.00198686,-0.00096125,-0.00919128,0.00
 810192,-0.00441473,0.00007084,0.00106969,-0.00103907,0.00005407,0.0001
 2175,0.00076244,-0.00007305,-0.00016015,0.00069146,0.17022353,0.004969
 37,-0.01632054,0.00947128,0.06535418,-0.04227244,0.02949389,0.00224267
 ,-0.01318072,0.00631653,-0.00112998,0.00663164,0.00853099,-0.00769508,
 0.00290989,-0.00436537,0.00795946,-0.00157166,-0.00773098,0.00005024,0
 .00072338,0.00011000,-0.00057047,0.00087959,0.00020950,-0.00021890,0.0
 0002551,0.00015988,0.00010763,0.00014593,-0.00018968,-0.00007472,0.000
 08113,0.00008371,-0.00006346,-0.00001546,0.00003023,0.00007976,0.00010
 168,-0.00011078,-0.00287294,0.00165588,-0.00115396,0.00084617,0.000308
 27,0.00146469,-0.00020044,0.00000779,0.00018088,-0.00028190,-0.0031824
 8,-0.00085878,0.00363613,-0.00293357,0.00162208,0.00130722,0.00270987,
 0.00158279,-0.00001466,0.00039437,0.00003721,0.00012250,-0.00037910,-0
 .00063052,-0.07318076,0.07196617,-0.00094653,0.00114045,-0.00199341,-0
 .05385120,0.02614589,-0.08329850,0.00071633,0.00029433,-0.00119778,0.0
 0215844,-0.00010925,0.00534744,0.00107544,-0.00102128,0.00166594,-0.00
 137024,0.00180030,0.00055814,0.00002728,-0.00024847,0.00004466,0.00008
 880,-0.00029593,-0.00007709,0.00011797,0.00007426,-0.00009248,-0.00003
 376,-0.00002658,0.00007115,-0.00003268,0.00003789,-0.00008331,-0.00003
 947,0.00002332,0.00004725,-0.00002543,0.00003495,0.00007447,0.00257691
 ,-0.00038742,0.00041253,-0.00070186,0.00029317,0.00026532,-0.00001030,
 -0.00006143,-0.00001855,0.00070610,-0.00123648,0.00215466,-0.02756993,
 0.01820875,-0.00671111,0.00010020,0.00127718,-0.00061155,-0.00022568,0
 .00004532,0.00063590,-0.00009197,-0.00056918,0.00079875,0.07783379,-0.
 04616989,0.08094068,-0.27011192,-0.00589005,0.00331789,0.00183208,-0.0
 0453022,0.00157823,0.00005273,-0.00253463,0.00186387,-0.00204867,0.001
 78786,0.00091868,-0.02102417,-0.00321523,0.00068860,0.00211907,0.00099
 036,-0.00444152,-0.00004924,0.00025869,0.00028477,0.00023728,-0.000370
 10,-0.00017283,0.00011245,0.00008785,-0.00009935,0.00003049,0.00005301
 ,-0.00005043,-0.00010806,-0.00001108,-0.00000582,0.00001273,-0.0000255
 6,-0.00000436,0.00000883,0.00005132,0.00000748,0.00005589,-0.00050682,
 -0.00006420,0.00002000,0.00016768,-0.00000179,0.00165997,0.00008813,0.
 00102532,0.00007996,-0.00007734,-0.00004426,0.00014222,0.00057524,-0.0
 0043244,-0.00919453,0.00122190,0.00104104,0.00023824,-0.00061341,-0.00
 031249,0.00080480,-0.00021135,-0.00070201,-0.00283091,0.00035993,-0.00
 183666,0.57349455,-0.01449099,-0.07229016,0.00143913,-0.01066465,-0.00
 358951,0.00005669,-0.00603389,-0.00002987,-0.00405526,0.00334311,-0.00
 242608,-0.00240034,0.02022532,0.00390175,-0.00155347,-0.00055291,0.002
 65832,0.01020725,0.00092705,0.00005137,-0.00032677,-0.00027053,0.00352
 142,0.00068064,-0.00089347,-0.00043844,0.00074356,-0.00003489,-0.00012
 636,0.00009227,0.00066371,0.00016209,-0.00041655,-0.00004732,0.0000737
 8,0.00001138,-0.00001898,0.00000607,0.00000616,-0.00099239,0.00101004,
 0.00048984,0.00020558,-0.00022782,0.00004249,-0.00083489,-0.00347877,-
 0.00126382,-0.00024812,0.00018418,0.00016272,0.00016598,-0.00013581,-0
 .00015451,0.00450288,-0.00003855,0.00016494,0.00008052,-0.00033490,0.0
 0020497,0.00026893,-0.00020496,-0.00034541,-0.00050430,-0.00351267,0.0
 0172371,-0.01160787,0.58257248,0.00877288,0.00397268,-0.10636094,-0.00
 022769,-0.00135279,0.00024082,0.00223610,-0.00207608,-0.00827898,-0.00
 048687,0.00036294,-0.00026956,-0.02744830,-0.00542639,0.00781788,-0.00
 277216,0.00245853,-0.00336958,-0.00122556,0.00036175,0.00092557,0.0010
 4066,0.00109903,0.00164519,-0.00005897,-0.00010282,0.00015678,-0.00021
 528,-0.00011026,0.00017155,0.00038688,-0.00000474,-0.00028924,0.000041
 37,0.00012920,0.00008153,0.00001962,0.00006398,0.00005924,0.00037906,0
 .00005907,0.00051563,-0.00011414,0.00004934,-0.00014748,0.00017133,-0.
 00026270,0.00053864,-0.00008040,-0.00027187,0.00005853,-0.00037723,-0.
 00041696,-0.00004676,0.02926746,0.00425917,0.00870117,-0.00035009,-0.0
 0044909,0.00055013,-0.00051017,0.00035205,0.00031780,-0.00130280,0.000
 27265,0.00005985,-0.00429161,-0.00825643,0.61902993,-0.01544536,0.0263
 2975,-0.02446871,-0.00008736,0.00248380,-0.00171958,0.00041225,-0.0015
 1694,0.00035326,-0.00113165,0.00068497,0.00056633,-0.00729753,-0.00023
 861,0.00239056,0.00007760,-0.00026451,-0.00254734,-0.00051484,0.000034
 78,0.00026112,0.00007906,-0.00008934,-0.00002497,-0.00002154,0.0000156
 1,0.00001912,-0.00003794,-0.00001475,0.00004576,-0.00000973,0.00003328
 ,0.00008658,0.00001786,0.00000934,0.00000449,-0.00002902,-0.00004383,-
 0.00002498,0.00000838,-0.00016847,0.00021886,0.00001951,-0.00003621,-0
 .00011194,0.00013815,0.00021518,-0.00003832,-0.00009414,-0.00008553,0.
 00003282,-0.00004684,-0.00059842,0.00008424,0.00095568,0.00033016,-0.0
 0021259,0.00023823,-0.00013431,-0.00013726,-0.00027681,-0.00014067,0.0
 0073098,0.00110669,-0.00078230,0.00075409,-0.10472823,0.07348446,-0.05
 564377,0.11543725,0.00027497,0.00442445,-0.00330536,0.00096950,-0.0007
 7058,0.00000304,0.00048823,-0.00084547,0.00033908,-0.00068837,0.000806
 48,0.00067840,-0.00248385,-0.00026661,-0.00072565,0.00028033,0.0001318
 4,-0.00107164,-0.00007707,0.00015254,0.00002763,-0.00002987,-0.0000469
 1,0.00001875,0.00002627,0.00001579,-0.00002307,0.00001372,0.00001867,-
 0.00001749,0.00002318,0.00001339,0.00002690,0.00001614,-0.00001701,-0.
 00001216,0.00000628,0.00001198,-0.00000146,0.00000007,-0.00018595,-0.0
 0006994,0.00004286,0.00002631,-0.00000413,0.00004317,0.00005241,0.0000
 9815,-0.00000710,-0.00001576,-0.00002770,0.00010576,-0.00008833,-0.000
 01263,0.00031191,0.00027972,0.00030894,0.00003167,0.00003581,0.0001117
 8,0.00015012,0.00018168,-0.00016009,-0.00401636,-0.00493655,-0.0004233
 9,0.07701271,-0.18979109,0.10497765,-0.08173892,0.20910744,-0.00251325
 ,-0.00261789,0.00024011,-0.00163675,0.00088950,-0.00037532,-0.00000965
 ,0.00089657,-0.00001067,0.00072202,-0.00068690,-0.00019089,0.00086483,
 0.00094043,0.00130785,-0.00042961,-0.00045877,0.00048800,-0.00003899,-
 0.00011207,0.00001304,-0.00002105,-0.00000440,0.00001004,0.00000860,-0
 .00001409,-0.00001436,-0.00000440,0.00000292,0.00000445,0.00001624,-0.
 00000069,0.00000289,0.00001123,-0.00000929,-0.00000484,0.00000504,-0.0
 0001064,-0.00000044,-0.00020502,0.00014346,-0.00012442,0.00006991,-0.0
 0005343,0.00008997,0.00027020,0.00009205,0.00032827,0.00000757,0.00004
 845,-0.00000091,-0.00007204,-0.00011269,0.00000414,-0.00035123,-0.0008
 6831,0.00004220,0.00002254,0.00001482,0.00002907,-0.00000531,0.0000855
 8,0.00021811,0.00204730,0.00121136,0.00056987,-0.05725139,0.10225355,-
 0.14528518,0.06572237,-0.11630456,0.15110012,-0.01352413,-0.03163677,-
 0.01618569,-0.00194030,0.00141629,-0.00120718,-0.00210987,-0.00069127,
 -0.00158279,0.00006355,0.00020135,-0.00033397,0.00120755,-0.00095426,0
 .00104886,-0.00077412,0.00053513,0.00243895,-0.00008687,0.00005718,0.0
 0004862,-0.00003756,0.00106972,0.00017742,-0.00036435,-0.00013420,0.00
 030838,-0.00005635,-0.00006880,0.00008705,0.00019256,0.00008496,0.0000
 0859,-0.00001723,0.00004395,0.00000295,-0.00005276,-0.00005575,-0.0000
 2984,-0.00005138,0.00030535,0.00052359,-0.00001495,-0.00013907,-0.0002
 2156,-0.00001728,-0.00070451,-0.00031247,-0.00013158,-0.00000904,0.000
 07975,-0.00010210,-0.00060391,0.00007909,0.00142799,-0.00025248,0.0000
 9930,-0.00028072,0.00028878,0.00050825,0.00017460,-0.00000571,-0.00001
 987,0.00122259,0.00019709,0.00040443,-0.07956883,-0.06495539,-0.024371
 22,0.00516367,0.01289979,0.00721120,0.08573264,-0.00134503,0.00134509,
 -0.00021536,0.00034915,-0.00052822,0.00044787,-0.00021641,0.00077888,-
 0.00037315,0.00034149,-0.00019775,-0.00019392,0.00121813,-0.00016557,0
 .00082126,-0.00087249,-0.00005565,0.00079801,-0.00005616,-0.00000506,0
 .00002865,-0.00003373,0.00012917,-0.00000251,-0.00005525,-0.00002071,0
 .00003025,-0.00001043,-0.00003228,0.00002396,0.00000314,0.00000490,-0.
 00001242,-0.00000916,0.00001474,0.00000548,-0.00000186,-0.00001247,0.0
 0000614,0.00014426,0.00014320,0.00009172,-0.00007127,-0.00004212,-0.00
 001750,0.00000941,-0.00019221,-0.00001137,-0.00002573,-0.00001385,0.00
 000490,0.00000275,0.00006587,-0.00000632,-0.00033021,-0.00056181,-0.00
 039205,-0.00016596,0.00057535,0.00024218,-0.00002440,-0.00005743,-0.00
 000926,-0.00094115,-0.00000939,-0.00025851,-0.06244057,-0.25476909,-0.
 07808811,-0.00701509,-0.02297925,-0.00988304,0.07099663,0.27799792,-0.
 00220809,0.00105270,-0.00031454,-0.00035820,0.00120750,-0.00013501,0.0
 0037575,0.00035250,0.00062613,0.00023865,-0.00022886,0.00002032,-0.000
 38938,0.00000657,0.00053530,0.00007698,0.00047990,-0.00006350,-0.00003
 040,-0.00001348,-0.00002068,-0.00003172,-0.00006653,-0.00007229,-0.000
 00187,-0.00001213,-0.00000550,0.00001180,-0.00000047,-0.00000475,-0.00
 000802,0.00000402,-0.00000361,-0.00000484,-0.00000375,-0.00000630,0.00
 000373,-0.00000672,-0.00000234,-0.00001765,0.00001602,-0.00003815,-0.0
 0001551,-0.00001183,0.00004048,-0.00006858,-0.00036056,-0.00009536,-0.
 00004513,0.00000654,0.00000620,0.00016648,0.00011620,-0.00001461,-0.00
 058342,-0.00056942,-0.00027102,0.00020954,0.00024926,0.00008141,0.0000
 1145,0.00013094,0.00005877,0.00069732,-0.00001526,0.00029145,-0.022872
 11,-0.07801839,-0.09069554,0.00738919,0.01865451,0.00921918,0.02806626
 ,0.08827251,0.09166616,-0.01206976,0.00424710,0.04059649,0.00037295,0.
 00041992,-0.00029240,-0.00079198,0.00000871,0.00259658,-0.00015652,0.0
 0034486,-0.00015451,0.00175636,0.00010659,0.00020946,0.00045089,-0.000
 42712,-0.00027745,0.00007329,0.00000651,-0.00011953,-0.00030726,-0.000
 23813,-0.00063987,-0.00007558,0.00001813,0.00003015,0.00007024,0.00002
 278,-0.00002646,-0.00012699,0.00002023,0.00017759,-0.00001978,-0.00003
 111,-0.00003224,-0.00004660,-0.00006021,-0.00004160,-0.00007183,0.0000
 9956,0.00015675,0.00001306,-0.00009312,-0.00019188,-0.00029030,0.00030
 652,-0.00091251,0.00003379,0.00010631,-0.00002567,-0.00018774,-0.00042
 401,-0.00002645,-0.00598271,-0.00104704,-0.00331272,0.00025982,0.00026
 276,-0.00022447,0.00006793,-0.00016554,0.00011725,0.00016939,-0.000146
 72,0.00017593,-0.09123674,0.00828303,0.07716090,0.00606665,-0.00365513
 ,-0.01444034,0.00394522,0.00054993,-0.01061222,0.09808417,-0.00234852,
 -0.00119895,0.00364674,0.00020038,0.00034788,0.00028120,-0.00001581,0.
 00026240,0.00001520,-0.00017167,0.00003754,0.00000023,0.00032689,-0.00
 006193,-0.00035716,-0.00006079,-0.00022191,-0.00003329,-0.00000494,-0.
 00000533,-0.00000358,-0.00004337,0.00006295,0.00003831,-0.00000806,0.0
 0000607,-0.00000729,0.00000344,0.00000125,-0.00000660,0.00002333,0.000
 01106,-0.00002121,0.00000449,-0.00000271,-0.00000078,0.00001106,0.0000
 0737,0.00000612,0.00003910,-0.00002747,0.00003223,0.00000293,-0.000007
 45,-0.00003654,0.00013583,0.00017058,0.00013304,0.00003768,-0.00000177
 ,-0.00001734,-0.00014496,-0.00008155,-0.00007130,-0.00011347,0.0008316
 6,-0.00024525,-0.00039895,0.00031016,0.00043616,0.00020980,0.00001374,
 -0.00030580,0.00008933,-0.00022652,-0.00029172,0.00937956,-0.06274740,
 -0.02159975,-0.01075343,0.00468499,0.02455810,0.01211495,-0.00141224,-
 0.03124175,-0.00851481,0.05924759,-0.00077409,0.00005328,0.00120589,0.
 00006254,-0.00012528,0.00007292,-0.00006716,-0.00003601,-0.00007147,0.
 00008496,-0.00004471,0.00017170,-0.00086117,0.00031019,0.00086135,0.00
 040327,0.00031329,0.00020003,0.00005420,-0.00004817,0.00000132,0.00002
 718,-0.00015033,0.00009733,0.00006072,0.00001146,-0.00003439,-0.000010
 81,-0.00000244,0.00000412,-0.00000687,-0.00001687,-0.00003313,0.000005
 71,-0.00000133,0.00000963,0.00001570,0.00001834,0.00000210,-0.00010174
 ,-0.00009504,-0.00018368,0.00004699,0.00007382,0.00017455,0.00037409,-
 0.00032029,0.00041503,-0.00002787,-0.00004154,0.00001257,0.00021278,0.
 00024595,-0.00000200,-0.00054672,0.00026129,0.00137401,-0.00013732,-0.
 00000235,0.00004691,-0.00016891,-0.00005948,0.00014405,-0.00005366,0.0
 0044755,0.00014571,0.08185737,-0.02148836,-0.28612698,0.00626968,-0.00
 308558,-0.01766029,0.00317191,-0.00130941,-0.01080219,-0.08989076,0.02
 509205,0.30997491\\0.00000077,0.00000134,-0.00000029,-0.00000218,-0.00
 000091,-0.00000269,0.00000024,0.00000007,0.00000107,0.00000131,-0.0000
 0030,-0.00000174,0.00000004,0.00000113,0.00000141,-0.00000120,0.000001
 09,0.00000316,-0.00000079,0.00000268,0.00000311,0.00000178,-0.00000342
 ,0.00000389,0.00000179,-0.00000048,0.00000225,0.00000185,-0.00000018,0
 .00000250,-0.00000145,0.00000286,-0.00000129,-0.00000230,0.00000020,0.
 00000396,0.00000303,-0.00000039,0.00000263,-0.00000146,-0.00000048,0.0
 0000036,-0.00000194,0.00000555,-0.00000156,-0.00000130,0.00000268,0.00
 000085,0.00000041,-0.00000131,-0.00000207,-0.00000220,0.00000126,-0.00
 000320,0.00000169,-0.00000264,0.00000074,0.00000193,-0.00000202,0.0000
 0140,0.00000151,-0.00000233,-0.00000025,-0.00000005,-0.00000004,-0.000
 00609,-0.00000066,0.00000244,-0.00000428,-0.00000099,-0.00001042,-0.00
 000981,0.00000113,-0.00000592,0.00000856,-0.00000097,0.00000955,-0.000
 00263\\\@
 The archive entry for this job was punched.


 THE WORLD IS NOT A HAMBURGER - YOU CAN'T HAVE IT YOUR WAY.
 Job cpu time:       0 days  4 hours 33 minutes 40.5 seconds.
 Elapsed time:       0 days  0 hours 45 minutes 36.0 seconds.
 File lengths (MBytes):  RWF=      6 Int=      0 D2E=      0 Chk=      2 Scr=      1
 Normal termination of Gaussian 16 at Tue Jan 16 23:02:33 2024.
