Unloading slurm/anatra/current
  ERROR: No such file or directory on
    '/cm/local/modulefiles/slurm/anatra/current'
environment: line 0: unalias: gv: not found
environment: line 0: unalias: sl: not found
 Entering Gaussian System, Link 0=g16
 Initial command:
 /apps/gaussian/g16/C.01/g16/l1.exe "/local/jobs/1157668/Gau-2053746.inp" -scrdir="/local/jobs/1157668/"
 Entering Link 1 = /apps/gaussian/g16/C.01/g16/l1.exe PID=   2053749.
  
 Copyright (c) 1988-2019, Gaussian, Inc.  All Rights Reserved.
  
 This is part of the Gaussian(R) 16 program.  It is based on
 the Gaussian(R) 09 system (copyright 2009, Gaussian, Inc.),
 the Gaussian(R) 03 system (copyright 2003, Gaussian, Inc.),
 the Gaussian(R) 98 system (copyright 1998, Gaussian, Inc.),
 the Gaussian(R) 94 system (copyright 1995, Gaussian, Inc.),
 the Gaussian 92(TM) system (copyright 1992, Gaussian, Inc.),
 the Gaussian 90(TM) system (copyright 1990, Gaussian, Inc.),
 the Gaussian 88(TM) system (copyright 1988, Gaussian, Inc.),
 the Gaussian 86(TM) system (copyright 1986, Carnegie Mellon
 University), and the Gaussian 82(TM) system (copyright 1983,
 Carnegie Mellon University). Gaussian is a federally registered
 trademark of Gaussian, Inc.
  
 This software contains proprietary and confidential information,
 including trade secrets, belonging to Gaussian, Inc.
  
 This software is provided under written license and may be
 used, copied, transmitted, or stored only in accord with that
 written license.
  
 The following legend is applicable only to US Government
 contracts under FAR:
  
                    RESTRICTED RIGHTS LEGEND
  
 Use, reproduction and disclosure by the US Government is
 subject to restrictions as set forth in subparagraphs (a)
 and (c) of the Commercial Computer Software - Restricted
 Rights clause in FAR 52.227-19.
  
 Gaussian, Inc.
 340 Quinnipiac St., Bldg. 40, Wallingford CT 06492
  
  
 ---------------------------------------------------------------
 Warning -- This program may not be used in any manner that
 competes with the business of Gaussian, Inc. or will provide
 assistance to any competitor of Gaussian, Inc.  The licensee
 of this program is prohibited from giving any competitor of
 Gaussian, Inc. access to this program.  By using this program,
 the user acknowledges that Gaussian, Inc. is engaged in the
 business of creating and licensing software in the field of
 computational chemistry and represents and warrants to the
 licensee that it is not a competitor of Gaussian, Inc. and that
 it will not use this program in any manner prohibited above.
 ---------------------------------------------------------------
  

 Cite this work as:
 Gaussian 16, Revision C.01,
 M. J. Frisch, G. W. Trucks, H. B. Schlegel, G. E. Scuseria, 
 M. A. Robb, J. R. Cheeseman, G. Scalmani, V. Barone, 
 G. A. Petersson, H. Nakatsuji, X. Li, M. Caricato, A. V. Marenich, 
 J. Bloino, B. G. Janesko, R. Gomperts, B. Mennucci, H. P. Hratchian, 
 J. V. Ortiz, A. F. Izmaylov, J. L. Sonnenberg, D. Williams-Young, 
 F. Ding, F. Lipparini, F. Egidi, J. Goings, B. Peng, A. Petrone, 
 T. Henderson, D. Ranasinghe, V. G. Zakrzewski, J. Gao, N. Rega, 
 G. Zheng, W. Liang, M. Hada, M. Ehara, K. Toyota, R. Fukuda, 
 J. Hasegawa, M. Ishida, T. Nakajima, Y. Honda, O. Kitao, H. Nakai, 
 T. Vreven, K. Throssell, J. A. Montgomery, Jr., J. E. Peralta, 
 F. Ogliaro, M. J. Bearpark, J. J. Heyd, E. N. Brothers, K. N. Kudin, 
 V. N. Staroverov, T. A. Keith, R. Kobayashi, J. Normand, 
 K. Raghavachari, A. P. Rendell, J. C. Burant, S. S. Iyengar, 
 J. Tomasi, M. Cossi, J. M. Millam, M. Klene, C. Adamo, R. Cammi, 
 J. W. Ochterski, R. L. Martin, K. Morokuma, O. Farkas, 
 J. B. Foresman, and D. J. Fox, Gaussian, Inc., Wallingford CT, 2019.
 
 ******************************************
 Gaussian 16:  ES64L-G16RevC.01  3-Jul-2019
                16-Jan-2024 
 ******************************************
 %nprocshared=12
 Will use up to   12 processors via shared memory.
 %mem=48GB
 ----------------------------------------------------------------------
 # external="~/scripts/MiMe -H 'hf 6-31g(d)' -EF 'wb97xd def2svp' -c 12
  -m 48GB" opt=(calcall,ts,noeigen,maxcycles=50,maxstep=10,nomicro)
 ----------------------------------------------------------------------
 1/5=1,6=50,8=10,10=4,11=1,18=20,26=1,38=1/1,3;
 2/9=110,12=2,17=6,18=5,40=1/2;
 3/11=9,25=1,30=1,41=9900000,43=2,71=2,140=1/1;
 4/20=17,22=2,24=3,113=1,114=1/2;
 6/7=2,8=2,9=2,10=2,18=1/1;
 7/25=1,44=-1/16;
 1/5=1,6=50,8=10,10=4,11=1,18=20,26=1/3(3);
 2/9=110/2;
 7/8=1,9=1,25=1,44=-1/16;
 99//99;
 2/9=110/2;
 3/11=9,25=1,30=1,41=9900000,43=2,71=2,140=1/1;
 4/16=2,20=17,22=2,24=3,113=1,114=1/2;
 7/25=1,44=-1/16;
 1/5=1,6=50,8=10,10=4,11=1,18=20,26=1/3(-4);
 2/9=110/2;
 6/7=2,8=2,9=2,10=2,18=1/1;
 7/8=1,9=1,25=1,44=-1/16;
 99//99;
 -----
 *****
 -----
 Symbolic Z-matrix:
 Charge =  0 Multiplicity = 1
 C                    -0.2575   -1.9445    0.4924 
 C                     0.3286   -0.0889   -0.7909 
 C                    -2.0352   -0.7041    0.0388 
 C                    -1.115     0.3285   -0.9316 
 C                    -1.0356   -2.7139   -0.451 
 C                    -2.1494   -2.0106   -0.6995 
 H                    -2.9264   -2.2819   -1.3967 
 C                    -3.2574    0.1226    0.3831 
 H                    -3.9683    0.1197   -0.4524 
 H                    -3.7878   -0.245     1.2681 
 C                    -2.7195    1.5396    0.6015 
 H                    -3.4906    2.2903    0.4124 
 H                    -2.3119    1.6634    1.6093 
 C                    -1.5872    1.6666   -0.3986 
 O                    -1.1174    2.7394   -0.7623 
 H                    -0.7421   -3.6634   -0.8684 
 H                    -1.4561    0.2362   -1.9699 
 H                     0.7903   -0.6172   -1.6179 
 C                     1.2158    0.5654    0.1836 
 O                     0.8153    1.1752    1.1624 
 N                    -1.1786   -1.0708    1.1797 
 H                    -0.739    -0.2942    1.6798 
 H                     0.6718   -2.2973    0.9293 
 Br                    3.0542    0.2998    0.0066 
 

 GradGradGradGradGradGradGradGradGradGradGradGradGradGradGradGradGradGrad
 Berny optimization.
 Initialization pass.
                           ----------------------------
                           !    Initial Parameters    !
                           ! (Angstroms and Degrees)  !
 --------------------------                            --------------------------
 ! Name  Definition              Value          Derivative Info.                !
 --------------------------------------------------------------------------------
 ! R1    R(1,5)                  1.4448         calculate D2E/DX2 analytically  !
 ! R2    R(1,21)                 1.4437         calculate D2E/DX2 analytically  !
 ! R3    R(1,23)                 1.0858         calculate D2E/DX2 analytically  !
 ! R4    R(2,4)                  1.5093         calculate D2E/DX2 analytically  !
 ! R5    R(2,18)                 1.0845         calculate D2E/DX2 analytically  !
 ! R6    R(2,19)                 1.4714         calculate D2E/DX2 analytically  !
 ! R7    R(3,4)                  1.6896         calculate D2E/DX2 analytically  !
 ! R8    R(3,6)                  1.505          calculate D2E/DX2 analytically  !
 ! R9    R(3,8)                  1.5152         calculate D2E/DX2 analytically  !
 ! R10   R(3,21)                 1.4731         calculate D2E/DX2 analytically  !
 ! R11   R(4,14)                 1.5158         calculate D2E/DX2 analytically  !
 ! R12   R(4,17)                 1.0968         calculate D2E/DX2 analytically  !
 ! R13   R(5,6)                  1.3405         calculate D2E/DX2 analytically  !
 ! R14   R(5,16)                 1.0779         calculate D2E/DX2 analytically  !
 ! R15   R(6,7)                  1.0786         calculate D2E/DX2 analytically  !
 ! R16   R(8,9)                  1.097          calculate D2E/DX2 analytically  !
 ! R17   R(8,10)                 1.0953         calculate D2E/DX2 analytically  !
 ! R18   R(8,11)                 1.5313         calculate D2E/DX2 analytically  !
 ! R19   R(11,12)                1.0927         calculate D2E/DX2 analytically  !
 ! R20   R(11,13)                1.0941         calculate D2E/DX2 analytically  !
 ! R21   R(11,14)                1.5161         calculate D2E/DX2 analytically  !
 ! R22   R(14,15)                1.2263         calculate D2E/DX2 analytically  !
 ! R23   R(19,20)                1.2208         calculate D2E/DX2 analytically  !
 ! R24   R(19,24)                1.8659         calculate D2E/DX2 analytically  !
 ! R25   R(21,22)                1.023          calculate D2E/DX2 analytically  !
 ! A1    A(5,1,21)             106.8303         calculate D2E/DX2 analytically  !
 ! A2    A(5,1,23)             123.411          calculate D2E/DX2 analytically  !
 ! A3    A(21,1,23)            123.446          calculate D2E/DX2 analytically  !
 ! A4    A(4,2,18)             118.0871         calculate D2E/DX2 analytically  !
 ! A5    A(4,2,19)             121.0305         calculate D2E/DX2 analytically  !
 ! A6    A(18,2,19)            117.7081         calculate D2E/DX2 analytically  !
 ! A7    A(4,3,6)              106.8651         calculate D2E/DX2 analytically  !
 ! A8    A(4,3,8)              103.6727         calculate D2E/DX2 analytically  !
 ! A9    A(4,3,21)             106.2761         calculate D2E/DX2 analytically  !
 ! A10   A(6,3,8)              121.595          calculate D2E/DX2 analytically  !
 ! A11   A(6,3,21)             102.0033         calculate D2E/DX2 analytically  !
 ! A12   A(8,3,21)             115.3978         calculate D2E/DX2 analytically  !
 ! A13   A(2,4,3)              107.3594         calculate D2E/DX2 analytically  !
 ! A14   A(2,4,14)             120.6183         calculate D2E/DX2 analytically  !
 ! A15   A(2,4,17)             111.2501         calculate D2E/DX2 analytically  !
 ! A16   A(3,4,14)              99.6654         calculate D2E/DX2 analytically  !
 ! A17   A(3,4,17)             108.8386         calculate D2E/DX2 analytically  !
 ! A18   A(14,4,17)            108.0768         calculate D2E/DX2 analytically  !
 ! A19   A(1,5,6)              106.8057         calculate D2E/DX2 analytically  !
 ! A20   A(1,5,16)             125.1203         calculate D2E/DX2 analytically  !
 ! A21   A(6,5,16)             128.0684         calculate D2E/DX2 analytically  !
 ! A22   A(3,6,5)              107.5457         calculate D2E/DX2 analytically  !
 ! A23   A(3,6,7)              126.164          calculate D2E/DX2 analytically  !
 ! A24   A(5,6,7)              125.9021         calculate D2E/DX2 analytically  !
 ! A25   A(3,8,9)              110.3785         calculate D2E/DX2 analytically  !
 ! A26   A(3,8,10)             113.0233         calculate D2E/DX2 analytically  !
 ! A27   A(3,8,11)             104.7112         calculate D2E/DX2 analytically  !
 ! A28   A(9,8,10)             107.4987         calculate D2E/DX2 analytically  !
 ! A29   A(9,8,11)             109.7977         calculate D2E/DX2 analytically  !
 ! A30   A(10,8,11)            111.4337         calculate D2E/DX2 analytically  !
 ! A31   A(8,11,12)            111.2954         calculate D2E/DX2 analytically  !
 ! A32   A(8,11,13)            111.5264         calculate D2E/DX2 analytically  !
 ! A33   A(8,11,14)            104.2281         calculate D2E/DX2 analytically  !
 ! A34   A(12,11,13)           110.1556         calculate D2E/DX2 analytically  !
 ! A35   A(12,11,14)           110.8152         calculate D2E/DX2 analytically  !
 ! A36   A(13,11,14)           108.6573         calculate D2E/DX2 analytically  !
 ! A37   A(4,14,11)            112.9969         calculate D2E/DX2 analytically  !
 ! A38   A(4,14,15)            123.2733         calculate D2E/DX2 analytically  !
 ! A39   A(11,14,15)           123.7139         calculate D2E/DX2 analytically  !
 ! A40   A(2,19,20)            123.7344         calculate D2E/DX2 analytically  !
 ! A41   A(2,19,24)            117.9025         calculate D2E/DX2 analytically  !
 ! A42   A(20,19,24)           118.0599         calculate D2E/DX2 analytically  !
 ! A43   A(1,21,3)              98.7979         calculate D2E/DX2 analytically  !
 ! A44   A(1,21,22)            114.7088         calculate D2E/DX2 analytically  !
 ! A45   A(3,21,22)            116.075          calculate D2E/DX2 analytically  !
 ! D1    D(21,1,5,6)            23.0539         calculate D2E/DX2 analytically  !
 ! D2    D(21,1,5,16)         -157.7473         calculate D2E/DX2 analytically  !
 ! D3    D(23,1,5,6)           175.8461         calculate D2E/DX2 analytically  !
 ! D4    D(23,1,5,16)           -4.9552         calculate D2E/DX2 analytically  !
 ! D5    D(5,1,21,3)           -39.4293         calculate D2E/DX2 analytically  !
 ! D6    D(5,1,21,22)         -163.542          calculate D2E/DX2 analytically  !
 ! D7    D(23,1,21,3)          167.7904         calculate D2E/DX2 analytically  !
 ! D8    D(23,1,21,22)          43.6777         calculate D2E/DX2 analytically  !
 ! D9    D(18,2,4,3)           105.9672         calculate D2E/DX2 analytically  !
 ! D10   D(18,2,4,14)         -141.115          calculate D2E/DX2 analytically  !
 ! D11   D(18,2,4,17)          -13.0164         calculate D2E/DX2 analytically  !
 ! D12   D(19,2,4,3)           -94.6272         calculate D2E/DX2 analytically  !
 ! D13   D(19,2,4,14)           18.2907         calculate D2E/DX2 analytically  !
 ! D14   D(19,2,4,17)          146.3893         calculate D2E/DX2 analytically  !
 ! D15   D(4,2,19,20)           21.4039         calculate D2E/DX2 analytically  !
 ! D16   D(4,2,19,24)         -165.0544         calculate D2E/DX2 analytically  !
 ! D17   D(18,2,19,20)        -179.1152         calculate D2E/DX2 analytically  !
 ! D18   D(18,2,19,24)          -5.5735         calculate D2E/DX2 analytically  !
 ! D19   D(6,3,4,2)            -76.816          calculate D2E/DX2 analytically  !
 ! D20   D(6,3,4,14)           156.7037         calculate D2E/DX2 analytically  !
 ! D21   D(6,3,4,17)            43.7068         calculate D2E/DX2 analytically  !
 ! D22   D(8,3,4,2)            153.6026         calculate D2E/DX2 analytically  !
 ! D23   D(8,3,4,14)            27.1224         calculate D2E/DX2 analytically  !
 ! D24   D(8,3,4,17)           -85.8745         calculate D2E/DX2 analytically  !
 ! D25   D(21,3,4,2)            31.5387         calculate D2E/DX2 analytically  !
 ! D26   D(21,3,4,14)          -94.9415         calculate D2E/DX2 analytically  !
 ! D27   D(21,3,4,17)          152.0616         calculate D2E/DX2 analytically  !
 ! D28   D(4,3,6,5)             82.8945         calculate D2E/DX2 analytically  !
 ! D29   D(4,3,6,7)            -90.2677         calculate D2E/DX2 analytically  !
 ! D30   D(8,3,6,5)           -158.6517         calculate D2E/DX2 analytically  !
 ! D31   D(8,3,6,7)             28.1861         calculate D2E/DX2 analytically  !
 ! D32   D(21,3,6,5)           -28.4432         calculate D2E/DX2 analytically  !
 ! D33   D(21,3,6,7)           158.3945         calculate D2E/DX2 analytically  !
 ! D34   D(4,3,8,9)             79.5515         calculate D2E/DX2 analytically  !
 ! D35   D(4,3,8,10)          -160.0256         calculate D2E/DX2 analytically  !
 ! D36   D(4,3,8,11)           -38.5536         calculate D2E/DX2 analytically  !
 ! D37   D(6,3,8,9)            -40.4598         calculate D2E/DX2 analytically  !
 ! D38   D(6,3,8,10)            79.963          calculate D2E/DX2 analytically  !
 ! D39   D(6,3,8,11)          -158.5649         calculate D2E/DX2 analytically  !
 ! D40   D(21,3,8,9)          -164.6758         calculate D2E/DX2 analytically  !
 ! D41   D(21,3,8,10)          -44.2529         calculate D2E/DX2 analytically  !
 ! D42   D(21,3,8,11)           77.2191         calculate D2E/DX2 analytically  !
 ! D43   D(4,3,21,1)           -71.9506         calculate D2E/DX2 analytically  !
 ! D44   D(4,3,21,22)           51.187          calculate D2E/DX2 analytically  !
 ! D45   D(6,3,21,1)            39.8308         calculate D2E/DX2 analytically  !
 ! D46   D(6,3,21,22)          162.9683         calculate D2E/DX2 analytically  !
 ! D47   D(8,3,21,1)           173.7684         calculate D2E/DX2 analytically  !
 ! D48   D(8,3,21,22)          -63.094          calculate D2E/DX2 analytically  !
 ! D49   D(2,4,14,11)         -122.9362         calculate D2E/DX2 analytically  !
 ! D50   D(2,4,14,15)           58.469          calculate D2E/DX2 analytically  !
 ! D51   D(3,4,14,11)           -6.0327         calculate D2E/DX2 analytically  !
 ! D52   D(3,4,14,15)          175.3724         calculate D2E/DX2 analytically  !
 ! D53   D(17,4,14,11)         107.5549         calculate D2E/DX2 analytically  !
 ! D54   D(17,4,14,15)         -71.04           calculate D2E/DX2 analytically  !
 ! D55   D(1,5,6,3)              3.9027         calculate D2E/DX2 analytically  !
 ! D56   D(1,5,6,7)            177.0878         calculate D2E/DX2 analytically  !
 ! D57   D(16,5,6,3)          -175.2648         calculate D2E/DX2 analytically  !
 ! D58   D(16,5,6,7)            -2.0797         calculate D2E/DX2 analytically  !
 ! D59   D(3,8,11,12)          154.3777         calculate D2E/DX2 analytically  !
 ! D60   D(3,8,11,13)          -82.166          calculate D2E/DX2 analytically  !
 ! D61   D(3,8,11,14)           34.8856         calculate D2E/DX2 analytically  !
 ! D62   D(9,8,11,12)           35.8781         calculate D2E/DX2 analytically  !
 ! D63   D(9,8,11,13)          159.3345         calculate D2E/DX2 analytically  !
 ! D64   D(9,8,11,14)          -83.6139         calculate D2E/DX2 analytically  !
 ! D65   D(10,8,11,12)         -83.1103         calculate D2E/DX2 analytically  !
 ! D66   D(10,8,11,13)          40.346          calculate D2E/DX2 analytically  !
 ! D67   D(10,8,11,14)         157.3976         calculate D2E/DX2 analytically  !
 ! D68   D(8,11,14,4)          -16.9278         calculate D2E/DX2 analytically  !
 ! D69   D(8,11,14,15)         161.6599         calculate D2E/DX2 analytically  !
 ! D70   D(12,11,14,4)        -136.7445         calculate D2E/DX2 analytically  !
 ! D71   D(12,11,14,15)         41.8432         calculate D2E/DX2 analytically  !
 ! D72   D(13,11,14,4)         102.0947         calculate D2E/DX2 analytically  !
 ! D73   D(13,11,14,15)        -79.3176         calculate D2E/DX2 analytically  !
 --------------------------------------------------------------------------------
 Trust Radius=1.00D-01 FncErr=1.00D-07 GrdErr=1.00D-07 EigMax=2.50D+02 EigMin=1.00D-04
 Number of steps in this run=     50 maximum allowed number of steps=    144.
 Search for a saddle point of order  1.
 GradGradGradGradGradGradGradGradGradGradGradGradGradGradGradGradGradGrad

                          Input orientation:                          
 ---------------------------------------------------------------------
 Center     Atomic      Atomic             Coordinates (Angstroms)
 Number     Number       Type             X           Y           Z
 ---------------------------------------------------------------------
      1          6           0       -0.257500   -1.944500    0.492400
      2          6           0        0.328600   -0.088900   -0.790900
      3          6           0       -2.035200   -0.704100    0.038800
      4          6           0       -1.115000    0.328500   -0.931600
      5          6           0       -1.035600   -2.713900   -0.451000
      6          6           0       -2.149400   -2.010600   -0.699500
      7          1           0       -2.926400   -2.281900   -1.396700
      8          6           0       -3.257400    0.122600    0.383100
      9          1           0       -3.968300    0.119700   -0.452400
     10          1           0       -3.787800   -0.245000    1.268100
     11          6           0       -2.719500    1.539600    0.601500
     12          1           0       -3.490600    2.290300    0.412400
     13          1           0       -2.311900    1.663400    1.609300
     14          6           0       -1.587200    1.666600   -0.398600
     15          8           0       -1.117400    2.739400   -0.762300
     16          1           0       -0.742100   -3.663400   -0.868400
     17          1           0       -1.456100    0.236200   -1.969900
     18          1           0        0.790300   -0.617200   -1.617900
     19          6           0        1.215800    0.565400    0.183600
     20          8           0        0.815300    1.175200    1.162400
     21          7           0       -1.178600   -1.070800    1.179700
     22          1           0       -0.739000   -0.294200    1.679800
     23          1           0        0.671800   -2.297300    0.929300
     24         35           0        3.054200    0.299800    0.006600
 ---------------------------------------------------------------------
                    Distance matrix (angstroms):
                    1          2          3          4          5
     1  C    0.000000
     2  C    2.331013   0.000000
     3  C    2.214625   2.579617   0.000000
     4  C    2.815957   1.509305   1.689588   0.000000
     5  C    1.444790   2.977784   2.297477   3.081149   0.000000
     6  C    2.237025   3.137159   1.505015   2.568120   1.340498
     7  H    3.287182   3.971306   2.311785   3.211180   2.157799
     8  C    3.644756   3.779207   1.515173   2.522045   3.698358
     9  H    4.350127   4.315257   2.157962   2.900785   4.077992
    10  H    3.994124   4.605279   2.189420   3.508766   4.077423
    11  C    4.267587   3.725816   2.412278   2.528157   4.694203
    12  H    5.328496   4.657769   3.350253   3.361320   5.640435
    13  H    4.299415   3.975394   2.854486   3.109775   5.003452
    14  C    3.949940   2.627921   2.451987   1.515775   4.415404
    15  O    4.924695   3.176636   3.652644   2.416838   5.462790
    16  H    2.245269   3.732219   3.354486   4.009777   1.077922
    17  H    3.500716   2.163535   2.292247   1.096784   3.344692
    18  H    2.704252   1.084526   3.276531   2.235067   3.015247
    19  C    2.926699   1.471354   3.493079   2.594691   4.028067
    20  O    3.366352   2.377016   3.594384   2.971161   4.599347
    21  N    1.443661   2.668154   1.473053   2.533707   2.319355
    22  H    2.089318   2.699310   2.130970   2.710819   3.237781
    23  H    1.085794   2.820267   3.264832   3.681091   2.234726
    24  Br   4.029918   2.866355   5.187566   4.273555   5.100809
                    6          7          8          9         10
     6  C    0.000000
     7  H    1.078620   0.000000
     8  C    2.636329   3.009796   0.000000
     9  H    2.812052   2.782973   1.097018   0.000000
    10  H    3.110168   3.462966   1.095299   1.767967   0.000000
    11  C    3.823812   4.317346   1.531314   2.164792   2.184129
    12  H    4.640353   4.949361   2.180405   2.384865   2.692266
    13  H    4.342262   4.997903   2.184400   3.062234   2.436532
    14  C    3.732078   4.287227   2.405111   2.839970   3.357789
    15  O    4.861221   5.374793   3.569199   3.884134   4.490012
    16  H    2.177331   2.637956   4.714529   4.989315   5.052364
    17  H    2.672581   2.971728   2.965501   2.937265   4.019082
    18  H    3.380364   4.078482   4.575498   4.954360   5.424622
    19  C    4.328997   5.268993   4.499488   5.241950   5.183522
    20  O    4.733438   5.700952   4.278102   5.157954   4.818368
    21  N    2.314534   3.340570   2.525903   3.444338   2.738190
    22  H    3.255200   4.266207   2.863126   3.891782   3.076865
    23  H    3.270223   4.284572   4.646812   5.411239   4.920849
    24  Br   5.737071   6.663483   6.325302   7.039789   6.978621
                   11         12         13         14         15
    11  C    0.000000
    12  H    1.092659   0.000000
    13  H    1.094132   1.793016   0.000000
    14  C    1.516058   2.160938   2.134681   0.000000
    15  O    2.422023   2.685831   2.865151   1.226332   0.000000
    16  H    5.756902   6.681410   6.080959   5.416992   6.414667
    17  H    3.147559   3.746181   3.947147   2.128900   2.799826
    18  H    4.679340   5.558937   5.023903   3.514960   3.954508
    19  C    4.075573   5.017752   3.960163   3.067313   3.326383
    20  O    3.597528   4.510734   3.196473   2.906923   3.144284
    21  N    3.085916   4.151034   2.990782   3.186117   4.277001
    22  H    2.906533   3.982116   2.512207   2.980592   3.912770
    23  H    5.131293   6.216014   5.005198   4.751726   5.606344
    24  Br   5.935202   6.852822   5.763947   4.855401   4.893373
                   16         17         18         19         20
    16  H    0.000000
    17  H    4.114605   0.000000
    18  H    3.491323   2.428685   0.000000
    19  C    4.777324   3.447461   2.196587   0.000000
    20  O    5.473728   3.981492   3.308080   1.220781   0.000000
    21  N    3.332690   3.421291   3.450925   3.066352   3.003407
    22  H    4.224316   3.757109   3.649372   2.607445   2.200611
    23  H    2.664032   4.399084   3.053687   3.007832   3.483272
    24  Br   5.557380   4.924774   2.933451   1.865901   2.667372
                   21         22         23         24
    21  N    0.000000
    22  H    1.022964   0.000000
    23  H    2.234051   2.562424   0.000000
    24  Br   4.601229   4.188174   3.643094   0.000000
 Stoichiometry    C10H10BrNO2
 Framework group  C1[X(C10H10BrNO2)]
 Deg. of freedom    66
 Full point group                 C1      NOp   1
 Largest Abelian subgroup         C1      NOp   1
 Largest concise Abelian subgroup C1      NOp   1
                         Standard orientation:                         
 ---------------------------------------------------------------------
 Center     Atomic      Atomic             Coordinates (Angstroms)
 Number     Number       Type             X           Y           Z
 ---------------------------------------------------------------------
      1          6           0        0.446932    1.980047    0.519236
      2          6           0       -0.283635    0.206262   -0.804993
      3          6           0        2.115130    0.597992    0.059237
      4          6           0        1.119728   -0.332662   -0.939645
      5          6           0        1.299598    2.695819   -0.401661
      6          6           0        2.350805    1.902822   -0.652763
      7          1           0        3.156296    2.118077   -1.337067
      8          6           0        3.256877   -0.338167    0.399487
      9          1           0        3.974763   -0.381967   -0.428866
     10          1           0        3.807153   -0.034363    1.296470
     11          6           0        2.595422   -1.706673    0.585479
     12          1           0        3.300456   -2.518113    0.389529
     13          1           0        2.167209   -1.812853    1.586720
     14          6           0        1.467778   -1.716303   -0.427811
     15          8           0        0.910672   -2.737292   -0.816532
     16          1           0        1.094478    3.674728   -0.803629
     17          1           0        1.479306   -0.251508   -1.972628
     18          1           0       -0.688271    0.787762   -1.626166
     19          6           0       -1.235331   -0.385931    0.148142
     20          8           0       -0.900463   -1.046045    1.118924
     21          7           0        1.280765    1.017048    1.198584
     22          1           0        0.769695    0.272702    1.679430
     23          1           0       -0.453083    2.404428    0.953773
     24         35           0       -3.041567    0.041978   -0.041572
 ---------------------------------------------------------------------
 Rotational constants (GHZ):           0.9200981           0.3747929           0.2995681
 Standard basis: STO-3G (5D, 7F)
 There are    94 symmetry adapted cartesian basis functions of A   symmetry.
 There are    93 symmetry adapted basis functions of A   symmetry.
    93 basis functions,   282 primitive gaussians,    94 cartesian basis functions
    64 alpha electrons       64 beta electrons
       nuclear repulsion energy      1228.8323260561 Hartrees.
 NAtoms=   24 NActive=   24 NUniq=   24 SFac= 1.00D+00 NAtFMM=   60 NAOKFM=F Big=F
 Integral buffers will be    131072 words long.
 Raffenetti 1 integral format.
 Two-electron integral symmetry is turned on.
 External calculation of energy, first and second derivatives.
 Running external command "~/scripts/MiMe -H 'hf 6-31g(d)' -EF 'wb97xd def2svp' -c 12 -m 48GB R"
         input file       "/local/jobs/1157668/Gau-2053749.EIn"
         output file      "/local/jobs/1157668/Gau-2053749.EOu"
         message file     "/local/jobs/1157668/Gau-2053749.EMs"
         fchk file        "/local/jobs/1157668/Gau-2053749.EFC"
         mat. el file     "/local/jobs/1157668/Gau-2053749.EUF"
 Read checkpoint file Gau-2053749_H.chk type G16
 Write formatted file Gau-2053749_H.fchk

deriv: 2

spelevel: wb97xd def2svp
gradlevel: wb97xd def2svp
hesslevel: hf 6-31g(d)

runspe: False
runforce: True
runfreq: True

Running Gaussian ...

Parsing files ...
SPE file: Gau-2053749_F.out
FORCE file: Gau-2053749_F.out
HESS file: Gau-2053749_H.out

 ExternalExternalExternalExternalExternalExternalExternalExternalExternalExternal
 Output from external command:
 "~/scripts/MiMe -H 'hf 6-31g(d)' -EF 'wb97xd def2svp' -c 12 -m 48GB R /local/jobs/1157668/Gau-2053749.EIn /local/jobs/1157668/Gau-2053749.EOu /local/jobs/1157668/Gau-2053749.EMs /local/jobs/1157668/Gau-2053749.EFC /local/jobs/1157668/Gau-2053749.EUF"
  
 --------------------------------------------------
 Force calculation at wb97xd def2svp
 Hessian calculation at hf 6-31g(d)
 ExternalExternalExternalExternalExternalExternalExternalExternalExternalExternal

 Recovered energy= -3165.49200118     dipole=      4.078200000000      4.589500000000     -0.817600000000
 Energy=    -3165.49200     NIter=   0.
 Dipole moment=       4.078200       4.589500      -0.817600
 ***** Axes restored to original set *****
 -------------------------------------------------------------------
 Center     Atomic                   Forces (Hartrees/Bohr)
 Number     Number              X              Y              Z
 -------------------------------------------------------------------
      1        6          -0.020418610    0.038342047    0.018370883
      2        6          -0.007955297   -0.005102196    0.006516904
      3        6          -0.004928871   -0.017152736    0.004066932
      4        6           0.018940459   -0.023022672    0.021107038
      5        6           0.008658751    0.007330187    0.005560014
      6        6          -0.000175981    0.018211766    0.007755130
      7        1          -0.007401127    0.001833437   -0.005234286
      8        6           0.000639058    0.005504250    0.007668460
      9        1          -0.000175561   -0.001635434   -0.003139095
     10        1          -0.000168921   -0.004801504    0.000376207
     11        6          -0.005569663   -0.011659667   -0.012574993
     12        1           0.001755111    0.006989657    0.002741257
     13        1           0.001800005    0.003010236    0.003881241
     14        6           0.024151924    0.053819080   -0.009204346
     15        8          -0.016341428   -0.034847281    0.009179338
     16        1           0.003806040   -0.005508730   -0.004671157
     17        1          -0.000395855   -0.001063587   -0.001050740
     18        1           0.002739953    0.003995288   -0.006062314
     19        6          -0.052583946    0.003425429    0.015409621
     20        8           0.001850873   -0.009166482   -0.015212113
     21        7           0.021843717   -0.025121966   -0.042357255
     22        1           0.001552037    0.000335645   -0.002523572
     23        1           0.001744436    0.002628285    0.007150228
     24       35           0.026632894   -0.006343053   -0.007753387
 -------------------------------------------------------------------
 Cartesian Forces:  Max     0.053819080 RMS     0.015623359
 FormGI is forming the generalized inverse of G from B-inverse, IUseBI=4.

 GradGradGradGradGradGradGradGradGradGradGradGradGradGradGradGradGradGrad
 Berny optimization.
 Internal  Forces:  Max     0.050230308 RMS     0.009308440
 Search for a saddle point.
 Step number   1 out of a maximum of   50
 All quantities printed in internal units (Hartrees-Bohrs-Radians)
 Swapping is turned off.
 Second derivative matrix not updated -- analytic derivatives used.
 ITU=  0
     Eigenvalues ---   -0.08389   0.00711   0.01371   0.01601   0.01675
     Eigenvalues ---    0.01949   0.02105   0.02265   0.02560   0.02974
     Eigenvalues ---    0.03201   0.04419   0.04542   0.04719   0.05004
     Eigenvalues ---    0.05326   0.05812   0.05876   0.06446   0.06654
     Eigenvalues ---    0.07347   0.07815   0.08542   0.09644   0.09811
     Eigenvalues ---    0.11174   0.11639   0.12165   0.12885   0.13395
     Eigenvalues ---    0.13928   0.14061   0.15291   0.17403   0.18221
     Eigenvalues ---    0.21298   0.23495   0.23735   0.24042   0.24446
     Eigenvalues ---    0.25942   0.26877   0.27392   0.28217   0.30494
     Eigenvalues ---    0.30764   0.31740   0.32694   0.34207   0.34603
     Eigenvalues ---    0.35084   0.35484   0.35631   0.35698   0.36456
     Eigenvalues ---    0.38006   0.38350   0.38557   0.39073   0.39867
     Eigenvalues ---    0.40192   0.44457   0.50245   0.63093   0.81497
     Eigenvalues ---    0.83160
 Eigenvectors required to have negative eigenvalues:
                          R7        D43       D47       D5        D45
   1                   -0.31175   0.28940   0.24934  -0.24845   0.22518
                          D1        D8        D28       R2        D12
   1                    0.21511   0.19544  -0.18983   0.17262  -0.16854
 RFO step:  Lambda0=2.490141586D-03 Lambda=-3.58898596D-02.
 Linear search not attempted -- option 19 set.
 Maximum step size (   0.100) exceeded in Quadratic search.
    -- Step size scaled by   0.309
 Iteration  1 RMS(Cart)=  0.01887799 RMS(Int)=  0.00013063
 Iteration  2 RMS(Cart)=  0.00021319 RMS(Int)=  0.00005225
 Iteration  3 RMS(Cart)=  0.00000003 RMS(Int)=  0.00005225
 Variable       Old X    -DE/DX   Delta X   Delta X   Delta X     New X
                                 (Linear)    (Quad)   (Total)
    R1        2.73026   0.00131   0.00000   0.00087   0.00083   2.73109
    R2        2.72812  -0.05023   0.00000  -0.05845  -0.05849   2.66963
    R3        2.05185   0.00352   0.00000   0.00250   0.00250   2.05435
    R4        2.85217  -0.02505   0.00000  -0.02322  -0.02322   2.82895
    R5        2.04946   0.00384   0.00000   0.00191   0.00191   2.05136
    R6        2.78046  -0.02492   0.00000  -0.02716  -0.02716   2.75329
    R7        3.19286  -0.02790   0.00000  -0.00417  -0.00419   3.18866
    R8        2.84407  -0.02106   0.00000  -0.01616  -0.01614   2.82793
    R9        2.86326  -0.00048   0.00000   0.00047   0.00044   2.86371
   R10        2.78367  -0.01817   0.00000  -0.01675  -0.01666   2.76700
   R11        2.86440   0.00936   0.00000   0.01178   0.01180   2.87620
   R12        2.07262   0.00121   0.00000   0.00163   0.00163   2.07425
   R13        2.53317   0.01175   0.00000   0.00619   0.00617   2.53934
   R14        2.03698   0.00770   0.00000   0.00505   0.00505   2.04203
   R15        2.03830   0.00825   0.00000   0.00551   0.00551   2.04381
   R16        2.07306   0.00251   0.00000   0.00198   0.00198   2.07504
   R17        2.06981   0.00200   0.00000   0.00131   0.00131   2.07113
   R18        2.89376   0.00576   0.00000   0.00135   0.00135   2.89511
   R19        2.06483   0.00309   0.00000   0.00260   0.00260   2.06742
   R20        2.06761   0.00459   0.00000   0.00412   0.00412   2.07173
   R21        2.86493   0.00478   0.00000   0.00473   0.00476   2.86969
   R22        2.31743  -0.03947   0.00000  -0.01617  -0.01617   2.30126
   R23        2.30694  -0.01739   0.00000  -0.00564  -0.00564   2.30130
   R24        3.52604   0.02788   0.00000   0.03983   0.03983   3.56587
   R25        1.93312  -0.00031   0.00000   0.00009   0.00009   1.93321
    A1        1.86454   0.00026   0.00000   0.00792   0.00774   1.87229
    A2        2.15393   0.00632   0.00000   0.01008   0.01008   2.16401
    A3        2.15454  -0.00595   0.00000  -0.00732  -0.00743   2.14711
    A4        2.06101   0.00317   0.00000   0.00863   0.00862   2.06963
    A5        2.11238  -0.00944   0.00000  -0.01252  -0.01253   2.09985
    A6        2.05439   0.00604   0.00000   0.00744   0.00742   2.06182
    A7        1.86515  -0.00915   0.00000  -0.01204  -0.01207   1.85308
    A8        1.80943   0.00900   0.00000   0.00327   0.00329   1.81273
    A9        1.85487  -0.01199   0.00000  -0.01449  -0.01444   1.84042
   A10        2.12223   0.00245   0.00000   0.01147   0.01148   2.13371
   A11        1.78029   0.00578   0.00000   0.00278   0.00261   1.78290
   A12        2.01407   0.00029   0.00000   0.00372   0.00362   2.01769
   A13        1.87377  -0.01587   0.00000   0.00617   0.00617   1.87994
   A14        2.10519   0.00870   0.00000   0.00068   0.00064   2.10583
   A15        1.94168  -0.00048   0.00000  -0.00184  -0.00185   1.93983
   A16        1.73949   0.00581   0.00000   0.00437   0.00434   1.74383
   A17        1.89959   0.00474   0.00000  -0.00301  -0.00300   1.89659
   A18        1.88630  -0.00261   0.00000  -0.00576  -0.00575   1.88055
   A19        1.86411  -0.00277   0.00000  -0.00435  -0.00447   1.85964
   A20        2.18376   0.00076   0.00000   0.00214   0.00220   2.18596
   A21        2.23522   0.00200   0.00000   0.00222   0.00228   2.23749
   A22        1.87703  -0.01191   0.00000  -0.00420  -0.00428   1.87275
   A23        2.20198   0.00186   0.00000  -0.00480  -0.00475   2.19723
   A24        2.19741   0.00973   0.00000   0.00851   0.00853   2.20593
   A25        1.92647  -0.00195   0.00000  -0.00569  -0.00568   1.92078
   A26        1.97263   0.00209   0.00000  -0.00351  -0.00351   1.96912
   A27        1.82755  -0.00643   0.00000  -0.00052  -0.00054   1.82701
   A28        1.87621  -0.00083   0.00000   0.00057   0.00054   1.87674
   A29        1.91633   0.00294   0.00000   0.00124   0.00122   1.91756
   A30        1.94489   0.00424   0.00000   0.00790   0.00792   1.95280
   A31        1.94247   0.00476   0.00000   0.00937   0.00936   1.95183
   A32        1.94650  -0.00170   0.00000   0.00070   0.00072   1.94722
   A33        1.81912   0.00448   0.00000   0.00685   0.00684   1.82596
   A34        1.92258  -0.00200   0.00000  -0.00808  -0.00811   1.91447
   A35        1.93409  -0.00075   0.00000  -0.00314  -0.00322   1.93087
   A36        1.89643  -0.00473   0.00000  -0.00528  -0.00530   1.89113
   A37        1.97217  -0.01030   0.00000  -0.00904  -0.00901   1.96315
   A38        2.15152   0.00401   0.00000   0.00363   0.00361   2.15514
   A39        2.15921   0.00631   0.00000   0.00526   0.00524   2.16446
   A40        2.15957   0.00032   0.00000   0.01088   0.01088   2.17046
   A41        2.05779  -0.01003   0.00000  -0.01451  -0.01451   2.04328
   A42        2.06053   0.00976   0.00000   0.00386   0.00386   2.06439
   A43        1.72435   0.00993   0.00000   0.02010   0.02018   1.74452
   A44        2.00205  -0.01226   0.00000   0.00004  -0.00009   2.00196
   A45        2.02589  -0.00271   0.00000   0.00213   0.00202   2.02791
    D1        0.40237  -0.00127   0.00000  -0.01987  -0.01989   0.38248
    D2       -2.75321  -0.00191   0.00000  -0.01939  -0.01950  -2.77271
    D3        3.06909  -0.00205   0.00000  -0.00091  -0.00077   3.06832
    D4       -0.08648  -0.00269   0.00000  -0.00043  -0.00039  -0.08687
    D5       -0.68817   0.00111   0.00000   0.02304   0.02306  -0.66511
    D6       -2.85435   0.00394   0.00000   0.00717   0.00709  -2.84726
    D7        2.92850  -0.00227   0.00000  -0.00184  -0.00170   2.92679
    D8        0.76232   0.00055   0.00000  -0.01771  -0.01768   0.74464
    D9        1.84948   0.00347   0.00000   0.00777   0.00778   1.85725
   D10       -2.46292   0.00388   0.00000   0.01865   0.01864  -2.44428
   D11       -0.22718   0.00778   0.00000   0.00868   0.00868  -0.21850
   D12       -1.65156   0.00407   0.00000   0.02051   0.02052  -1.63104
   D13        0.31923   0.00448   0.00000   0.03138   0.03138   0.35061
   D14        2.55497   0.00839   0.00000   0.02142   0.02142   2.57640
   D15        0.37357   0.00005   0.00000  -0.01282  -0.01282   0.36075
   D16       -2.88074   0.00119   0.00000  -0.01014  -0.01014  -2.89088
   D17       -3.12615   0.00010   0.00000   0.00013   0.00013  -3.12602
   D18       -0.09728   0.00124   0.00000   0.00281   0.00281  -0.09447
   D19       -1.34069   0.01118   0.00000   0.01165   0.01162  -1.32907
   D20        2.73500   0.00531   0.00000   0.00589   0.00585   2.74085
   D21        0.76283   0.00406   0.00000   0.01133   0.01129   0.77412
   D22        2.68087   0.00810   0.00000   0.00289   0.00289   2.68376
   D23        0.47338   0.00223   0.00000  -0.00287  -0.00288   0.47049
   D24       -1.49879   0.00098   0.00000   0.00257   0.00255  -1.49624
   D25        0.55045   0.00893   0.00000   0.00382   0.00390   0.55436
   D26       -1.65704   0.00307   0.00000  -0.00194  -0.00187  -1.65891
   D27        2.65397   0.00182   0.00000   0.00350   0.00356   2.65754
   D28        1.44678  -0.00943   0.00000  -0.00291  -0.00296   1.44383
   D29       -1.57547  -0.00719   0.00000   0.00069   0.00067  -1.57480
   D30       -2.76899  -0.00347   0.00000  -0.00109  -0.00122  -2.77021
   D31        0.49194  -0.00123   0.00000   0.00251   0.00240   0.49434
   D32       -0.49643   0.00458   0.00000   0.01609   0.01598  -0.48045
   D33        2.76451   0.00682   0.00000   0.01969   0.01960   2.78411
   D34        1.38844   0.00132   0.00000   0.00469   0.00468   1.39312
   D35       -2.79297   0.00029   0.00000  -0.00100  -0.00100  -2.79397
   D36       -0.67289   0.00243   0.00000   0.00634   0.00635  -0.66653
   D37       -0.70616   0.00432   0.00000   0.01069   0.01069  -0.69547
   D38        1.39562   0.00329   0.00000   0.00499   0.00500   1.40062
   D39       -2.76748   0.00544   0.00000   0.01234   0.01235  -2.75513
   D40       -2.87414  -0.00730   0.00000  -0.00894  -0.00894  -2.88307
   D41       -0.77236  -0.00833   0.00000  -0.01464  -0.01462  -0.78698
   D42        1.34773  -0.00618   0.00000  -0.00729  -0.00727   1.34046
   D43       -1.25577   0.01700   0.00000   0.00035   0.00024  -1.25554
   D44        0.89338   0.00745   0.00000   0.01525   0.01527   0.90865
   D45        0.69518   0.00512   0.00000  -0.01676  -0.01687   0.67831
   D46        2.84433  -0.00443   0.00000  -0.00186  -0.00183   2.84250
   D47        3.03283   0.01361   0.00000   0.00380   0.00369   3.03652
   D48       -1.10120   0.00406   0.00000   0.01870   0.01873  -1.08247
   D49       -2.14564   0.00905   0.00000  -0.01152  -0.01151  -2.15715
   D50        1.02048   0.00809   0.00000  -0.00540  -0.00540   1.01508
   D51       -0.10529  -0.00234   0.00000  -0.00013  -0.00011  -0.10540
   D52        3.06083  -0.00330   0.00000   0.00599   0.00600   3.06682
   D53        1.87719   0.00453   0.00000  -0.00346  -0.00345   1.87373
   D54       -1.23988   0.00357   0.00000   0.00267   0.00266  -1.23722
   D55        0.06812   0.00070   0.00000   0.00644   0.00635   0.07446
   D56        3.09076  -0.00221   0.00000   0.00169   0.00154   3.09230
   D57       -3.05895   0.00138   0.00000   0.00594   0.00595  -3.05300
   D58       -0.03630  -0.00153   0.00000   0.00120   0.00114  -0.03516
   D59        2.69440  -0.00202   0.00000  -0.00026  -0.00025   2.69415
   D60       -1.43407  -0.00238   0.00000  -0.00340  -0.00341  -1.43747
   D61        0.60887  -0.00622   0.00000  -0.00537  -0.00539   0.60348
   D62        0.62619   0.00236   0.00000   0.00608   0.00611   0.63230
   D63        2.78091   0.00200   0.00000   0.00294   0.00295   2.78386
   D64       -1.45934  -0.00183   0.00000   0.00097   0.00097  -1.45837
   D65       -1.45055  -0.00118   0.00000  -0.00041  -0.00039  -1.45094
   D66        0.70417  -0.00154   0.00000  -0.00355  -0.00355   0.70062
   D67        2.74711  -0.00538   0.00000  -0.00551  -0.00553   2.74157
   D68       -0.29545   0.00334   0.00000   0.00327   0.00326  -0.29219
   D69        2.82150   0.00426   0.00000  -0.00291  -0.00292   2.81858
   D70       -2.38664  -0.00454   0.00000  -0.01023  -0.01021  -2.39686
   D71        0.73030  -0.00361   0.00000  -0.01641  -0.01639   0.71391
   D72        1.78189   0.00148   0.00000   0.00517   0.00515   1.78704
   D73       -1.38435   0.00240   0.00000  -0.00101  -0.00103  -1.38538
         Item               Value     Threshold  Converged?
 Maximum Force            0.050230     0.000450     NO 
 RMS     Force            0.009308     0.000300     NO 
 Maximum Displacement     0.074483     0.001800     NO 
 RMS     Displacement     0.018993     0.001200     NO 
 Predicted change in Energy=-8.997253D-03
 GradGradGradGradGradGradGradGradGradGradGradGradGradGradGradGradGradGrad

                          Input orientation:                          
 ---------------------------------------------------------------------
 Center     Atomic      Atomic             Coordinates (Angstroms)
 Number     Number       Type             X           Y           Z
 ---------------------------------------------------------------------
      1          6           0       -0.261825   -1.923917    0.508988
      2          6           0        0.316583   -0.096682   -0.801366
      3          6           0       -2.038085   -0.707469    0.039950
      4          6           0       -1.115420    0.320605   -0.929052
      5          6           0       -1.017040   -2.696944   -0.450577
      6          6           0       -2.138987   -2.002105   -0.703809
      7          1           0       -2.913154   -2.268740   -1.410418
      8          6           0       -3.257581    0.121180    0.390139
      9          1           0       -3.969700    0.114950   -0.445681
     10          1           0       -3.784779   -0.251534    1.275772
     11          6           0       -2.716052    1.538530    0.602216
     12          1           0       -3.481423    2.298276    0.418092
     13          1           0       -2.304056    1.665913    1.610151
     14          6           0       -1.581109    1.668917   -0.398274
     15          8           0       -1.114694    2.732529   -0.764548
     16          1           0       -0.705773   -3.641049   -0.874212
     17          1           0       -1.462867    0.231278   -1.966418
     18          1           0        0.781894   -0.617267   -1.632547
     19          6           0        1.182825    0.538995    0.182673
     20          8           0        0.783462    1.137776    1.165018
     21          7           0       -1.171632   -1.064957    1.164871
     22          1           0       -0.738259   -0.285729    1.666410
     23          1           0        0.668592   -2.258043    0.961207
     24         35           0        3.040081    0.260386   -0.000786
 ---------------------------------------------------------------------
                    Distance matrix (angstroms):
                    1          2          3          4          5
     1  C    0.000000
     2  C    2.321717   0.000000
     3  C    2.203371   2.573973   0.000000
     4  C    2.799011   1.497018   1.687369   0.000000
     5  C    1.445228   2.943292   2.289359   3.056832   0.000000
     6  C    2.236230   3.109659   1.496477   2.548216   1.343761
     7  H    3.291286   3.939541   2.303667   3.188772   2.167926
     8  C    3.629201   3.773830   1.515408   2.523666   3.697114
     9  H    4.337823   4.306219   2.154842   2.902216   4.077374
    10  H    3.974422   4.599962   2.187709   3.509141   4.076848
    11  C    4.245051   3.720327   2.412528   2.527874   4.683402
    12  H    5.310460   4.652714   3.355699   3.365108   5.637375
    13  H    4.274359   3.973651   2.858183   3.109705   4.993750
    14  C    3.933457   2.623176   2.459283   1.522017   4.402460
    15  O    4.902220   3.170858   3.651500   2.417527   5.439420
    16  H    2.249194   3.689587   3.349125   3.983154   1.080595
    17  H    3.494997   2.152057   2.288588   1.097646   3.327315
    18  H    2.717141   1.085535   3.279889   2.230316   2.993038
    19  C    2.873922   1.456980   3.456632   2.562334   3.963800
    20  O    3.301056   2.368233   3.554130   2.942559   4.533987
    21  N    1.412708   2.649232   1.464236   2.511465   2.301511
    22  H    2.061619   2.690418   2.124331   2.691898   3.220762
    23  H    1.087115   2.811060   3.252552   3.661312   2.242124
    24  Br   3.991695   2.861095   5.169736   4.258344   5.040668
                    6          7          8          9         10
     6  C    0.000000
     7  H    1.081538   0.000000
     8  C    2.637482   3.012034   0.000000
     9  H    2.810705   2.780105   1.098064   0.000000
    10  H    3.113177   3.470514   1.095992   1.769719   0.000000
    11  C    3.817696   4.311015   1.532028   2.167095   2.190932
    12  H    4.642636   4.952173   2.188752   2.398214   2.707244
    13  H    4.340048   4.997633   2.187200   3.066969   2.445599
    14  C    3.725719   4.278308   2.414051   2.849987   3.368490
    15  O    4.844546   5.353905   3.569931   3.886445   4.494095
    16  H    2.183867   2.653918   4.718545   4.994435   5.058806
    17  H    2.653172   2.943222   2.964199   2.934345   4.016986
    18  H    3.363314   4.053404   4.577546   4.952014   5.426471
    19  C    4.275216   5.215204   4.464842   5.207989   5.147513
    20  O    4.678898   5.648203   4.238389   5.121823   4.776116
    21  N    2.303473   3.333782   2.521570   3.437330   2.739068
    22  H    3.244368   4.257860   2.853318   3.881196   3.071653
    23  H    3.274184   4.295768   4.626192   5.396682   4.894644
    24  Br   5.695248   6.620011   6.311319   7.025390   6.962067
                   11         12         13         14         15
    11  C    0.000000
    12  H    1.094033   0.000000
    13  H    1.096312   1.790832   0.000000
    14  C    1.518577   2.161883   2.134580   0.000000
    15  O    2.420335   2.681160   2.862070   1.217773   0.000000
    16  H    5.748834   6.682055   6.073748   5.402635   6.387623
    17  H    3.142811   3.746056   3.944315   2.130696   2.796779
    18  H    4.677313   5.557102   5.025047   3.511958   3.946087
    19  C    4.046767   4.990561   3.932680   3.041965   3.314726
    20  O    3.567064   4.482623   3.163833   2.883954   3.141569
    21  N    3.078954   4.147788   2.989700   3.175713   4.259905
    22  H    2.893457   3.969928   2.502757   2.965460   3.893731
    23  H    5.098887   6.186893   4.965400   4.725500   5.573522
    24  Br   5.927084   6.845324   5.755903   4.847406   4.894586
                   16         17         18         19         20
    16  H    0.000000
    17  H    4.094022   0.000000
    18  H    3.454198   2.422902   0.000000
    19  C    4.707076   3.422422   2.189227   0.000000
    20  O    5.404947   3.958994   3.302507   1.217798   0.000000
    21  N    3.318303   3.401472   3.441256   3.013443   2.945238
    22  H    4.208798   3.740293   3.647452   2.563632   2.143221
    23  H    2.677750   4.394409   3.071245   2.948554   3.403869
    24  Br   5.478639   4.913359   2.921015   1.886976   2.687237
                   21         22         23         24
    21  N    0.000000
    22  H    1.023010   0.000000
    23  H    2.202580   2.523205   0.000000
    24  Br   4.566598   4.165770   3.590526   0.000000
 Stoichiometry    C10H10BrNO2
 Framework group  C1[X(C10H10BrNO2)]
 Deg. of freedom    66
 Full point group                 C1      NOp   1
 Largest Abelian subgroup         C1      NOp   1
 Largest concise Abelian subgroup C1      NOp   1
                         Standard orientation:                         
 ---------------------------------------------------------------------
 Center     Atomic      Atomic             Coordinates (Angstroms)
 Number     Number       Type             X           Y           Z
 ---------------------------------------------------------------------
      1          6           0        0.415171    1.953283    0.535509
      2          6           0       -0.281953    0.196562   -0.812942
      3          6           0        2.102916    0.619709    0.058081
      4          6           0        1.117185   -0.321203   -0.937022
      5          6           0        1.233192    2.686492   -0.403603
      6          6           0        2.304158    1.916696   -0.660784
      7          1           0        3.102077    2.139031   -1.356210
      8          6           0        3.255922   -0.301388    0.402493
      9          1           0        3.974290   -0.331917   -0.427423
     10          1           0        3.800548    0.016190    1.299001
     11          6           0        2.611239   -1.679262    0.584038
     12          1           0        3.321243   -2.489139    0.391937
     13          1           0        2.181834   -1.794407    1.586162
     14          6           0        1.479097   -1.709030   -0.427616
     15          8           0        0.940273   -2.729268   -0.817170
     16          1           0        0.995030    3.658118   -0.812146
     17          1           0        1.479729   -0.238798   -1.969784
     18          1           0       -0.700666    0.764320   -1.637997
     19          6           0       -1.200983   -0.392059    0.152305
     20          8           0       -0.855098   -1.035710    1.126527
     21          7           0        1.254303    1.018971    1.182550
     22          1           0        0.761035    0.264410    1.666155
     23          1           0       -0.492731    2.345917    0.986476
     24         35           0       -3.031416    0.023843   -0.040618
 ---------------------------------------------------------------------
 Rotational constants (GHZ):           0.9269512           0.3780082           0.3024712
 Standard basis: STO-3G (5D, 7F)
 There are    94 symmetry adapted cartesian basis functions of A   symmetry.
 There are    93 symmetry adapted basis functions of A   symmetry.
    93 basis functions,   282 primitive gaussians,    94 cartesian basis functions
    64 alpha electrons       64 beta electrons
       nuclear repulsion energy      1232.8580034102 Hartrees.
 NAtoms=   24 NActive=   24 NUniq=   24 SFac= 1.00D+00 NAtFMM=   60 NAOKFM=F Big=F
 Integral buffers will be    131072 words long.
 Raffenetti 1 integral format.
 Two-electron integral symmetry is turned on.
 External calculation of energy, first and second derivatives.
 Running external command "~/scripts/MiMe -H 'hf 6-31g(d)' -EF 'wb97xd def2svp' -c 12 -m 48GB R"
         input file       "/local/jobs/1157668/Gau-2053749.EIn"
         output file      "/local/jobs/1157668/Gau-2053749.EOu"
         message file     "/local/jobs/1157668/Gau-2053749.EMs"
         fchk file        "/local/jobs/1157668/Gau-2053749.EFC"
         mat. el file     "/local/jobs/1157668/Gau-2053749.EUF"
 Read checkpoint file Gau-2053749_H.chk type G16
 Write formatted file Gau-2053749_H.fchk

deriv: 2

spelevel: wb97xd def2svp
gradlevel: wb97xd def2svp
hesslevel: hf 6-31g(d)

runspe: False
runforce: True
runfreq: True

Running Gaussian ...

Parsing files ...
SPE file: Gau-2053749_F.out
FORCE file: Gau-2053749_F.out
HESS file: Gau-2053749_H.out

 ExternalExternalExternalExternalExternalExternalExternalExternalExternalExternal
 Output from external command:
 "~/scripts/MiMe -H 'hf 6-31g(d)' -EF 'wb97xd def2svp' -c 12 -m 48GB R /local/jobs/1157668/Gau-2053749.EIn /local/jobs/1157668/Gau-2053749.EOu /local/jobs/1157668/Gau-2053749.EMs /local/jobs/1157668/Gau-2053749.EFC /local/jobs/1157668/Gau-2053749.EUF"
  
 --------------------------------------------------
 Force calculation at wb97xd def2svp
 Hessian calculation at hf 6-31g(d)
 ExternalExternalExternalExternalExternalExternalExternalExternalExternalExternal

 Recovered energy= -3165.50104784     dipole=      4.257400000000      4.575400000000     -0.733600000000
 Energy=    -3165.50105     NIter=   0.
 Dipole moment=       4.257400       4.575400      -0.733600
 ***** Axes restored to original set *****
 -------------------------------------------------------------------
 Center     Atomic                   Forces (Hartrees/Bohr)
 Number     Number              X              Y              Z
 -------------------------------------------------------------------
      1        6          -0.012762432    0.027132742    0.012138964
      2        6          -0.006088673   -0.005372951    0.003680760
      3        6          -0.005394063   -0.013216355    0.003580257
      4        6           0.013725512   -0.018054867    0.016749801
      5        6           0.005802495    0.005234309    0.004016433
      6        6          -0.000032169    0.012326159    0.005820128
      7        1          -0.005225921    0.001786461   -0.004024957
      8        6           0.000662744    0.005434595    0.005976498
      9        1           0.000006712   -0.001361153   -0.002368471
     10        1           0.000026066   -0.003875502    0.000191351
     11        6          -0.005035469   -0.009627048   -0.010417431
     12        1           0.001764547    0.005601367    0.002525834
     13        1           0.001278225    0.002484818    0.002758489
     14        6           0.018404620    0.039735267   -0.006324703
     15        8          -0.011811002   -0.024741280    0.006198361
     16        1           0.003219512   -0.003616078   -0.003779944
     17        1          -0.000614607   -0.000814073   -0.000580648
     18        1           0.002311706    0.003996324   -0.004824173
     19        6          -0.039182501    0.002724109    0.012438160
     20        8           0.001489997   -0.006682214   -0.011422627
     21        7           0.015451529   -0.016759069   -0.030997006
     22        1           0.000752482    0.000355170   -0.001142051
     23        1           0.001030051    0.002187176    0.005586994
     24       35           0.020220640   -0.004877908   -0.005780017
 -------------------------------------------------------------------
 Cartesian Forces:  Max     0.039735267 RMS     0.011492668
 FormGI is forming the generalized inverse of G from B-inverse, IUseBI=4.

 GradGradGradGradGradGradGradGradGradGradGradGradGradGradGradGradGradGrad
 Berny optimization.
 Internal  Forces:  Max     0.035105678 RMS     0.006855369
 Search for a saddle point.
 Step number   2 out of a maximum of   50
 All quantities printed in internal units (Hartrees-Bohrs-Radians)
 Swapping is turned off.
 Second derivative matrix not updated -- analytic derivatives used.
 ITU=  0  0
     Eigenvalues ---   -0.07342   0.00704   0.01371   0.01636   0.01700
     Eigenvalues ---    0.01968   0.02131   0.02326   0.02573   0.02998
     Eigenvalues ---    0.03183   0.04478   0.04593   0.04742   0.05041
     Eigenvalues ---    0.05303   0.05919   0.05937   0.06474   0.06694
     Eigenvalues ---    0.07592   0.07821   0.08594   0.09729   0.10062
     Eigenvalues ---    0.11262   0.11682   0.12221   0.13096   0.13480
     Eigenvalues ---    0.14114   0.14320   0.15669   0.16394   0.19042
     Eigenvalues ---    0.22037   0.23955   0.24052   0.24493   0.25015
     Eigenvalues ---    0.25935   0.27601   0.27877   0.28709   0.30703
     Eigenvalues ---    0.31463   0.32133   0.34011   0.34310   0.34511
     Eigenvalues ---    0.35022   0.35149   0.35549   0.36179   0.36286
     Eigenvalues ---    0.37958   0.38184   0.39076   0.39185   0.39695
     Eigenvalues ---    0.41191   0.44436   0.52843   0.62831   0.82979
     Eigenvalues ---    0.87491
 Eigenvectors required to have negative eigenvalues:
                          R7        D43       D5        D47       D45
   1                   -0.29496   0.28714  -0.26090   0.24863   0.23376
                          D1        D8        D12       D28       D13
   1                    0.22244   0.20560  -0.18647  -0.18377  -0.18140
 RFO step:  Lambda0=1.505934490D-03 Lambda=-2.08016752D-02.
 Linear search not attempted -- option 19 set.
 Maximum step size (   0.100) exceeded in Quadratic search.
    -- Step size scaled by   0.401
 Iteration  1 RMS(Cart)=  0.01968700 RMS(Int)=  0.00015560
 Iteration  2 RMS(Cart)=  0.00027920 RMS(Int)=  0.00006555
 Iteration  3 RMS(Cart)=  0.00000005 RMS(Int)=  0.00006555
 Variable       Old X    -DE/DX   Delta X   Delta X   Delta X     New X
                                 (Linear)    (Quad)   (Total)
    R1        2.73109   0.00127   0.00000   0.00068   0.00061   2.73170
    R2        2.66963  -0.03511   0.00000  -0.04821  -0.04826   2.62137
    R3        2.05435   0.00253   0.00000   0.00236   0.00236   2.05671
    R4        2.82895  -0.01798   0.00000  -0.02203  -0.02203   2.80693
    R5        2.05136   0.00277   0.00000   0.00156   0.00156   2.05292
    R6        2.75329  -0.01747   0.00000  -0.02458  -0.02458   2.72872
    R7        3.18866  -0.02123   0.00000  -0.00268  -0.00271   3.18595
    R8        2.82793  -0.01493   0.00000  -0.01478  -0.01474   2.81319
    R9        2.86371  -0.00031   0.00000   0.00109   0.00106   2.86477
   R10        2.76700  -0.01333   0.00000  -0.01701  -0.01691   2.75009
   R11        2.87620   0.00727   0.00000   0.01200   0.01203   2.88823
   R12        2.07425   0.00081   0.00000   0.00177   0.00177   2.07602
   R13        2.53934   0.00890   0.00000   0.00628   0.00625   2.54559
   R14        2.04203   0.00557   0.00000   0.00495   0.00495   2.04698
   R15        2.04381   0.00593   0.00000   0.00542   0.00542   2.04924
   R16        2.07504   0.00180   0.00000   0.00195   0.00195   2.07699
   R17        2.07113   0.00146   0.00000   0.00130   0.00130   2.07243
   R18        2.89511   0.00426   0.00000   0.00051   0.00050   2.89562
   R19        2.06742   0.00223   0.00000   0.00258   0.00258   2.07000
   R20        2.07173   0.00331   0.00000   0.00432   0.00432   2.07605
   R21        2.86969   0.00376   0.00000   0.00464   0.00469   2.87438
   R22        2.30126  -0.02800   0.00000  -0.01464  -0.01464   2.28661
   R23        2.30130  -0.01299   0.00000  -0.00628  -0.00628   2.29502
   R24        3.56587   0.02119   0.00000   0.04655   0.04655   3.61242
   R25        1.93321   0.00003   0.00000   0.00020   0.00020   1.93341
    A1        1.87229  -0.00022   0.00000   0.00605   0.00584   1.87813
    A2        2.16401   0.00520   0.00000   0.01258   0.01259   2.17661
    A3        2.14711  -0.00446   0.00000  -0.00774  -0.00787   2.13924
    A4        2.06963   0.00242   0.00000   0.01001   0.01000   2.07963
    A5        2.09985  -0.00707   0.00000  -0.01325  -0.01327   2.08658
    A6        2.06182   0.00448   0.00000   0.00659   0.00657   2.06839
    A7        1.85308  -0.00740   0.00000  -0.01484  -0.01485   1.83824
    A8        1.81273   0.00687   0.00000   0.00160   0.00164   1.81437
    A9        1.84042  -0.00916   0.00000  -0.01525  -0.01520   1.82523
   A10        2.13371   0.00240   0.00000   0.01438   0.01435   2.14806
   A11        1.78290   0.00433   0.00000   0.00295   0.00272   1.78562
   A12        2.01769  -0.00007   0.00000   0.00455   0.00439   2.02208
   A13        1.87994  -0.01173   0.00000   0.00966   0.00967   1.88961
   A14        2.10583   0.00658   0.00000  -0.00040  -0.00049   2.10534
   A15        1.93983  -0.00046   0.00000  -0.00191  -0.00192   1.93791
   A16        1.74383   0.00444   0.00000   0.00573   0.00568   1.74950
   A17        1.89659   0.00353   0.00000  -0.00482  -0.00481   1.89178
   A18        1.88055  -0.00207   0.00000  -0.00767  -0.00765   1.87290
   A19        1.85964  -0.00196   0.00000  -0.00320  -0.00334   1.85630
   A20        2.18596   0.00041   0.00000   0.00138   0.00144   2.18741
   A21        2.23749   0.00154   0.00000   0.00178   0.00184   2.23934
   A22        1.87275  -0.00861   0.00000  -0.00302  -0.00308   1.86967
   A23        2.19723   0.00107   0.00000  -0.00653  -0.00650   2.19073
   A24        2.20593   0.00725   0.00000   0.00850   0.00848   2.21442
   A25        1.92078  -0.00156   0.00000  -0.00683  -0.00683   1.91395
   A26        1.96912   0.00145   0.00000  -0.00523  -0.00523   1.96388
   A27        1.82701  -0.00487   0.00000   0.00053   0.00050   1.82751
   A28        1.87674  -0.00061   0.00000   0.00065   0.00059   1.87733
   A29        1.91756   0.00218   0.00000   0.00141   0.00140   1.91895
   A30        1.95280   0.00342   0.00000   0.00935   0.00938   1.96218
   A31        1.95183   0.00388   0.00000   0.01206   0.01204   1.96387
   A32        1.94722  -0.00117   0.00000   0.00057   0.00059   1.94782
   A33        1.82596   0.00349   0.00000   0.00779   0.00778   1.83375
   A34        1.91447  -0.00178   0.00000  -0.01093  -0.01096   1.90351
   A35        1.93087  -0.00073   0.00000  -0.00310  -0.00322   1.92766
   A36        1.89113  -0.00373   0.00000  -0.00611  -0.00614   1.88499
   A37        1.96315  -0.00790   0.00000  -0.01019  -0.01016   1.95300
   A38        2.15514   0.00296   0.00000   0.00417   0.00414   2.15927
   A39        2.16446   0.00496   0.00000   0.00578   0.00574   2.17020
   A40        2.17046   0.00039   0.00000   0.01341   0.01341   2.18387
   A41        2.04328  -0.00752   0.00000  -0.01663  -0.01664   2.02664
   A42        2.06439   0.00716   0.00000   0.00351   0.00351   2.06791
   A43        1.74452   0.00757   0.00000   0.02047   0.02054   1.76506
   A44        2.00196  -0.00902   0.00000   0.00231   0.00210   2.00406
   A45        2.02791  -0.00188   0.00000   0.00447   0.00429   2.03220
    D1        0.38248  -0.00123   0.00000  -0.02286  -0.02286   0.35962
    D2       -2.77271  -0.00199   0.00000  -0.02611  -0.02622  -2.79893
    D3        3.06832  -0.00161   0.00000  -0.00218  -0.00202   3.06630
    D4       -0.08687  -0.00237   0.00000  -0.00544  -0.00537  -0.09224
    D5       -0.66511   0.00103   0.00000   0.02605   0.02608  -0.63903
    D6       -2.84726   0.00299   0.00000   0.00532   0.00521  -2.84205
    D7        2.92679  -0.00169   0.00000  -0.00087  -0.00070   2.92610
    D8        0.74464   0.00027   0.00000  -0.02160  -0.02157   0.72307
    D9        1.85725   0.00303   0.00000   0.01233   0.01233   1.86958
   D10       -2.44428   0.00364   0.00000   0.02718   0.02717  -2.41711
   D11       -0.21850   0.00626   0.00000   0.01333   0.01333  -0.20517
   D12       -1.63104   0.00341   0.00000   0.02449   0.02451  -1.60653
   D13        0.35061   0.00402   0.00000   0.03935   0.03934   0.38996
   D14        2.57640   0.00663   0.00000   0.02550   0.02551   2.60190
   D15        0.36075   0.00003   0.00000  -0.01865  -0.01865   0.34210
   D16       -2.89088   0.00079   0.00000  -0.01539  -0.01538  -2.90626
   D17       -3.12602   0.00002   0.00000  -0.00584  -0.00585  -3.13187
   D18       -0.09447   0.00078   0.00000  -0.00258  -0.00258  -0.09705
   D19       -1.32907   0.00879   0.00000   0.01354   0.01351  -1.31555
   D20        2.74085   0.00426   0.00000   0.00654   0.00649   2.74734
   D21        0.77412   0.00344   0.00000   0.01410   0.01406   0.78817
   D22        2.68376   0.00611   0.00000   0.00397   0.00398   2.68774
   D23        0.47049   0.00158   0.00000  -0.00303  -0.00305   0.46744
   D24       -1.49624   0.00076   0.00000   0.00453   0.00452  -1.49172
   D25        0.55436   0.00714   0.00000   0.00510   0.00521   0.55956
   D26       -1.65891   0.00261   0.00000  -0.00190  -0.00182  -1.66073
   D27        2.65754   0.00179   0.00000   0.00566   0.00575   2.66329
   D28        1.44383  -0.00753   0.00000  -0.00491  -0.00494   1.43888
   D29       -1.57480  -0.00553   0.00000   0.00320   0.00319  -1.57162
   D30       -2.77021  -0.00305   0.00000  -0.00606  -0.00621  -2.77643
   D31        0.49434  -0.00105   0.00000   0.00206   0.00192   0.49626
   D32       -0.48045   0.00330   0.00000   0.01562   0.01551  -0.46493
   D33        2.78411   0.00531   0.00000   0.02374   0.02364   2.80775
   D34        1.39312   0.00107   0.00000   0.00585   0.00584   1.39896
   D35       -2.79397   0.00016   0.00000  -0.00157  -0.00156  -2.79553
   D36       -0.66653   0.00198   0.00000   0.00726   0.00727  -0.65927
   D37       -0.69547   0.00354   0.00000   0.01520   0.01521  -0.68026
   D38        1.40062   0.00263   0.00000   0.00777   0.00781   1.40843
   D39       -2.75513   0.00444   0.00000   0.01660   0.01664  -2.73848
   D40       -2.88307  -0.00567   0.00000  -0.00938  -0.00940  -2.89247
   D41       -0.78698  -0.00658   0.00000  -0.01681  -0.01680  -0.80377
   D42        1.34046  -0.00477   0.00000  -0.00798  -0.00797   1.33249
   D43       -1.25554   0.01296   0.00000   0.00099   0.00084  -1.25470
   D44        0.90865   0.00613   0.00000   0.02084   0.02087   0.92952
   D45        0.67831   0.00345   0.00000  -0.01920  -0.01931   0.65900
   D46        2.84250  -0.00338   0.00000   0.00066   0.00072   2.84322
   D47        3.03652   0.01053   0.00000   0.00656   0.00643   3.04295
   D48       -1.08247   0.00370   0.00000   0.02642   0.02646  -1.05602
   D49       -2.15715   0.00642   0.00000  -0.01746  -0.01743  -2.17458
   D50        1.01508   0.00585   0.00000  -0.00889  -0.00888   1.00620
   D51       -0.10540  -0.00174   0.00000  -0.00107  -0.00104  -0.10645
   D52        3.06682  -0.00231   0.00000   0.00751   0.00751   3.07434
   D53        1.87373   0.00334   0.00000  -0.00647  -0.00646   1.86727
   D54       -1.23722   0.00277   0.00000   0.00211   0.00209  -1.23513
   D55        0.07446   0.00043   0.00000   0.00695   0.00688   0.08135
   D56        3.09230  -0.00215   0.00000  -0.00259  -0.00276   3.08954
   D57       -3.05300   0.00123   0.00000   0.01034   0.01038  -3.04262
   D58       -0.03516  -0.00135   0.00000   0.00080   0.00073  -0.03443
   D59        2.69415  -0.00150   0.00000   0.00154   0.00156   2.69571
   D60       -1.43747  -0.00183   0.00000  -0.00342  -0.00344  -1.44092
   D61        0.60348  -0.00482   0.00000  -0.00589  -0.00593   0.59755
   D62        0.63230   0.00194   0.00000   0.00855   0.00860   0.64090
   D63        2.78386   0.00160   0.00000   0.00359   0.00360   2.78745
   D64       -1.45837  -0.00138   0.00000   0.00113   0.00111  -1.45726
   D65       -1.45094  -0.00093   0.00000   0.00081   0.00084  -1.45010
   D66        0.70062  -0.00127   0.00000  -0.00415  -0.00416   0.69646
   D67        2.74157  -0.00425   0.00000  -0.00662  -0.00665   2.73493
   D68       -0.29219   0.00257   0.00000   0.00447   0.00445  -0.28773
   D69        2.81858   0.00310   0.00000  -0.00420  -0.00420   2.81438
   D70       -2.39686  -0.00374   0.00000  -0.01288  -0.01286  -2.40971
   D71        0.71391  -0.00321   0.00000  -0.02154  -0.02151   0.69240
   D72        1.78704   0.00124   0.00000   0.00626   0.00623   1.79326
   D73       -1.38538   0.00177   0.00000  -0.00240  -0.00243  -1.38781
         Item               Value     Threshold  Converged?
 Maximum Force            0.035106     0.000450     NO 
 RMS     Force            0.006855     0.000300     NO 
 Maximum Displacement     0.085844     0.001800     NO 
 RMS     Displacement     0.019845     0.001200     NO 
 Predicted change in Energy=-6.379563D-03
 GradGradGradGradGradGradGradGradGradGradGradGradGradGradGradGradGradGrad

                          Input orientation:                          
 ---------------------------------------------------------------------
 Center     Atomic      Atomic             Coordinates (Angstroms)
 Number     Number       Type             X           Y           Z
 ---------------------------------------------------------------------
      1          6           0       -0.264187   -1.905730    0.526060
      2          6           0        0.304672   -0.103722   -0.813619
      3          6           0       -2.043198   -0.712277    0.044097
      4          6           0       -1.117332    0.310882   -0.924556
      5          6           0       -0.996481   -2.679809   -0.450756
      6          6           0       -2.127807   -1.994887   -0.706842
      7          1           0       -2.897190   -2.254583   -1.425556
      8          6           0       -3.259201    0.120870    0.398166
      9          1           0       -3.971700    0.109460   -0.438632
     10          1           0       -3.783476   -0.256588    1.284375
     11          6           0       -2.713905    1.538393    0.601169
     12          1           0       -3.471603    2.309005    0.422438
     13          1           0       -2.297896    1.671192    1.609248
     14          6           0       -1.575171    1.670885   -0.398504
     15          8           0       -1.112132    2.725287   -0.769975
     16          1           0       -0.664838   -3.614993   -0.885271
     17          1           0       -1.473718    0.224125   -1.960096
     18          1           0        0.774735   -0.611590   -1.651049
     19          6           0        1.150348    0.511642    0.181983
     20          8           0        0.754610    1.099694    1.168154
     21          7           0       -1.166789   -1.059188    1.152886
     22          1           0       -0.742509   -0.278236    1.659707
     23          1           0        0.666744   -2.219890    0.994259
     24         35           0        3.029023    0.214959   -0.009886
 ---------------------------------------------------------------------
                    Distance matrix (angstroms):
                    1          2          3          4          5
     1  C    0.000000
     2  C    2.316370   0.000000
     3  C    2.195791   2.572647   0.000000
     4  C    2.783076   1.485362   1.685933   0.000000
     5  C    1.445552   2.908762   2.282910   3.030400   0.000000
     6  C    2.236309   3.082996   1.488676   2.526862   1.347069
     7  H    3.295938   3.905457   2.295188   3.162357   2.178015
     8  C    3.618505   3.770949   1.515969   2.524539   3.699239
     9  H    4.328657   4.298071   2.151139   2.902431   4.078246
    10  H    3.959812   4.597598   2.185066   3.508522   4.080444
    11  C    4.227144   3.716177   2.413647   2.526591   4.674325
    12  H    5.297381   4.648585   3.363276   3.368899   5.637105
    13  H    4.254838   3.974162   2.862777   3.108752   4.986833
    14  C    3.919907   2.618274   2.468685   1.528384   4.389322
    15  O    4.883138   3.164258   3.653278   2.419354   5.415749
    16  H    2.252544   3.643365   3.345050   3.952061   1.083217
    17  H    3.490017   2.141160   2.284283   1.098581   3.307370
    18  H    2.737510   1.086360   3.290046   2.226806   2.975809
    19  C    2.821876   1.443975   3.422824   2.531226   3.898024
    20  O    3.237716   2.361795   3.517737   2.916475   4.468986
    21  N    1.387168   2.635385   1.455285   2.489037   2.286282
    22  H    2.040266   2.691539   2.119052   2.676933   3.207196
    23  H    1.088366   2.806722   3.243377   3.642745   2.250758
    24  Br   3.953452   2.858256   5.156559   4.247126   4.977823
                    6          7          8          9         10
     6  C    0.000000
     7  H    1.084409   0.000000
     8  C    2.641500   3.016585   0.000000
     9  H    2.810721   2.778000   1.099098   0.000000
    10  H    3.118954   3.481553   1.096680   1.771490   0.000000
    11  C    3.812935   4.304401   1.532295   2.169120   2.198343
    12  H    4.648069   4.956951   2.198554   2.414444   2.724421
    13  H    4.339739   4.998089   2.189595   3.071553   2.455367
    14  C    3.719995   4.267536   2.423465   2.860596   3.379918
    15  O    4.828626   5.330602   3.571756   3.889661   4.499779
    16  H    2.190173   2.669461   4.725950   5.000637   5.070715
    17  H    2.631064   2.907920   2.959732   2.927100   4.011567
    18  H    3.351088   4.029058   4.583494   4.951617   5.433234
    19  C    4.221256   5.159336   4.432105   5.175160   5.113518
    20  O    4.626054   5.595905   4.202577   5.089236   4.737851
    21  N    2.292963   3.327404   2.518001   3.430189   2.740166
    22  H    3.235197   4.250582   2.843328   3.870531   3.064119
    23  H    3.279312   4.307939   4.609504   5.384627   4.872698
    24  Br   5.653500   6.574402   6.302152   7.014632   6.950368
                   11         12         13         14         15
    11  C    0.000000
    12  H    1.095396   0.000000
    13  H    1.098600   1.786871   0.000000
    14  C    1.521057   2.162775   2.133869   0.000000
    15  O    2.419592   2.676236   2.859694   1.210024   0.000000
    16  H    5.741565   6.684443   6.069040   5.385736   6.357084
    17  H    3.134556   3.743627   3.938717   2.131192   2.793375
    18  H    4.676058   5.555232   5.028090   3.507224   3.933358
    19  C    4.020247   4.964953   3.907944   3.018155   3.305338
    20  O    3.541825   4.458632   3.136713   2.865057   3.143822
    21  N    3.073335   4.146136   2.990426   3.166526   4.245307
    22  H    2.882195   3.958864   2.494403   2.954426   3.880867
    23  H    5.070306   6.161476   4.930297   4.701500   5.543618
    24  Br   5.925039   6.843250   5.754848   4.844517   4.901902
                   16         17         18         19         20
    16  H    0.000000
    17  H    4.067968   0.000000
    18  H    3.417487   2.418568   0.000000
    19  C    4.632823   3.399542   2.182371   0.000000
    20  O    5.334759   3.939291   3.298000   1.214474   0.000000
    21  N    3.307291   3.381088   3.439755   2.962985   2.890117
    22  H    4.197248   3.726930   3.657084   2.527940   2.093247
    23  H    2.692964   4.391242   3.097733   2.890490   3.325297
    24  Br   5.392535   4.906941   2.908335   1.911611   2.709887
                   21         22         23         24
    21  N    0.000000
    22  H    1.023116   0.000000
    23  H    2.175830   2.489746   0.000000
    24  Br   4.536554   4.153942   3.537959   0.000000
 Stoichiometry    C10H10BrNO2
 Framework group  C1[X(C10H10BrNO2)]
 Deg. of freedom    66
 Full point group                 C1      NOp   1
 Largest Abelian subgroup         C1      NOp   1
 Largest concise Abelian subgroup C1      NOp   1
                         Standard orientation:                         
 ---------------------------------------------------------------------
 Center     Atomic      Atomic             Coordinates (Angstroms)
 Number     Number       Type             X           Y           Z
 ---------------------------------------------------------------------
      1          6           0        0.379508    1.927755    0.551285
      2          6           0       -0.280275    0.183244   -0.822374
      3          6           0        2.092215    0.644905    0.058914
      4          6           0        1.117050   -0.308362   -0.932400
      5          6           0        1.160326    2.675993   -0.407926
      6          6           0        2.253290    1.933245   -0.669365
      7          1           0        3.040702    2.161553   -1.379154
      8          6           0        3.257418   -0.260838    0.405458
      9          1           0        3.974945   -0.275217   -0.426987
     10          1           0        3.796104    0.071696    1.300972
     11          6           0        2.632464   -1.648843    0.580972
     12          1           0        3.347095   -2.457529    0.393293
     13          1           0        2.203047   -1.775125    1.584255
     14          6           0        1.494725   -1.700530   -0.427240
     15          8           0        0.975971   -2.720954   -0.819397
     16          1           0        0.884312    3.635463   -0.828157
     17          1           0        1.484547   -0.224244   -1.964268
     18          1           0       -0.715701    0.730666   -1.653586
     19          6           0       -1.165552   -0.400522    0.157710
     20          8           0       -0.809793   -1.026338    1.135838
     21          7           0        1.229259    1.021581    1.168543
     22          1           0        0.758684    0.257166    1.659456
[...]
 7286,0.01599446,-0.00066712,-0.00209547,0.00115137,0.00082288,0.000799
 51,0.00022666,0.00004066,-0.00005606,0.00000434,-0.00006586,0.00002630
 ,0.00005010,-0.00038694,0.00012487,0.00004896,0.00006050,0.00011239,0.
 00003689,0.00001947,0.00003482,0.00003851,0.00012493,0.00003030,-0.000
 14140,0.00003852,0.00024982,-0.00003274,0.09972412,0.00730472,-0.00452
 619,-0.00100234,-0.00027498,-0.00029348,-0.00022007,0.00546868,0.00265
 816,-0.00445681,-0.00000349,0.00132886,0.00078907,0.08919168,-0.250730
 47,-0.11909512,0.00169968,-0.00492728,-0.00609249,-0.00157276,-0.00149
 119,0.00249398,-0.00068644,-0.00057506,-0.00048504,-0.00002807,0.00002
 508,0.00006736,0.00003743,-0.00004197,-0.00002045,0.00027917,-0.000085
 00,0.00000098,-0.00006659,-0.00008887,0.00000685,-0.00002105,0.0000043
 8,0.00000134,0.00044408,0.00002821,-0.00034509,-0.00009666,0.00021112,
 0.00008886,-0.10055157,0.25868454,0.01321357,-0.01386244,-0.00575462,-
 0.00069038,-0.00005634,0.00007554,-0.00689742,-0.00225655,0.00421550,0
 .00046949,-0.00095091,-0.00083702,0.04030914,-0.11998432,-0.12015597,-
 0.00304214,0.00960752,0.00941511,0.00260821,0.00149483,-0.00232206,0.0
 0060240,0.00067410,0.00082432,0.00010951,-0.00007828,-0.00005588,-0.00
 006247,0.00004445,-0.00000614,-0.00022820,0.00007978,-0.00001263,0.000
 06299,0.00008483,0.00002139,0.00001964,0.00004264,0.00003389,-0.000445
 96,0.00001817,0.00034426,0.00008198,-0.00028001,-0.00006901,-0.0440338
 0,0.12931073,0.11646754,-0.00229807,0.00038539,0.00232964,-0.01344231,
 -0.00426402,-0.03573637,0.00476445,0.00075479,0.01309797,-0.08821770,-
 0.00419132,-0.08048541,-0.00031047,0.00014409,-0.00027251,0.00117894,0
 .00016255,0.00138748,0.00012533,-0.00011946,-0.00011948,0.00014363,-0.
 00000165,-0.00036883,-0.00047338,0.00003702,0.00027433,-0.00006998,-0.
 00014228,-0.00021878,-0.00207748,0.00037172,-0.00195562,-0.00027946,0.
 00002827,0.00032336,0.00043384,-0.00016444,-0.00038029,0.00442152,0.00
 049583,0.00768151,0.00008154,0.00001996,0.00003996,-0.00002373,-0.0000
 2037,0.00001014,0.09874914,-0.00113704,0.00115707,0.00462105,0.0013753
 7,0.00394430,0.00691187,0.00538740,-0.00119825,0.01728430,-0.00698524,
 -0.05968758,-0.03530663,-0.00088398,0.00079913,-0.00090672,0.00011314,
 -0.00109195,0.00378086,-0.00013327,-0.00014487,-0.00023645,0.00046230,
 -0.00007994,-0.00112166,-0.00013550,0.00025698,0.00003208,-0.00010849,
 0.00016647,-0.00011117,0.00389522,-0.00215302,0.00320711,0.00089170,0.
 00026334,-0.00077320,-0.00095939,-0.00008515,0.00058637,-0.01412890,-0
 .00041824,-0.03485390,0.00200240,-0.00166215,0.00452224,-0.00004892,-0
 .00016392,0.00004090,0.00825446,0.06697445,0.00166403,-0.00002340,-0.0
 0205989,0.00401541,-0.00195428,0.00272252,-0.00349145,0.00192374,-0.01
 261922,-0.09220100,-0.02808275,-0.28153077,-0.00149089,-0.00074081,0.0
 0002738,0.00098587,-0.00243475,-0.00006193,0.00029050,0.00046877,0.000
 31049,-0.00061593,-0.00017168,-0.00013415,0.00069675,-0.00005384,0.000
 20752,0.00031942,-0.00000746,0.00021609,0.00199734,-0.00182193,0.00097
 788,0.00043082,-0.00007849,-0.00048153,-0.00036242,0.00015272,0.000185
 73,-0.00413435,-0.00026486,-0.01340643,0.00065058,-0.00021928,0.002434
 45,0.00004027,0.00010792,-0.00000587,0.09197289,0.02883639,0.30248499,
 -0.00136904,-0.00096574,0.00148134,-0.12665336,0.06121255,0.10649992,-
 0.00297120,0.00005168,0.00086557,-0.00856522,0.01225232,0.02192993,0.0
 0116281,-0.00049160,0.00069751,-0.00032455,0.00136566,0.00010654,-0.00
 005982,-0.00005166,-0.00000412,-0.00022440,-0.00005523,0.00045976,-0.0
 0001537,-0.00000157,-0.00003930,-0.00023226,0.00011474,0.00006262,-0.0
 0024095,0.00079658,0.00058180,-0.00017372,0.00005204,0.00019986,-0.000
 15645,0.00001818,0.00019792,-0.00355584,-0.00342665,-0.00008600,0.0006
 9178,0.00122623,-0.00036955,0.00003840,-0.00014782,0.00002042,0.001121
 96,-0.00031211,0.00021109,0.13372634,-0.00213899,-0.00049324,0.0035242
 2,0.05224669,-0.07507153,-0.10085020,-0.00197243,-0.00477960,0.0053882
 4,0.00764578,-0.00129565,-0.00768430,0.00305515,0.00044855,0.00238521,
 -0.00057951,0.00267929,-0.00030172,-0.00004492,-0.00002062,-0.00005818
 ,-0.00009080,0.00020636,-0.00040730,-0.00005482,0.00005893,0.00001203,
 0.00009938,-0.00000184,-0.00008343,0.00001770,-0.00046107,-0.00045371,
 0.00008846,0.00000142,-0.00009017,0.00011958,-0.00004723,-0.00015033,0
 .00297533,0.00174522,-0.00066903,-0.00073795,-0.00034714,0.00038909,-0
 .00009038,-0.00018695,-0.00010507,-0.00145882,-0.00042841,0.00117432,-
 0.05899558,0.08699336,-0.00016301,-0.00037329,-0.00092785,0.10043332,-
 0.10859823,-0.24810763,0.00022847,0.00336080,-0.00269389,-0.00804926,0
 .00293443,0.00856813,-0.00233758,-0.00040107,-0.00048150,0.00110559,-0
 .00180220,0.00010517,-0.00002581,-0.00000372,0.00005383,-0.00003770,-0
 .00024056,0.00036336,0.00002535,-0.00002643,-0.00000967,-0.00015197,0.
 00004289,0.00007103,-0.00010346,0.00030947,0.00035256,-0.00005972,0.00
 001233,0.00007611,-0.00010203,0.00003462,0.00013608,-0.00231504,-0.000
 51105,0.00059659,0.00040229,0.00011095,-0.00011230,0.00011360,0.000237
 42,0.00002876,0.00102727,0.00073158,0.00072628,-0.10592478,0.11104624,
 0.25896488,-0.01989194,-0.01614679,0.02362188,-0.16164576,-0.02934509,
 -0.10263443,-0.00586381,0.00621455,-0.00457760,-0.03418352,-0.01638607
 ,-0.01743013,0.00377737,-0.00060928,-0.00230979,0.00399791,0.00435268,
 -0.00212222,-0.00036106,-0.00047991,0.00074583,-0.00144830,-0.00060389
 ,0.00078172,0.00040149,-0.00012743,0.00020789,-0.00014936,0.00023654,-
 0.00001273,0.00019990,-0.00044406,-0.00050413,0.00033693,-0.00036088,0
 .00011489,-0.00033763,0.00036740,0.00040452,-0.00682525,0.00566291,-0.
 00265542,0.00112237,-0.00434179,0.00151900,0.00028204,0.00043123,0.000
 63992,-0.00333892,0.00170987,-0.00027097,0.01249663,0.00809935,0.01850
 569,0.41147209,-0.02312117,-0.01488644,0.02514506,-0.02233200,-0.07088
 709,-0.07469297,0.00203813,0.00443923,-0.00191469,-0.00495714,-0.00263
 004,0.01186410,0.00136655,-0.00070441,-0.00401576,0.00159089,-0.000411
 22,-0.00343450,-0.00017800,-0.00060815,0.00042511,-0.00088515,0.001075
 16,0.00011478,-0.00008685,-0.00043016,-0.00014961,0.00012646,-0.000408
 09,-0.00010552,0.00106661,-0.00019183,0.00133150,-0.00027144,-0.000549
 44,-0.00043001,0.00062727,-0.00016946,-0.00117393,0.00846728,0.0093101
 5,0.00530704,-0.00446423,-0.00662268,-0.00170796,-0.00000178,0.0001046
 4,0.00011060,0.00470102,0.00000550,-0.00191557,-0.00977047,-0.01385246
 ,-0.00362016,-0.03318700,0.35602894,-0.04228191,-0.01183463,0.04914206
 ,-0.04692511,-0.03431689,-0.20646072,0.00244245,0.01550511,-0.00764999
 ,-0.04089660,-0.00950850,0.00784478,0.00417721,-0.00302999,-0.00593140
 ,0.00817129,0.00228851,-0.00868513,-0.00008370,-0.00083078,0.00025094,
 -0.00219526,0.00002150,0.00059743,-0.00012370,-0.00057546,-0.00013270,
 -0.00027956,-0.00028004,0.00011256,0.00152068,-0.00092519,0.00073795,-
 0.00043606,-0.00082773,-0.00068689,0.00163134,-0.00015746,-0.00219766,
 0.00930622,0.01002104,0.00551037,-0.00445269,-0.00672935,-0.00277066,-
 0.00014627,0.00029962,0.00013417,-0.00107915,-0.00055830,0.00036594,-0
 .02116034,-0.01298414,-0.01648368,-0.04127780,0.29250395,0.76533386,-0
 .01073450,0.00201302,0.01175196,0.03589023,0.00671025,-0.00664408,0.00
 295966,0.00243384,0.00059382,-0.00577438,-0.00152820,0.00178451,-0.000
 68613,-0.00034014,-0.00316122,0.00119642,-0.00177390,-0.00287498,0.000
 18921,-0.00009756,-0.00027758,-0.00021810,0.00048844,-0.00010349,-0.00
 022541,-0.00024112,-0.00014668,-0.00004866,-0.00023861,0.00005883,0.00
 020709,-0.00001615,0.00069114,-0.00047351,-0.00028594,-0.00056039,0.00
 035050,-0.00027071,-0.00167809,0.00467462,0.00148546,0.00305027,-0.002
 48457,-0.00010967,-0.00264393,-0.00014295,-0.00008971,-0.00021414,0.00
 026808,-0.00097958,-0.00035591,-0.00253911,-0.00377055,-0.00399923,-0.
 15910036,0.08075795,0.14641694,0.17286182,0.00483875,0.00422899,-0.011
 03589,-0.00823564,-0.01734680,-0.04124800,-0.00055711,-0.00420705,0.00
 212736,0.00613468,0.00167178,-0.00073185,-0.00257249,0.00040379,0.0015
 4405,-0.00169582,-0.00160847,0.00054936,0.00037825,0.00050220,-0.00062
 389,0.00062017,-0.00066369,-0.00010657,0.00001482,0.00037827,0.0001429
 0,-0.00004165,0.00031119,0.00001823,-0.00074738,0.00032628,-0.00110199
 ,0.00013585,0.00037884,0.00041388,-0.00036663,-0.00005604,0.00116180,-
 0.00453708,-0.00799319,-0.00180637,0.00471224,0.00459309,0.00245296,-0
 .00004130,-0.00004645,-0.00016965,-0.00061359,0.00017016,0.00081876,-0
 .00201895,0.00583386,-0.00456759,0.08182102,-0.22602387,-0.24947176,-0
 .09713242,0.24526048,0.02444523,0.00614459,-0.03007113,-0.02231220,-0.
 06816576,-0.05822273,-0.00150383,-0.00536817,0.00078120,0.02095022,0.0
 0759401,-0.00424909,-0.00330660,0.00135070,0.00433376,-0.00354756,-0.0
 0169428,0.00537100,0.00015653,0.00071491,-0.00012785,0.00117546,-0.000
 18804,0.00012550,0.00021170,0.00032867,0.00015248,-0.00009199,0.000146
 88,-0.00002883,-0.00080814,0.00052847,-0.00068550,0.00028891,0.0004758
 6,0.00062347,-0.00129953,0.00019459,0.00172514,-0.00329932,-0.00698033
 ,-0.00472417,0.00131653,0.00454464,0.00090024,0.00017638,0.00003011,-0
 .00000554,0.00037103,-0.00032434,0.00074192,-0.00345708,-0.00237965,-0
 .00181062,0.13987700,-0.23647798,-0.51776241,-0.16665224,0.31278376,0.
 59099290,-0.21400306,0.12427979,0.00986643,-0.04107181,-0.03054619,0.0
 2264400,-0.14023716,0.03527378,-0.09309262,0.00069171,0.00429527,-0.01
 074993,0.01752082,-0.00374012,0.00982812,-0.01707835,-0.00167336,-0.02
 915899,0.00166251,-0.00064876,-0.00282008,-0.01803899,0.00612423,-0.03
 060030,-0.00480075,0.00553222,0.00113862,0.00409005,-0.00206170,-0.000
 87018,0.00035849,-0.00178704,-0.00026626,0.00036782,0.00032510,-0.0004
 5828,0.00002179,0.00004981,-0.00061907,-0.00356033,-0.00028969,0.00394
 570,0.00287149,0.00114822,-0.00149819,-0.00176457,-0.00096951,-0.00340
 669,0.00137330,0.00153608,-0.00037035,-0.00000696,-0.00491705,0.003072
 88,0.01368191,0.01123063,0.03954172,0.00427705,-0.00700531,-0.01373163
 ,0.54307579,0.13733077,-0.21472597,-0.09895640,0.01383274,0.00193492,0
 .01070569,0.02715414,-0.11006220,-0.00535148,-0.00428648,-0.01019151,0
 .04730384,-0.00307691,-0.02839004,-0.05995666,-0.00732401,-0.01819728,
 -0.04022899,0.00144061,-0.00579752,-0.00223965,0.01136471,-0.00524956,
 0.02264680,0.00354058,-0.00330286,-0.00060037,-0.00232774,0.00144485,0
 .00019740,0.00020324,0.00081108,-0.00020517,0.00003084,0.00011271,0.00
 004129,0.00008656,0.00000979,0.00009541,0.00176950,0.00247739,-0.00304
 349,-0.00023279,0.00054933,0.00026476,-0.00234849,0.00014744,-0.004025
 35,-0.00402528,-0.00624787,0.00402341,-0.00005327,-0.00052282,0.000217
 47,-0.00401396,-0.00946351,-0.01621038,-0.01371638,-0.00077449,0.01305
 479,-0.06985843,0.68073332,0.00720989,-0.09586581,-0.12376363,0.009517
 19,0.03151400,-0.02291138,-0.07749410,-0.02908830,-0.16161422,0.023421
 53,0.01845705,-0.04495260,0.01172605,-0.02604386,-0.03248279,-0.014962
 97,-0.00759330,-0.04305456,0.00237115,-0.00240945,-0.00209072,0.006547
 09,0.00449468,0.01175236,0.00406418,-0.00300269,0.00069239,-0.00141755
 ,0.00040134,0.00126176,-0.00130333,0.00243208,0.00101879,-0.00029274,-
 0.00027592,0.00042285,-0.00014075,0.00069959,0.00021123,0.00111739,-0.
 00328214,0.00047618,-0.00214446,-0.00101527,0.00117388,-0.00439986,-0.
 00157668,-0.00185503,0.00232328,0.00368037,-0.00135956,-0.00072543,0.0
 0109465,-0.00069372,-0.00826950,-0.01016946,-0.02643370,-0.00514846,0.
 00153786,0.01596071,0.16381095,0.26784834,0.55394265,0.02162669,0.0234
 0589,0.01745327,-0.00538723,-0.00467147,-0.00313429,-0.00462091,-0.022
 98126,-0.00352857,0.00377387,0.00086727,-0.00108978,-0.00424203,0.0042
 8646,0.00384650,-0.00362837,0.00195004,-0.00390080,0.00065571,-0.00045
 797,-0.00083945,-0.00011450,-0.00011276,-0.00012096,0.00019944,-0.0000
 3427,0.00038704,-0.00074200,0.00002641,0.00017250,-0.00046045,0.000369
 62,-0.00030041,0.00015002,0.00001309,0.00049548,-0.00011149,0.00129262
 ,0.00054356,0.00160958,-0.00015306,-0.00127117,-0.00091524,-0.00015718
 ,0.00046182,0.00108079,0.00056155,0.00103647,-0.00021006,-0.00008770,0
 .00007065,-0.00022908,0.00033701,-0.00040974,-0.00468758,0.00669675,0.
 01910740,0.00271540,-0.00330450,-0.01162622,-0.12872782,-0.09003244,-0
 .10591443,0.12147332,-0.01052717,-0.01512924,-0.01304942,-0.00457714,-
 0.00482075,-0.00240342,0.00100451,0.01627611,0.00851187,0.00279992,0.0
 0164257,-0.00047649,0.00266951,-0.00123655,-0.00152311,0.00324214,-0.0
 0131971,0.00429863,-0.00009208,0.00124841,0.00055233,-0.00030041,0.000
 81329,-0.00004120,0.00005964,-0.00037226,-0.00002842,-0.00024349,-0.00
 001314,-0.00008050,0.00050755,0.00027351,0.00043250,-0.00032704,-0.000
 17860,-0.00036738,0.00119281,-0.00123057,-0.00040010,-0.00012361,-0.00
 026538,0.00207528,0.00003871,-0.00032245,-0.00036491,-0.00013787,0.000
 40975,-0.00085360,-0.00013847,-0.00043095,0.00007675,-0.00007839,0.000
 25459,-0.00031621,-0.00342887,0.00778316,0.01416670,0.00301364,-0.0072
 0933,-0.00914755,-0.07949526,-0.27508140,-0.16614431,0.08338268,0.2791
 5507,0.00374913,-0.01518190,-0.01974613,-0.00157475,-0.00361917,0.0009
 1330,-0.00269464,-0.01719232,-0.01485179,-0.00225031,-0.00075081,0.000
 14282,0.00313769,-0.00432911,0.00620064,-0.00447412,0.00379436,-0.0007
 7753,-0.00010959,-0.00126755,0.00012151,-0.00023591,0.00024039,0.00039
 571,0.00008801,0.00006898,-0.00019171,0.00046837,0.00008550,-0.0000755
 3,-0.00005460,-0.00009899,-0.00004583,0.00011573,0.00001929,-0.0000744
 3,0.00022107,-0.00033631,0.00041754,-0.00117776,0.00224160,-0.00036733
 ,0.00041938,-0.00053582,-0.00013934,-0.00048511,-0.00025352,-0.0000288
 9,0.00004804,0.00000177,0.00032410,0.00005729,-0.00026285,0.00038855,0
 .00671367,0.00173120,0.00070242,-0.00190209,-0.00135653,-0.00217938,-0
 .08877981,-0.13069176,-0.14336789,0.08918644,0.16507045,0.17300111,-0.
 27204447,0.06399482,-0.11970222,-0.00065570,-0.00338035,0.00098822,0.0
 0204255,0.00192891,0.00437106,-0.00028578,-0.00021040,-0.00063901,-0.0
 0232538,0.00429167,-0.00152084,0.00054173,-0.00037102,-0.00211483,-0.0
 0028087,-0.00002729,0.00016460,0.00015476,0.00055003,-0.00120848,-0.00
 020045,0.00021774,0.00008211,0.00020011,-0.00011504,-0.00000644,-0.000
 18426,-0.00016912,-0.00004451,0.00005909,0.00006153,-0.00002530,0.0000
 3046,-0.00000211,-0.00003045,0.00016717,0.00025739,0.00036872,0.000099
 37,-0.00004043,-0.00010659,-0.00032948,-0.00075284,0.00009456,0.000219
 94,0.00001012,-0.00002427,0.00006958,0.00006465,0.00013025,0.00373736,
 -0.00042743,0.00371142,-0.00052211,0.00035601,-0.00113738,-0.01635993,
 0.00480839,-0.01235305,-0.00034711,-0.00017537,0.00105872,0.28665474,0
 .06829421,-0.08006160,0.01295815,-0.00195978,-0.00529497,0.00131156,0.
 00775549,-0.00200885,-0.00307006,-0.00036498,0.00039349,-0.00099631,-0
 .01576533,0.01371679,-0.00522993,-0.00165711,-0.00287918,-0.00491896,-
 0.00119693,0.00060527,0.00013787,0.00118208,0.00119522,0.00113433,0.00
 045037,-0.00038157,-0.00010003,0.00011911,-0.00004876,-0.00002692,-0.0
 0027589,0.00001128,-0.00001826,0.00003602,0.00002944,-0.00003984,0.000
 02530,-0.00000768,-0.00003259,0.00054817,0.00032845,0.00011198,-0.0000
 4498,0.00002304,-0.00002809,0.00032894,-0.00053158,0.00102224,0.000184
 48,-0.00001345,0.00005932,-0.00006389,-0.00006791,0.00027486,0.0039589
 8,-0.00097343,0.00778567,-0.00033272,0.00047392,-0.00310596,0.01164055
 ,0.00016907,0.01466712,-0.00078345,0.00040656,0.00207592,-0.07145649,0
 .07421593,-0.13269329,0.02109936,-0.13371304,0.00117164,0.00325307,-0.
 00084479,-0.00244079,-0.00319303,-0.00430862,0.00032860,-0.00014556,0.
 00098358,-0.01181355,0.00971020,0.00097978,-0.00356487,-0.00252739,-0.
 00215767,-0.00074019,0.00075779,0.00024491,0.00012847,-0.00066806,0.00
 119736,0.00026500,-0.00022706,-0.00000506,-0.00022792,0.00012744,0.000
 02049,0.00012682,0.00022734,0.00004904,-0.00004642,-0.00004280,0.00003
 438,-0.00001080,0.00001705,0.00002329,-0.00014343,-0.00019099,-0.00027
 940,-0.00006436,0.00001695,0.00007735,0.00077412,0.00007207,-0.0004465
 4,-0.00025365,-0.00010885,0.00009764,-0.00001627,0.00013624,-0.0003724
 2,-0.00334468,0.00048860,-0.00381033,0.00037344,0.00021555,0.00148651,
 0.02327811,-0.00555313,0.01704944,-0.00005940,0.00070481,-0.00069709,0
 .12821878,-0.02343813,0.12426097,0.00264667,0.00370553,-0.00718469,-0.
 04487784,0.00731144,0.00608825,0.00011765,-0.00255192,0.00118050,0.003
 43066,-0.00262856,-0.00616205,-0.00001537,0.00010711,0.00151127,-0.001
 71918,0.00021345,0.00085552,0.00014998,0.00020087,-0.00026314,0.000380
 29,-0.00003235,0.00007885,-0.00007228,0.00000263,-0.00010184,-0.000088
 53,0.00002851,0.00012204,-0.00026361,0.00035441,0.00015003,-0.00022785
 ,0.00010102,-0.00007454,0.00025810,-0.00013091,-0.00033836,0.00183051,
 -0.00346165,0.00127474,-0.00008721,0.00238514,-0.00100101,-0.00004465,
 -0.00013637,-0.00025724,-0.00214011,0.00026206,-0.00002807,-0.00199018
 ,0.00010270,-0.00136539,-0.05367249,-0.01898689,-0.03468851,-0.0426402
 7,0.02985807,0.04380472,-0.00434299,-0.00026590,0.00245793,0.00113906,
 0.00173406,-0.00152483,-0.00044132,-0.00062216,0.00075464,0.14267097,-
 0.00083997,-0.00022710,0.00212518,-0.00067167,0.00795645,-0.00274493,0
 .00042092,0.00183523,-0.00110790,-0.00276966,0.00249793,-0.00077704,-0
 .00041152,0.00001819,-0.00034539,0.00074838,-0.00044583,-0.00038230,-0
 .00000546,0.00002578,0.00001008,-0.00002365,-0.00007646,-0.00001205,0.
 00003289,0.00001165,0.00002000,-0.00000597,-0.00001333,0.00001330,0.00
 007515,-0.00005027,0.00007112,0.00006205,0.00000540,0.00003027,-0.0001
 4911,0.00003158,0.00013279,-0.00042474,-0.00019488,-0.00082859,0.00015
 041,0.00014517,0.00013268,0.00004783,0.00008625,0.00009173,-0.00039989
 ,0.00006835,0.00012700,-0.00065705,-0.00064510,0.00114744,-0.00337950,
 -0.02993450,0.00564850,0.02402077,0.00139652,-0.01405991,0.00155675,-0
 .00038288,-0.00035988,-0.00041333,-0.00065269,0.00054720,0.00058663,0.
 00070052,-0.00073148,-0.01755027,0.01784403,0.00083288,-0.00030646,-0.
 00070847,-0.01471109,0.00079989,0.00385599,-0.00066669,-0.00029511,-0.
 00007770,-0.00081090,-0.00170615,0.00031369,0.00056286,0.00002978,0.00
 018094,-0.00029486,0.00043233,0.00030479,-0.00001728,-0.00002499,0.000
 05153,-0.00003577,-0.00010584,0.00013592,0.00003325,0.00002429,0.00001
 745,-0.00004511,0.00005473,0.00001881,-0.00009297,0.00001358,-0.000084
 57,0.00002019,0.00002478,0.00006988,-0.00008946,0.00003033,0.00017396,
 -0.00039812,-0.00050840,-0.00048064,0.00019992,0.00017278,0.00030368,0
 .00003368,0.00004130,-0.00000527,-0.00001681,0.00006433,-0.00016357,-0
 .00158871,0.00132983,0.00126194,-0.00772263,0.00078619,-0.03172721,0.0
 3164158,-0.01154639,-0.00332759,-0.00070414,0.00066360,0.00061756,-0.0
 0056591,-0.00069267,-0.00006483,-0.00027506,-0.00053390,0.00013022,-0.
 00528884,0.01125217,0.02920352\\-0.00000254,-0.00000036,0.00000182,0.0
 0000045,0.00000134,0.00000088,-0.00000035,-0.00000147,-0.00000014,0.00
 000160,-0.00000207,-0.00000238,0.00000115,0.00000149,0.00000109,-0.000
 00171,0.00000123,-0.00000034,-0.00000233,-0.00000238,0.00000359,-0.000
 00133,0.00000334,0.00000324,0.00000095,-0.00000105,0.00000084,0.000000
 03,0.00000073,0.00000114,0.00000879,-0.00000439,0.00000159,0.00000076,
 -0.00000044,-0.00000567,-0.00000640,0.00000551,0.00000187,-0.00001306,
 -0.00000190,-0.00001499,0.00001634,0.00000214,0.00001658,-0.00000140,-
 0.00000146,0.00000290,-0.00000324,0.00000113,0.00000166,-0.00000404,-0
 .00000181,-0.00000247,-0.00000143,-0.00000210,-0.00000645,0.00000498,0
 .00000125,0.00000138,-0.00000113,-0.00000247,0.00000263,0.00000380,0.0
 0000271,-0.00000405,0.00000112,0.00000144,-0.00000063,-0.00000101,-0.0
 0000042,-0.00000410\\\@
 The archive entry for this job was punched.


 A warm smile is the universal language of kindness.
                             -- William Arthur Ward
 Job cpu time:       0 days  2 hours 52 minutes 41.1 seconds.
 Elapsed time:       0 days  0 hours 28 minutes 49.0 seconds.
 File lengths (MBytes):  RWF=      6 Int=      0 D2E=      0 Chk=      2 Scr=      1
 Normal termination of Gaussian 16 at Tue Jan 16 22:50:07 2024.
