Unloading slurm/anatra/current
  ERROR: No such file or directory on
    '/cm/local/modulefiles/slurm/anatra/current'
environment: line 0: unalias: gv: not found
environment: line 0: unalias: sl: not found
 Entering Gaussian System, Link 0=g16
 Initial command:
 /apps/gaussian/g16/C.01/g16/l1.exe "/local/jobs/1158196/Gau-206165.inp" -scrdir="/local/jobs/1158196/"
 Entering Link 1 = /apps/gaussian/g16/C.01/g16/l1.exe PID=    206166.
  
 Copyright (c) 1988-2019, Gaussian, Inc.  All Rights Reserved.
  
 This is part of the Gaussian(R) 16 program.  It is based on
 the Gaussian(R) 09 system (copyright 2009, Gaussian, Inc.),
 the Gaussian(R) 03 system (copyright 2003, Gaussian, Inc.),
 the Gaussian(R) 98 system (copyright 1998, Gaussian, Inc.),
 the Gaussian(R) 94 system (copyright 1995, Gaussian, Inc.),
 the Gaussian 92(TM) system (copyright 1992, Gaussian, Inc.),
 the Gaussian 90(TM) system (copyright 1990, Gaussian, Inc.),
 the Gaussian 88(TM) system (copyright 1988, Gaussian, Inc.),
 the Gaussian 86(TM) system (copyright 1986, Carnegie Mellon
 University), and the Gaussian 82(TM) system (copyright 1983,
 Carnegie Mellon University). Gaussian is a federally registered
 trademark of Gaussian, Inc.
  
 This software contains proprietary and confidential information,
 including trade secrets, belonging to Gaussian, Inc.
  
 This software is provided under written license and may be
 used, copied, transmitted, or stored only in accord with that
 written license.
  
 The following legend is applicable only to US Government
 contracts under FAR:
  
                    RESTRICTED RIGHTS LEGEND
  
 Use, reproduction and disclosure by the US Government is
 subject to restrictions as set forth in subparagraphs (a)
 and (c) of the Commercial Computer Software - Restricted
 Rights clause in FAR 52.227-19.
  
 Gaussian, Inc.
 340 Quinnipiac St., Bldg. 40, Wallingford CT 06492
  
  
 ---------------------------------------------------------------
 Warning -- This program may not be used in any manner that
 competes with the business of Gaussian, Inc. or will provide
 assistance to any competitor of Gaussian, Inc.  The licensee
 of this program is prohibited from giving any competitor of
 Gaussian, Inc. access to this program.  By using this program,
 the user acknowledges that Gaussian, Inc. is engaged in the
 business of creating and licensing software in the field of
 computational chemistry and represents and warrants to the
 licensee that it is not a competitor of Gaussian, Inc. and that
 it will not use this program in any manner prohibited above.
 ---------------------------------------------------------------
  

 Cite this work as:
 Gaussian 16, Revision C.01,
 M. J. Frisch, G. W. Trucks, H. B. Schlegel, G. E. Scuseria, 
 M. A. Robb, J. R. Cheeseman, G. Scalmani, V. Barone, 
 G. A. Petersson, H. Nakatsuji, X. Li, M. Caricato, A. V. Marenich, 
 J. Bloino, B. G. Janesko, R. Gomperts, B. Mennucci, H. P. Hratchian, 
 J. V. Ortiz, A. F. Izmaylov, J. L. Sonnenberg, D. Williams-Young, 
 F. Ding, F. Lipparini, F. Egidi, J. Goings, B. Peng, A. Petrone, 
 T. Henderson, D. Ranasinghe, V. G. Zakrzewski, J. Gao, N. Rega, 
 G. Zheng, W. Liang, M. Hada, M. Ehara, K. Toyota, R. Fukuda, 
 J. Hasegawa, M. Ishida, T. Nakajima, Y. Honda, O. Kitao, H. Nakai, 
 T. Vreven, K. Throssell, J. A. Montgomery, Jr., J. E. Peralta, 
 F. Ogliaro, M. J. Bearpark, J. J. Heyd, E. N. Brothers, K. N. Kudin, 
 V. N. Staroverov, T. A. Keith, R. Kobayashi, J. Normand, 
 K. Raghavachari, A. P. Rendell, J. C. Burant, S. S. Iyengar, 
 J. Tomasi, M. Cossi, J. M. Millam, M. Klene, C. Adamo, R. Cammi, 
 J. W. Ochterski, R. L. Martin, K. Morokuma, O. Farkas, 
 J. B. Foresman, and D. J. Fox, Gaussian, Inc., Wallingford CT, 2019.
 
 ******************************************
 Gaussian 16:  ES64L-G16RevC.01  3-Jul-2019
                18-Jan-2024 
 ******************************************
 %nprocshared=12
 Will use up to   12 processors via shared memory.
 %mem=48GB
 ----------------------------------------------------------------------
 # external="~/scripts/MiMe -H 'hf 6-31g(d)' -EF 'wb97xd def2svp' -c 12
  -m 48GB" opt=(calcall,ts,noeigen,maxcycles=50,maxstep=10,nomicro)
 ----------------------------------------------------------------------
 1/5=1,6=50,8=10,10=4,11=1,18=20,26=1,38=1/1,3;
 2/9=110,12=2,17=6,18=5,40=1/2;
 3/11=9,25=1,30=1,41=9900000,43=2,71=2,140=1/1;
 4/20=17,22=2,24=3,113=1,114=1/2;
 6/7=2,8=2,9=2,10=2,18=1/1;
 7/25=1,44=-1/16;
 1/5=1,6=50,8=10,10=4,11=1,18=20,26=1/3(3);
 2/9=110/2;
 7/8=1,9=1,25=1,44=-1/16;
 99//99;
 2/9=110/2;
 3/11=9,25=1,30=1,41=9900000,43=2,71=2,140=1/1;
 4/16=2,20=17,22=2,24=3,113=1,114=1/2;
 7/25=1,44=-1/16;
 1/5=1,6=50,8=10,10=4,11=1,18=20,26=1/3(-4);
 2/9=110/2;
 6/7=2,8=2,9=2,10=2,18=1/1;
 7/8=1,9=1,25=1,44=-1/16;
 99//99;
 -------------
 TS-898_hf.out
 -------------
 Symbolic Z-matrix:
 Charge =  0 Multiplicity = 1
 C                    -0.60489  -0.42551  -0.19345 
 C                    -1.84959   0.05625   0.36025 
 O                    -1.97034   0.8684    1.28011 
 C                     0.63397   0.00702   0.33123 
 C                     0.80738   2.11837  -1.28247 
 H                     1.17383   2.48248  -2.25106 
 H                    -0.26468   1.87784  -1.34611 
 H                     0.95485   2.88895  -0.5173 
 N                     1.49944   0.89306  -0.88129 
 H                     1.55775   0.22558  -1.65323 
 H                     2.45551   1.0511   -0.55483 
 Cl                    1.96951  -1.33365   0.48416 
 C                     0.73299   0.86937   1.56333 
 H                     0.10302   1.76068   1.46468 
 H                     0.32942   0.31085   2.41662 
 H                     1.78109   1.12966   1.77247 
 C                    -0.61393  -1.36407  -1.38222 
 H                     0.38747  -1.78243  -1.56673 
 H                    -1.26943  -2.23553  -1.22522 
 H                    -0.95529  -0.88745  -2.32151 
 C                    -3.12615  -0.49956  -0.27146 
 H                    -3.19993  -1.58862  -0.12411 
 H                    -3.98366  -0.01342   0.20944 
 H                    -3.16357  -0.31756  -1.35688 
 

 GradGradGradGradGradGradGradGradGradGradGradGradGradGradGradGradGradGrad
 Berny optimization.
 Initialization pass.
                           ----------------------------
                           !    Initial Parameters    !
                           ! (Angstroms and Degrees)  !
 --------------------------                            --------------------------
 ! Name  Definition              Value          Derivative Info.                !
 --------------------------------------------------------------------------------
 ! R1    R(1,2)                  1.445          calculate D2E/DX2 analytically  !
 ! R2    R(1,4)                  1.4132         calculate D2E/DX2 analytically  !
 ! R3    R(1,17)                 1.5146         calculate D2E/DX2 analytically  !
 ! R4    R(2,3)                  1.233          calculate D2E/DX2 analytically  !
 ! R5    R(2,21)                 1.5289         calculate D2E/DX2 analytically  !
 ! R6    R(4,9)                  1.7333         calculate D2E/DX2 analytically  !
 ! R7    R(4,12)                 1.8985         calculate D2E/DX2 analytically  !
 ! R8    R(4,13)                 1.5072         calculate D2E/DX2 analytically  !
 ! R9    R(5,6)                  1.0977         calculate D2E/DX2 analytically  !
 ! R10   R(5,7)                  1.1006         calculate D2E/DX2 analytically  !
 ! R11   R(5,8)                  1.0959         calculate D2E/DX2 analytically  !
 ! R12   R(5,9)                  1.4633         calculate D2E/DX2 analytically  !
 ! R13   R(9,10)                 1.0222         calculate D2E/DX2 analytically  !
 ! R14   R(9,11)                 1.0226         calculate D2E/DX2 analytically  !
 ! R15   R(13,14)                1.0959         calculate D2E/DX2 analytically  !
 ! R16   R(13,15)                1.0968         calculate D2E/DX2 analytically  !
 ! R17   R(13,16)                1.1            calculate D2E/DX2 analytically  !
 ! R18   R(17,18)                1.1009         calculate D2E/DX2 analytically  !
 ! R19   R(17,19)                1.1017         calculate D2E/DX2 analytically  !
 ! R20   R(17,20)                1.1072         calculate D2E/DX2 analytically  !
 ! R21   R(21,22)                1.1015         calculate D2E/DX2 analytically  !
 ! R22   R(21,23)                1.0968         calculate D2E/DX2 analytically  !
 ! R23   R(21,24)                1.1012         calculate D2E/DX2 analytically  !
 ! A1    A(2,1,4)              120.7185         calculate D2E/DX2 analytically  !
 ! A2    A(2,1,17)             120.1457         calculate D2E/DX2 analytically  !
 ! A3    A(4,1,17)             119.0962         calculate D2E/DX2 analytically  !
 ! A4    A(1,2,3)              126.1451         calculate D2E/DX2 analytically  !
 ! A5    A(1,2,21)             116.0843         calculate D2E/DX2 analytically  !
 ! A6    A(3,2,21)             117.7699         calculate D2E/DX2 analytically  !
 ! A7    A(1,4,9)              109.5395         calculate D2E/DX2 analytically  !
 ! A8    A(1,4,12)             115.4961         calculate D2E/DX2 analytically  !
 ! A9    A(1,4,13)             122.4272         calculate D2E/DX2 analytically  !
 ! A10   A(9,4,12)              93.7888         calculate D2E/DX2 analytically  !
 ! A11   A(9,4,13)             104.2756         calculate D2E/DX2 analytically  !
 ! A12   A(12,4,13)            106.9762         calculate D2E/DX2 analytically  !
 ! A13   A(6,5,7)              110.2826         calculate D2E/DX2 analytically  !
 ! A14   A(6,5,8)              109.7499         calculate D2E/DX2 analytically  !
 ! A15   A(6,5,9)              111.2089         calculate D2E/DX2 analytically  !
 ! A16   A(7,5,8)              108.9733         calculate D2E/DX2 analytically  !
 ! A17   A(7,5,9)              107.0702         calculate D2E/DX2 analytically  !
 ! A18   A(8,5,9)              109.4946         calculate D2E/DX2 analytically  !
 ! A19   A(4,9,5)              112.562          calculate D2E/DX2 analytically  !
 ! A20   A(4,9,10)             102.8837         calculate D2E/DX2 analytically  !
 ! A21   A(4,9,11)             108.8157         calculate D2E/DX2 analytically  !
 ! A22   A(5,9,10)             111.5142         calculate D2E/DX2 analytically  !
 ! A23   A(5,9,11)             113.5971         calculate D2E/DX2 analytically  !
 ! A24   A(10,9,11)            106.7797         calculate D2E/DX2 analytically  !
 ! A25   A(4,13,14)            110.7317         calculate D2E/DX2 analytically  !
 ! A26   A(4,13,15)            108.6912         calculate D2E/DX2 analytically  !
 ! A27   A(4,13,16)            110.6966         calculate D2E/DX2 analytically  !
 ! A28   A(14,13,15)           105.8238         calculate D2E/DX2 analytically  !
 ! A29   A(14,13,16)           111.8623         calculate D2E/DX2 analytically  !
 ! A30   A(15,13,16)           108.8553         calculate D2E/DX2 analytically  !
 ! A31   A(1,17,18)            111.1989         calculate D2E/DX2 analytically  !
 ! A32   A(1,17,19)            112.4487         calculate D2E/DX2 analytically  !
 ! A33   A(1,17,20)            113.635          calculate D2E/DX2 analytically  !
 ! A34   A(18,17,19)           105.3378         calculate D2E/DX2 analytically  !
 ! A35   A(18,17,20)           107.569          calculate D2E/DX2 analytically  !
 ! A36   A(19,17,20)           106.1381         calculate D2E/DX2 analytically  !
 ! A37   A(2,21,22)            111.106          calculate D2E/DX2 analytically  !
 ! A38   A(2,21,23)            108.0894         calculate D2E/DX2 analytically  !
 ! A39   A(2,21,24)            112.0577         calculate D2E/DX2 analytically  !
 ! A40   A(22,21,23)           109.1006         calculate D2E/DX2 analytically  !
 ! A41   A(22,21,24)           107.0374         calculate D2E/DX2 analytically  !
 ! A42   A(23,21,24)           109.4118         calculate D2E/DX2 analytically  !
 ! D1    D(4,1,2,3)              1.3656         calculate D2E/DX2 analytically  !
 ! D2    D(4,1,2,21)          -178.9524         calculate D2E/DX2 analytically  !
 ! D3    D(17,1,2,3)          -176.3258         calculate D2E/DX2 analytically  !
 ! D4    D(17,1,2,21)            3.3561         calculate D2E/DX2 analytically  !
 ! D5    D(2,1,4,9)           -116.1366         calculate D2E/DX2 analytically  !
 ! D6    D(2,1,4,12)           139.5676         calculate D2E/DX2 analytically  !
 ! D7    D(2,1,4,13)             6.2378         calculate D2E/DX2 analytically  !
 ! D8    D(17,1,4,9)            61.5788         calculate D2E/DX2 analytically  !
 ! D9    D(17,1,4,12)          -42.717          calculate D2E/DX2 analytically  !
 ! D10   D(17,1,4,13)         -176.0467         calculate D2E/DX2 analytically  !
 ! D11   D(2,1,17,18)         -169.5694         calculate D2E/DX2 analytically  !
 ! D12   D(2,1,17,19)          -51.7157         calculate D2E/DX2 analytically  !
 ! D13   D(2,1,17,20)           68.8875         calculate D2E/DX2 analytically  !
 ! D14   D(4,1,17,18)           12.7018         calculate D2E/DX2 analytically  !
 ! D15   D(4,1,17,19)          130.5555         calculate D2E/DX2 analytically  !
 ! D16   D(4,1,17,20)         -108.8413         calculate D2E/DX2 analytically  !
 ! D17   D(1,2,21,22)           63.1057         calculate D2E/DX2 analytically  !
 ! D18   D(1,2,21,23)         -177.2195         calculate D2E/DX2 analytically  !
 ! D19   D(1,2,21,24)          -56.5819         calculate D2E/DX2 analytically  !
 ! D20   D(3,2,21,22)         -117.1846         calculate D2E/DX2 analytically  !
 ! D21   D(3,2,21,23)            2.4902         calculate D2E/DX2 analytically  !
 ! D22   D(3,2,21,24)          123.1278         calculate D2E/DX2 analytically  !
 ! D23   D(1,4,9,5)             63.4922         calculate D2E/DX2 analytically  !
 ! D24   D(1,4,9,10)           -56.6678         calculate D2E/DX2 analytically  !
 ! D25   D(1,4,9,11)          -169.6723         calculate D2E/DX2 analytically  !
 ! D26   D(12,4,9,5)          -177.7403         calculate D2E/DX2 analytically  !
 ! D27   D(12,4,9,10)           62.0997         calculate D2E/DX2 analytically  !
 ! D28   D(12,4,9,11)          -50.9048         calculate D2E/DX2 analytically  !
 ! D29   D(13,4,9,5)           -69.1506         calculate D2E/DX2 analytically  !
 ! D30   D(13,4,9,10)          170.6894         calculate D2E/DX2 analytically  !
 ! D31   D(13,4,9,11)           57.6849         calculate D2E/DX2 analytically  !
 ! D32   D(1,4,13,14)          -52.7128         calculate D2E/DX2 analytically  !
 ! D33   D(1,4,13,15)           63.1262         calculate D2E/DX2 analytically  !
 ! D34   D(1,4,13,16)         -177.3672         calculate D2E/DX2 analytically  !
 ! D35   D(9,4,13,14)           72.073          calculate D2E/DX2 analytically  !
 ! D36   D(9,4,13,15)         -172.088          calculate D2E/DX2 analytically  !
 ! D37   D(9,4,13,16)          -52.5814         calculate D2E/DX2 analytically  !
 ! D38   D(12,4,13,14)         170.6401         calculate D2E/DX2 analytically  !
 ! D39   D(12,4,13,15)         -73.5209         calculate D2E/DX2 analytically  !
 ! D40   D(12,4,13,16)          45.9857         calculate D2E/DX2 analytically  !
 ! D41   D(6,5,9,4)           -161.1374         calculate D2E/DX2 analytically  !
 ! D42   D(6,5,9,10)           -46.0932         calculate D2E/DX2 analytically  !
 ! D43   D(6,5,9,11)            74.6256         calculate D2E/DX2 analytically  !
 ! D44   D(7,5,9,4)            -40.5979         calculate D2E/DX2 analytically  !
 ! D45   D(7,5,9,10)            74.4463         calculate D2E/DX2 analytically  !
 ! D46   D(7,5,9,11)          -164.835          calculate D2E/DX2 analytically  !
 ! D47   D(8,5,9,4)             77.404          calculate D2E/DX2 analytically  !
 ! D48   D(8,5,9,10)          -167.5518         calculate D2E/DX2 analytically  !
 ! D49   D(8,5,9,11)           -46.8331         calculate D2E/DX2 analytically  !
 --------------------------------------------------------------------------------
 Trust Radius=1.00D-01 FncErr=1.00D-07 GrdErr=1.00D-07 EigMax=2.50D+02 EigMin=1.00D-04
 Number of steps in this run=     50 maximum allowed number of steps=    144.
 Search for a saddle point of order  1.
 GradGradGradGradGradGradGradGradGradGradGradGradGradGradGradGradGradGrad

                          Input orientation:                          
 ---------------------------------------------------------------------
 Center     Atomic      Atomic             Coordinates (Angstroms)
 Number     Number       Type             X           Y           Z
 ---------------------------------------------------------------------
      1          6           0       -0.604890   -0.425510   -0.193450
      2          6           0       -1.849590    0.056250    0.360250
      3          8           0       -1.970340    0.868400    1.280110
      4          6           0        0.633970    0.007020    0.331230
      5          6           0        0.807380    2.118370   -1.282470
      6          1           0        1.173830    2.482480   -2.251060
      7          1           0       -0.264680    1.877840   -1.346110
      8          1           0        0.954850    2.888950   -0.517300
      9          7           0        1.499440    0.893060   -0.881290
     10          1           0        1.557750    0.225580   -1.653230
     11          1           0        2.455510    1.051100   -0.554830
     12         17           0        1.969510   -1.333650    0.484160
     13          6           0        0.732990    0.869370    1.563330
     14          1           0        0.103020    1.760680    1.464680
     15          1           0        0.329420    0.310850    2.416620
     16          1           0        1.781090    1.129660    1.772470
     17          6           0       -0.613930   -1.364070   -1.382220
     18          1           0        0.387470   -1.782430   -1.566730
     19          1           0       -1.269430   -2.235530   -1.225220
     20          1           0       -0.955290   -0.887450   -2.321510
     21          6           0       -3.126150   -0.499560   -0.271460
     22          1           0       -3.199930   -1.588620   -0.124110
     23          1           0       -3.983660   -0.013420    0.209440
     24          1           0       -3.163570   -0.317560   -1.356880
 ---------------------------------------------------------------------
                    Distance matrix (angstroms):
                    1          2          3          4          5
     1  C    0.000000
     2  C    1.444976   0.000000
     3  O    2.389568   1.233009   0.000000
     4  C    1.413204   2.484217   2.902547   0.000000
     5  C    3.106734   3.743041   3.980574   2.663062   0.000000
     6  H    3.981709   4.674035   4.996020   3.617675   1.097738
     7  H    2.598036   2.956653   3.290179   2.668522   1.100553
     8  H    3.677406   4.081564   3.983722   3.021339   1.095913
     9  N    2.576811   3.668470   4.087986   1.733295   1.463310
    10  H    2.689217   3.961406   4.633047   2.199823   2.069583
    11  H    3.417166   4.512315   4.794636   2.278862   2.094005
    12  Cl   2.812723   4.066042   4.583119   1.898539   4.048206
    13  C    2.559866   2.962817   2.718126   1.507157   3.108716
    14  H    2.833718   2.817363   2.264741   2.154516   2.858478
    15  H    2.868384   3.006919   2.625150   2.129299   4.144737
    16  H    3.460679   4.040843   3.792612   2.157169   3.355342
    17  C    1.514645   2.565222   3.729849   2.524491   3.762640
    18  H    2.170693   3.478280   4.548699   2.620142   3.933620
    19  H    2.186855   2.846499   4.049980   3.327837   4.824196
    20  H    2.205631   2.980298   4.133401   3.219139   3.636147
    21  C    2.523553   1.528917   2.369511   3.841661   4.832014
    22  H    2.844620   2.182572   3.085559   4.177582   5.580511
    23  H    3.427568   2.140526   2.444872   4.619281   5.452008
    24  H    2.812839   2.194268   3.127941   4.168498   4.659156
                    6          7          8          9         10
     6  H    0.000000
     7  H    1.803839   0.000000
     8  H    1.794183   1.787882   0.000000
     9  N    2.123334   2.073154   2.100629   0.000000
    10  H    2.366092   2.479019   2.957594   1.022165   0.000000
    11  H    2.562957   2.951111   2.372990   1.022557   1.641322
    12  Cl   4.762078   4.319162   4.456771   2.653989   2.677533
    13  C    4.164857   3.236850   2.908083   2.562064   3.382448
    14  H    3.933745   2.837159   2.434513   2.864669   3.767510
    15  H    5.216919   4.119047   3.955458   3.547411   4.252028
    16  H    4.288086   3.804010   3.003468   2.679132   3.550023
    17  C    4.329771   3.260868   4.614904   3.132395   2.704927
    18  H    4.390459   3.724453   4.821308   2.977340   2.325756
    19  H    5.411237   4.236030   5.631063   4.192017   3.772692
    20  H    3.986796   3.012503   4.600544   3.357104   2.828569
    21  C    5.594748   3.872327   5.310085   4.869021   4.937007
    22  H    6.342519   4.703756   6.120901   5.368066   5.316488
    23  H    6.235646   4.452798   5.774148   5.663549   5.850973
    24  H    5.239544   3.636408   5.286585   4.841017   4.761690
                   11         12         13         14         15
    11  H    0.000000
    12  Cl   2.646267   0.000000
    13  C    2.736184   2.747160   0.000000
    14  H    3.180587   3.744340   1.095914   0.000000
    15  H    3.727968   3.021370   1.096776   1.749129   0.000000
    16  H    2.424322   2.786241   1.100002   1.819022   1.786820
    17  C    3.992378   3.187234   3.934299   4.287531   4.257517
    18  H    3.650976   2.628765   4.116880   4.671615   4.500252
    19  H    5.012638   3.771750   4.628834   5.008880   4.722644
    20  H    4.302638   4.077418   4.585705   4.740026   5.053343
    21  C    5.799980   5.218469   4.487024   4.307018   4.452359
    22  H    6.256009   5.211345   4.935284   4.965032   4.745483
    23  H    6.571166   6.103991   4.985892   4.628608   4.855868
    24  H    5.838713   5.547105   5.011947   4.790709   5.180268
                   16         17         18         19         20
    16  H    0.000000
    17  C    4.680479   0.000000
    18  H    4.644642   1.100850   0.000000
    19  H    5.442088   1.101713   1.751356   0.000000
    20  H    5.321389   1.107230   1.781484   1.765745   0.000000
    21  C    5.559947   2.879655   3.958409   2.714896   3.010946
    22  H    5.983028   2.884555   3.871454   2.314685   3.218480
    23  H    6.081286   3.963927   5.038944   3.789864   4.042358
    24  H    6.028013   2.756173   3.847046   2.698835   2.476244
                   21         22         23         24
    21  C    0.000000
    22  H    1.101457   0.000000
    23  H    1.096777   1.790738   0.000000
    24  H    1.101209   1.771055   1.793992   0.000000
 Stoichiometry    C7H14ClNO
 Framework group  C1[X(C7H14ClNO)]
 Deg. of freedom    66
 Full point group                 C1      NOp   1
 Largest Abelian subgroup         C1      NOp   1
 Largest concise Abelian subgroup C1      NOp   1
                         Standard orientation:                         
 ---------------------------------------------------------------------
 Center     Atomic      Atomic             Coordinates (Angstroms)
 Number     Number       Type             X           Y           Z
 ---------------------------------------------------------------------
      1          6           0        0.604890   -0.425510    0.193451
      2          6           0        1.849591    0.056247   -0.360249
      3          8           0        1.970343    0.868397   -1.280109
      4          6           0       -0.633969    0.007022   -0.331229
      5          6           0       -0.807375    2.118372    1.282471
      6          1           0       -1.173824    2.482483    2.251061
      7          1           0        0.264685    1.877840    1.346111
      8          1           0       -0.954844    2.888953    0.517301
      9          7           0       -1.499437    0.893064    0.881291
     10          1           0       -1.557749    0.225584    1.653231
     11          1           0       -2.455507    1.051106    0.554831
     12         17           0       -1.969511   -1.333645   -0.484159
     13          6           0       -0.732987    0.869372   -1.563329
     14          1           0       -0.103016    1.760681   -1.464679
     15          1           0       -0.329418    0.310852   -2.416619
     16          1           0       -1.781087    1.129664   -1.772469
     17          6           0        0.613928   -1.364070    1.382221
     18          1           0       -0.387472   -1.782428    1.566731
     19          1           0        1.269427   -2.235531    1.225221
     20          1           0        0.955289   -0.887451    2.321511
     21          6           0        3.126150   -0.499565    0.271461
     22          1           0        3.199928   -1.588625    0.124111
     23          1           0        3.983661   -0.013427   -0.209439
     24          1           0        3.163570   -0.317565    1.356881
 ---------------------------------------------------------------------
 Rotational constants (GHZ):           1.3911628           0.8096630           0.7431031
 Standard basis: STO-3G (5D, 7F)
 There are    68 symmetry adapted cartesian basis functions of A   symmetry.
 There are    68 symmetry adapted basis functions of A   symmetry.
    68 basis functions,   204 primitive gaussians,    68 cartesian basis functions
    44 alpha electrons       44 beta electrons
       nuclear repulsion energy       671.1720626302 Hartrees.
 NAtoms=   24 NActive=   24 NUniq=   24 SFac= 1.00D+00 NAtFMM=   60 NAOKFM=F Big=F
 Integral buffers will be    131072 words long.
 Raffenetti 1 integral format.
 Two-electron integral symmetry is turned on.
 External calculation of energy, first and second derivatives.
 Running external command "~/scripts/MiMe -H 'hf 6-31g(d)' -EF 'wb97xd def2svp' -c 12 -m 48GB R"
         input file       "/local/jobs/1158196/Gau-206166.EIn"
         output file      "/local/jobs/1158196/Gau-206166.EOu"
         message file     "/local/jobs/1158196/Gau-206166.EMs"
         fchk file        "/local/jobs/1158196/Gau-206166.EFC"
         mat. el file     "/local/jobs/1158196/Gau-206166.EUF"
 Read checkpoint file Gau-206166_H.chk type G16
 Write formatted file Gau-206166_H.fchk

deriv: 2

spelevel: wb97xd def2svp
gradlevel: wb97xd def2svp
hesslevel: hf 6-31g(d)

runspe: False
runforce: True
runfreq: True

Running Gaussian ...

Parsing files ...
SPE file: Gau-206166_F.out
FORCE file: Gau-206166_F.out
HESS file: Gau-206166_H.out

 ExternalExternalExternalExternalExternalExternalExternalExternalExternalExternal
 Output from external command:
 "~/scripts/MiMe -H 'hf 6-31g(d)' -EF 'wb97xd def2svp' -c 12 -m 48GB R /local/jobs/1158196/Gau-206166.EIn /local/jobs/1158196/Gau-206166.EOu /local/jobs/1158196/Gau-206166.EMs /local/jobs/1158196/Gau-206166.EFC /local/jobs/1158196/Gau-206166.EUF"
  
 --------------------------------------------------
 Force calculation at wb97xd def2svp
 Hessian calculation at hf 6-31g(d)
 ExternalExternalExternalExternalExternalExternalExternalExternalExternalExternal

 Recovered energy= -864.728926403     dipole=     -4.529400000000      2.762800000000      4.537100000000
 Energy=    -864.728926     NIter=   0.
 Dipole moment=      -4.529400       2.762800       4.537100
 ***** Axes restored to original set *****
 -------------------------------------------------------------------
 Center     Atomic                   Forces (Hartrees/Bohr)
 Number     Number              X              Y              Z
 -------------------------------------------------------------------
      1        6           0.000002703    0.000008962   -0.000002738
      2        6           0.000000601   -0.000004480   -0.000008643
      3        8           0.000003559   -0.000006847    0.000015505
      4        6           0.000005459    0.000006643   -0.000002923
      5        6           0.000001990    0.000004367    0.000007169
      6        1          -0.000006381    0.000004292   -0.000003783
      7        1          -0.000001488   -0.000004444    0.000004010
      8        1          -0.000006935    0.000002100   -0.000001902
      9        7          -0.000005936   -0.000004597   -0.000000292
     10        1           0.000003793    0.000000449    0.000003641
     11        1          -0.000003794    0.000011844   -0.000003438
     12       17           0.000002682   -0.000000323   -0.000003110
     13        6           0.000001684   -0.000003498   -0.000005990
     14        1          -0.000008709   -0.000004654    0.000003650
     15        1           0.000008130   -0.000004088    0.000005215
     16        1          -0.000000495    0.000005301   -0.000003950
     17        6          -0.000005841   -0.000017287    0.000007204
     18        1          -0.000002744   -0.000024413    0.000026228
     19        1          -0.000029266    0.000016693   -0.000031020
     20        1           0.000039167    0.000020308   -0.000005716
     21        6           0.000006276   -0.000005851   -0.000006647
     22        1          -0.000008912    0.000002614    0.000012283
     23        1           0.000000351    0.000007032   -0.000003461
     24        1           0.000004106   -0.000010124   -0.000001292
 -------------------------------------------------------------------
 Cartesian Forces:  Max     0.000039167 RMS     0.000010334
 FormGI is forming the generalized inverse of G from B-inverse, IUseBI=4.

 GradGradGradGradGradGradGradGradGradGradGradGradGradGradGradGradGradGrad
 Berny optimization.
 Internal  Forces:  Max     0.000052364 RMS     0.000014319
 Search for a saddle point.
 Step number   1 out of a maximum of   50
 All quantities printed in internal units (Hartrees-Bohrs-Radians)
 Swapping is turned off.
 Second derivative matrix not updated -- analytic derivatives used.
 ITU=  0
     Eigenvalues ---   -0.03172   0.00588   0.00696   0.00878   0.01117
     Eigenvalues ---    0.01470   0.01564   0.02084   0.03625   0.03982
     Eigenvalues ---    0.04625   0.05179   0.05665   0.05777   0.05914
     Eigenvalues ---    0.06007   0.06421   0.07290   0.07365   0.07703
     Eigenvalues ---    0.07825   0.08187   0.08919   0.12101   0.12505
     Eigenvalues ---    0.14997   0.15409   0.16068   0.16655   0.16980
     Eigenvalues ---    0.17027   0.17735   0.18877   0.19095   0.19617
     Eigenvalues ---    0.20164   0.20656   0.22466   0.22536   0.23489
     Eigenvalues ---    0.25581   0.26777   0.27228   0.29592   0.31676
     Eigenvalues ---    0.32382   0.33523   0.33888   0.34259   0.34612
     Eigenvalues ---    0.34769   0.34955   0.35070   0.35411   0.35584
     Eigenvalues ---    0.35724   0.36048   0.36168   0.37609   0.39729
     Eigenvalues ---    0.45059   0.45245   0.49100   0.50536   0.79967
     Eigenvalues ---    0.82714
 Eigenvectors required to have negative eigenvalues:
                          R6        R7        D6        D9        D5
   1                    0.81958  -0.26470   0.19570   0.18320   0.14004
                          A11       D8        R2        D40       D38
   1                   -0.12778   0.12754  -0.10932  -0.10594  -0.09849
 RFO step:  Lambda0=4.618993594D-09 Lambda=-1.13290214D-06.
 Linear search not attempted -- option 19 set.
 Iteration  1 RMS(Cart)=  0.00143241 RMS(Int)=  0.00000236
 Iteration  2 RMS(Cart)=  0.00000248 RMS(Int)=  0.00000002
 Iteration  3 RMS(Cart)=  0.00000000 RMS(Int)=  0.00000002
 Variable       Old X    -DE/DX   Delta X   Delta X   Delta X     New X
                                 (Linear)    (Quad)   (Total)
    R1        2.73061  -0.00000   0.00000   0.00002   0.00002   2.73063
    R2        2.67057  -0.00001   0.00000  -0.00003  -0.00003   2.67054
    R3        2.86226   0.00000   0.00000  -0.00002  -0.00002   2.86224
    R4        2.33005   0.00001   0.00000  -0.00000  -0.00000   2.33005
    R5        2.88923  -0.00000   0.00000   0.00001   0.00001   2.88925
    R6        3.27545  -0.00000   0.00000   0.00040   0.00040   3.27585
    R7        3.58772   0.00000   0.00000  -0.00007  -0.00007   3.58764
    R8        2.84811  -0.00000   0.00000  -0.00003  -0.00003   2.84808
    R9        2.07442   0.00000   0.00000   0.00002   0.00002   2.07444
   R10        2.07974   0.00000   0.00000   0.00000   0.00000   2.07975
   R11        2.07098  -0.00000   0.00000  -0.00000  -0.00000   2.07098
   R12        2.76526   0.00001   0.00000  -0.00003  -0.00003   2.76522
   R13        1.93161  -0.00000   0.00000   0.00000   0.00000   1.93161
   R14        1.93235  -0.00000   0.00000  -0.00002  -0.00002   1.93234
   R15        2.07098   0.00000   0.00000   0.00001   0.00001   2.07099
   R16        2.07261   0.00000   0.00000   0.00001   0.00001   2.07262
   R17        2.07870   0.00000   0.00000  -0.00000  -0.00000   2.07870
   R18        2.08031   0.00000   0.00000  -0.00000  -0.00000   2.08030
   R19        2.08194   0.00000   0.00000  -0.00009  -0.00009   2.08185
   R20        2.09236   0.00000   0.00000   0.00011   0.00011   2.09247
   R21        2.08145  -0.00000   0.00000   0.00001   0.00001   2.08146
   R22        2.07261   0.00000   0.00000   0.00001   0.00001   2.07262
   R23        2.08098  -0.00000   0.00000  -0.00001  -0.00001   2.08097
    A1        2.10693  -0.00002   0.00000  -0.00003  -0.00003   2.10691
    A2        2.09694   0.00002   0.00000   0.00012   0.00012   2.09706
    A3        2.07862  -0.00000   0.00000  -0.00012  -0.00012   2.07850
    A4        2.20165  -0.00001   0.00000  -0.00004  -0.00004   2.20161
    A5        2.02605   0.00001   0.00000   0.00009   0.00009   2.02614
    A6        2.05547  -0.00000   0.00000  -0.00005  -0.00005   2.05542
    A7        1.91182  -0.00004   0.00000  -0.00014  -0.00014   1.91169
    A8        2.01579   0.00001   0.00000   0.00011   0.00011   2.01589
    A9        2.13676   0.00001   0.00000   0.00006   0.00006   2.13682
   A10        1.63692   0.00002   0.00000  -0.00005  -0.00005   1.63687
   A11        1.81995   0.00002   0.00000  -0.00003  -0.00003   1.81992
   A12        1.86709  -0.00001   0.00000  -0.00000  -0.00000   1.86708
   A13        1.92479  -0.00000   0.00000  -0.00002  -0.00002   1.92477
   A14        1.91550  -0.00000   0.00000  -0.00000  -0.00000   1.91549
   A15        1.94096   0.00001   0.00000   0.00003   0.00003   1.94099
   A16        1.90194  -0.00000   0.00000  -0.00004  -0.00004   1.90190
   A17        1.86873  -0.00001   0.00000   0.00003   0.00003   1.86876
   A18        1.91104   0.00001   0.00000   0.00000   0.00000   1.91104
   A19        1.96458  -0.00003   0.00000  -0.00002  -0.00002   1.96456
   A20        1.79566   0.00001   0.00000  -0.00004  -0.00004   1.79562
   A21        1.89919   0.00002   0.00000  -0.00000  -0.00000   1.89919
   A22        1.94629   0.00001   0.00000   0.00004   0.00004   1.94633
   A23        1.98264   0.00001   0.00000   0.00001   0.00001   1.98265
   A24        1.86366  -0.00000   0.00000   0.00001   0.00001   1.86367
   A25        1.93263  -0.00000   0.00000  -0.00001  -0.00001   1.93262
   A26        1.89702   0.00000   0.00000   0.00000   0.00000   1.89702
   A27        1.93202  -0.00000   0.00000   0.00001   0.00001   1.93203
   A28        1.84697  -0.00000   0.00000  -0.00000  -0.00000   1.84697
   A29        1.95237   0.00000   0.00000   0.00001   0.00001   1.95238
   A30        1.89988  -0.00000   0.00000  -0.00002  -0.00002   1.89987
   A31        1.94079  -0.00001   0.00000  -0.00013  -0.00013   1.94066
   A32        1.96260   0.00003   0.00000  -0.00000  -0.00000   1.96260
   A33        1.98331  -0.00002   0.00000   0.00006   0.00006   1.98337
   A34        1.83849  -0.00000   0.00000   0.00013   0.00013   1.83862
   A35        1.87743   0.00001   0.00000   0.00003   0.00003   1.87746
   A36        1.85246  -0.00000   0.00000  -0.00008  -0.00008   1.85238
   A37        1.93917   0.00000   0.00000  -0.00013  -0.00013   1.93904
   A38        1.88652  -0.00001   0.00000  -0.00005  -0.00005   1.88647
   A39        1.95578   0.00000   0.00000   0.00016   0.00016   1.95594
   A40        1.90416  -0.00000   0.00000  -0.00011  -0.00011   1.90406
   A41        1.86816   0.00000   0.00000   0.00005   0.00005   1.86820
   A42        1.90960   0.00000   0.00000   0.00006   0.00006   1.90966
    D1        0.02384  -0.00000   0.00000  -0.00092  -0.00092   0.02291
    D2       -3.12331  -0.00000   0.00000  -0.00086  -0.00086  -3.12417
    D3       -3.07747   0.00001   0.00000   0.00001   0.00001  -3.07746
    D4        0.05858   0.00001   0.00000   0.00007   0.00007   0.05865
    D5       -2.02697   0.00003   0.00000   0.00028   0.00028  -2.02669
    D6        2.43591   0.00003   0.00000   0.00037   0.00037   2.43628
    D7        0.10887   0.00002   0.00000   0.00016   0.00015   0.10903
    D8        1.07475   0.00001   0.00000  -0.00064  -0.00064   1.07411
    D9       -0.74555   0.00001   0.00000  -0.00055  -0.00055  -0.74610
   D10       -3.07260   0.00000   0.00000  -0.00076  -0.00076  -3.07336
   D11       -2.95954   0.00002   0.00000   0.00351   0.00351  -2.95603
   D12       -0.90261   0.00003   0.00000   0.00359   0.00359  -0.89902
   D13        1.20231   0.00004   0.00000   0.00353   0.00353   1.20584
   D14        0.22169   0.00004   0.00000   0.00443   0.00443   0.22612
   D15        2.27862   0.00005   0.00000   0.00450   0.00450   2.28313
   D16       -1.89964   0.00005   0.00000   0.00445   0.00445  -1.89519
   D17        1.10140   0.00001   0.00000   0.00159   0.00159   1.10299
   D18       -3.09306   0.00001   0.00000   0.00135   0.00135  -3.09171
   D19       -0.98754   0.00001   0.00000   0.00150   0.00150  -0.98604
   D20       -2.04526   0.00002   0.00000   0.00165   0.00165  -2.04361
   D21        0.04346   0.00001   0.00000   0.00141   0.00141   0.04487
   D22        2.14899   0.00001   0.00000   0.00156   0.00156   2.15055
   D23        1.10815  -0.00001   0.00000  -0.00029  -0.00029   1.10786
   D24       -0.98904  -0.00001   0.00000  -0.00030  -0.00030  -0.98934
   D25       -2.96134  -0.00001   0.00000  -0.00030  -0.00030  -2.96164
   D26       -3.10215  -0.00000   0.00000  -0.00024  -0.00024  -3.10239
   D27        1.08384   0.00000   0.00000  -0.00025  -0.00025   1.08360
   D28       -0.88846  -0.00000   0.00000  -0.00024  -0.00024  -0.88870
   D29       -1.20691  -0.00001   0.00000  -0.00026  -0.00026  -1.20717
   D30        2.97909  -0.00000   0.00000  -0.00027  -0.00027   2.97882
   D31        1.00679  -0.00001   0.00000  -0.00026  -0.00026   1.00653
   D32       -0.92001   0.00002   0.00000   0.00034   0.00034  -0.91967
   D33        1.10176   0.00003   0.00000   0.00033   0.00033   1.10209
   D34       -3.09564   0.00002   0.00000   0.00032   0.00032  -3.09532
   D35        1.25791  -0.00001   0.00000   0.00017   0.00017   1.25808
   D36       -3.00350  -0.00001   0.00000   0.00016   0.00016  -3.00334
   D37       -0.91772  -0.00001   0.00000   0.00015   0.00015  -0.91757
   D38        2.97823   0.00001   0.00000   0.00010   0.00010   2.97833
   D39       -1.28318   0.00001   0.00000   0.00009   0.00009  -1.28309
   D40        0.80260   0.00001   0.00000   0.00008   0.00008   0.80268
   D41       -2.81238   0.00001   0.00000  -0.00000  -0.00000  -2.81238
   D42       -0.80448   0.00000   0.00000  -0.00004  -0.00004  -0.80452
   D43        1.30246   0.00000   0.00000   0.00001   0.00001   1.30248
   D44       -0.70857   0.00000   0.00000   0.00001   0.00001  -0.70855
   D45        1.29933  -0.00000   0.00000  -0.00002  -0.00002   1.29931
   D46       -2.87691   0.00000   0.00000   0.00003   0.00003  -2.87689
   D47        1.35095   0.00000   0.00000  -0.00002  -0.00002   1.35094
   D48       -2.92433  -0.00001   0.00000  -0.00006  -0.00006  -2.92439
   D49       -0.81739  -0.00000   0.00000  -0.00001  -0.00001  -0.81740
         Item               Value     Threshold  Converged?
 Maximum Force            0.000052     0.000450     YES
 RMS     Force            0.000014     0.000300     YES
 Maximum Displacement     0.007889     0.001800     NO 
 RMS     Displacement     0.001432     0.001200     NO 
 Predicted change in Energy=-5.641416D-07
 GradGradGradGradGradGradGradGradGradGradGradGradGradGradGradGradGradGrad

                          Input orientation:                          
 ---------------------------------------------------------------------
 Center     Atomic      Atomic             Coordinates (Angstroms)
 Number     Number       Type             X           Y           Z
 ---------------------------------------------------------------------
      1          6           0       -0.604685   -0.425960   -0.193007
      2          6           0       -1.849393    0.055823    0.360684
      3          8           0       -1.970093    0.867483    1.280981
      4          6           0        0.634143    0.006812    0.331499
      5          6           0        0.806516    2.118023   -1.282740
      6          1           0        1.172662    2.482164   -2.251443
      7          1           0       -0.265447    1.877013   -1.346208
      8          1           0        0.953697    2.888803   -0.517716
      9          7           0        1.499189    0.893124   -0.881427
     10          1           0        1.557712    0.225493   -1.653221
     11          1           0        2.455213    1.051658   -0.555096
     12         17           0        1.970129   -1.333389    0.484150
     13          6           0        0.733245    0.869280    1.563488
     14          1           0        0.102877    1.760331    1.464982
     15          1           0        0.330189    0.310662    2.416965
     16          1           0        1.781309    1.129995    1.772265
     17          6           0       -0.613524   -1.363828   -1.382309
     18          1           0        0.387144   -1.784973   -1.564434
     19          1           0       -1.272017   -2.233356   -1.227469
     20          1           0       -0.951115   -0.885717   -2.322273
     21          6           0       -3.126035   -0.499278   -0.271501
     22          1           0       -3.200847   -1.588150   -0.123252
     23          1           0       -3.983403   -0.012074    0.208585
     24          1           0       -3.162695   -0.318129   -1.357083
 ---------------------------------------------------------------------
                    Distance matrix (angstroms):
                    1          2          3          4          5
     1  C    0.000000
     2  C    1.444987   0.000000
     3  O    2.389556   1.233008   0.000000
     4  C    1.413186   2.484192   2.902468   0.000000
     5  C    3.106583   3.742642   3.980713   2.663211   0.000000
     6  H    3.981621   4.673666   4.996211   3.617866   1.097746
     7  H    2.597814   2.956197   3.290454   2.668635   1.100554
     8  H    3.677179   4.081014   3.983666   3.021449   1.095913
     9  N    2.576857   3.668367   4.088103   1.733506   1.463293
    10  H    2.689345   3.961435   4.633260   2.199980   2.069594
    11  H    3.417227   4.512203   4.794625   2.279045   2.093992
    12  Cl   2.812764   4.066191   4.583027   1.898499   4.048227
    13  C    2.559879   2.962849   2.718060   1.507140   3.108978
    14  H    2.833627   2.817123   2.264561   2.154497   2.858851
    15  H    2.868546   3.007293   2.625225   2.129292   4.145028
    16  H    3.460674   4.040843   3.792531   2.157159   3.355514
    17  C    1.514633   2.565308   3.729898   2.524374   3.761611
    18  H    2.170588   3.478032   4.548459   2.620317   3.935556
    19  H    2.186807   2.845336   4.049054   3.328991   4.822640
    20  H    2.205711   2.981888   4.134666   3.217477   3.632128
    21  C    2.523637   1.528924   2.369481   3.841703   4.830924
    22  H    2.845278   2.182491   3.084925   4.178260   5.580241
    23  H    3.427581   2.140500   2.444804   4.619221   5.450201
    24  H    2.812492   2.194384   3.128475   4.168078   4.657790
                    6          7          8          9         10
     6  H    0.000000
     7  H    1.803834   0.000000
     8  H    1.794188   1.787856   0.000000
     9  N    2.123349   2.073162   2.100615   0.000000
    10  H    2.366156   2.479048   2.957605   1.022165   0.000000
    11  H    2.562981   2.951111   2.372983   1.022549   1.641322
    12  Cl   4.762128   4.319108   4.456880   2.654043   2.677417
    13  C    4.165114   3.237165   2.908347   2.562196   3.382518
    14  H    3.934119   2.837616   2.434838   2.864851   3.767686
    15  H    5.217203   4.119430   3.955746   3.547565   4.252115
    16  H    4.288243   3.804223   3.003724   2.679138   3.549940
    17  C    4.328685   3.259680   4.613954   3.131816   2.704367
    18  H    4.392889   3.726075   4.822943   2.979151   2.328107
    19  H    5.409354   4.233487   5.629749   4.192160   3.772873
    20  H    3.982219   3.009239   4.596927   3.353252   2.824293
    21  C    5.593564   3.871010   5.308854   4.868624   4.936793
    22  H    6.342257   4.703142   6.120371   5.368602   5.317329
    23  H    6.233616   4.450756   5.772136   5.662714   5.850360
    24  H    5.238019   3.634943   5.285228   4.840098   4.760826
                   11         12         13         14         15
    11  H    0.000000
    12  Cl   2.646468   0.000000
    13  C    2.736208   2.747109   0.000000
    14  H    3.180631   3.744298   1.095919   0.000000
    15  H    3.727995   3.021272   1.096782   1.749137   0.000000
    16  H    2.424230   2.786244   1.100000   1.819033   1.786812
    17  C    3.991993   3.187454   3.934245   4.287268   4.257816
    18  H    3.652690   2.628016   4.116885   4.671974   4.499608
    19  H    5.013547   3.775062   4.629997   5.008908   4.724510
    20  H    4.298768   4.075548   4.584345   4.738751   5.053062
    21  C    5.799669   5.218970   4.487113   4.306632   4.453014
    22  H    6.256684   5.212757   4.935700   4.964816   4.746199
    23  H    6.570427   6.104618   4.985912   4.627919   4.856765
    24  H    5.837841   5.546781   5.011788   4.790407   5.180642
                   16         17         18         19         20
    16  H    0.000000
    17  C    4.680355   0.000000
    18  H    4.644814   1.100850   0.000000
    19  H    5.443651   1.101666   1.751402   0.000000
    20  H    5.319255   1.107289   1.781550   1.765702   0.000000
    21  C    5.559995   2.879939   3.958171   2.712616   3.014179
    22  H    5.983576   2.886136   3.871618   2.314297   3.223414
    23  H    6.081227   3.964122   5.038696   3.787871   4.045153
    24  H    6.027691   2.755430   3.846555   2.694357   2.478877
                   21         22         23         24
    21  C    0.000000
    22  H    1.101461   0.000000
    23  H    1.096782   1.790678   0.000000
    24  H    1.101202   1.771086   1.794031   0.000000
 Stoichiometry    C7H14ClNO
 Framework group  C1[X(C7H14ClNO)]
 Deg. of freedom    66
 Full point group                 C1      NOp   1
 Largest Abelian subgroup         C1      NOp   1
 Largest concise Abelian subgroup C1      NOp   1
                         Standard orientation:                         
 ---------------------------------------------------------------------
 Center     Atomic      Atomic             Coordinates (Angstroms)
 Number     Number       Type             X           Y           Z
 ---------------------------------------------------------------------
      1          6           0        0.604766   -0.425910    0.193253
      2          6           0        1.849548    0.055525   -0.360574
      3          8           0        1.970374    0.866886   -1.281118
      4          6           0       -0.633996    0.006881   -0.331396
      5          6           0       -0.806079    2.118611    1.282195
      6          1           0       -1.172181    2.483101    2.250782
      7          1           0        0.265849    1.877465    1.345746
      8          1           0       -0.953141    2.889178    0.516933
      9          7           0       -1.498925    0.893688    0.881251
     10          1           0       -1.557550    0.226302    1.653248
     11          1           0       -2.454922    1.052261    0.554862
     12         17           0       -1.970173   -1.333175   -0.483650
     13          6           0       -0.732962    0.868986   -1.563650
     14          1           0       -0.102466    1.759976   -1.465411
     15          1           0       -0.329978    0.310049   -2.416953
     16          1           0       -1.780987    1.129788   -1.772516
     17          6           0        0.613459   -1.363415    1.382842
     18          1           0       -0.387272   -1.784359    1.565087
     19          1           0        1.271828   -2.233085    1.228274
     20          1           0        0.951111   -0.885064    2.322662
     21          6           0        3.126105   -0.499567    0.271792
     22          1           0        3.200761   -1.588494    0.123877
     23          1           0        3.983547   -0.012633   -0.208436
     24          1           0        3.162781   -0.318091    1.357319
 ---------------------------------------------------------------------
 Rotational constants (GHZ):           1.3912590           0.8095611           0.7431799
 Standard basis: STO-3G (5D, 7F)
 There are    68 symmetry adapted cartesian basis functions of A   symmetry.
 There are    68 symmetry adapted basis functions of A   symmetry.
    68 basis functions,   204 primitive gaussians,    68 cartesian basis functions
    44 alpha electrons       44 beta electrons
       nuclear repulsion energy       671.1735377251 Hartrees.
 NAtoms=   24 NActive=   24 NUniq=   24 SFac= 1.00D+00 NAtFMM=   60 NAOKFM=F Big=F
 Integral buffers will be    131072 words long.
 Raffenetti 1 integral format.
 Two-electron integral symmetry is turned on.
 External calculation of energy, first and second derivatives.
 Running external command "~/scripts/MiMe -H 'hf 6-31g(d)' -EF 'wb97xd def2svp' -c 12 -m 48GB R"
         input file       "/local/jobs/1158196/Gau-206166.EIn"
         output file      "/local/jobs/1158196/Gau-206166.EOu"
         message file     "/local/jobs/1158196/Gau-206166.EMs"
         fchk file        "/local/jobs/1158196/Gau-206166.EFC"
         mat. el file     "/local/jobs/1158196/Gau-206166.EUF"
 Read checkpoint file Gau-206166_H.chk type G16
 Write formatted file Gau-206166_H.fchk

deriv: 2

spelevel: wb97xd def2svp
gradlevel: wb97xd def2svp
hesslevel: hf 6-31g(d)

runspe: False
runforce: True
runfreq: True

Running Gaussian ...

Parsing files ...
SPE file: Gau-206166_F.out
FORCE file: Gau-206166_F.out
HESS file: Gau-206166_H.out

 ExternalExternalExternalExternalExternalExternalExternalExternalExternalExternal
 Output from external command:
 "~/scripts/MiMe -H 'hf 6-31g(d)' -EF 'wb97xd def2svp' -c 12 -m 48GB R /local/jobs/1158196/Gau-206166.EIn /local/jobs/1158196/Gau-206166.EOu /local/jobs/1158196/Gau-206166.EMs /local/jobs/1158196/Gau-206166.EFC /local/jobs/1158196/Gau-206166.EUF"
  
 --------------------------------------------------
 Force calculation at wb97xd def2svp
 Hessian calculation at hf 6-31g(d)
 ExternalExternalExternalExternalExternalExternalExternalExternalExternalExternal

 Recovered energy= -864.728927526     dipole=     -4.526200000000      2.765900000000      4.537100000000
 Energy=    -864.728928     NIter=   0.
 Dipole moment=      -4.526200       2.765900       4.537100
 ***** Axes restored to original set *****
 -------------------------------------------------------------------
 Center     Atomic                   Forces (Hartrees/Bohr)
 Number     Number              X              Y              Z
 -------------------------------------------------------------------
      1        6           0.000000543    0.000005489   -0.000004399
      2        6           0.000001801    0.000000402   -0.000004350
      3        8           0.000002809   -0.000010018    0.000010709
      4        6           0.000005715    0.000005319   -0.000003467
      5        6           0.000001518    0.000005598    0.000002616
      6        1          -0.000006779    0.000002787   -0.000000210
      7        1          -0.000000697   -0.000004583    0.000003943
      8        1          -0.000006165    0.000003096   -0.000000762
      9        7          -0.000007800   -0.000005287   -0.000003079
     10        1           0.000003611    0.000001481    0.000004168
     11        1          -0.000001544    0.000011286   -0.000002109
     12       17           0.000003403   -0.000000990   -0.000002450
     13        6          -0.000001022   -0.000003561   -0.000000249
     14        1          -0.000007468   -0.000005281    0.000003413
     15        1           0.000008303   -0.000002343    0.000001862
     16        1           0.000000780    0.000005227   -0.000004094
     17        6          -0.000001943   -0.000010460    0.000003322
     18        1          -0.000004286   -0.000021852    0.000024232
     19        1          -0.000028736    0.000013318   -0.000027710
     20        1           0.000037374    0.000016793   -0.000002829
     21        6           0.000002725   -0.000002216   -0.000003851
     22        1          -0.000008120   -0.000000456    0.000011270
     23        1           0.000002303    0.000004937   -0.000004531
     24        1           0.000003678   -0.000008685   -0.000001446
 -------------------------------------------------------------------
 Cartesian Forces:  Max     0.000037374 RMS     0.000009196
 FormGI is forming the generalized inverse of G from B-inverse, IUseBI=4.

 GradGradGradGradGradGradGradGradGradGradGradGradGradGradGradGradGradGrad
 Berny optimization.
 Internal  Forces:  Max     0.000048163 RMS     0.000013163
 Search for a saddle point.
 Step number   2 out of a maximum of   50
 All quantities printed in internal units (Hartrees-Bohrs-Radians)
 Swapping is turned off.
 Second derivative matrix not updated -- analytic derivatives used.
 ITU=  0  0
     Eigenvalues ---   -0.03179   0.00589   0.00696   0.00879   0.01117
     Eigenvalues ---    0.01470   0.01563   0.02084   0.03626   0.03983
     Eigenvalues ---    0.04625   0.05178   0.05665   0.05777   0.05913
     Eigenvalues ---    0.06007   0.06420   0.07289   0.07366   0.07703
     Eigenvalues ---    0.07825   0.08187   0.08918   0.12103   0.12504
     Eigenvalues ---    0.14998   0.15409   0.16068   0.16655   0.16979
     Eigenvalues ---    0.17026   0.17735   0.18877   0.19096   0.19617
     Eigenvalues ---    0.20164   0.20655   0.22465   0.22535   0.23489
     Eigenvalues ---    0.25574   0.26774   0.27227   0.29593   0.31665
     Eigenvalues ---    0.32382   0.33532   0.33889   0.34259   0.34613
     Eigenvalues ---    0.34769   0.34954   0.35072   0.35410   0.35585
     Eigenvalues ---    0.35723   0.36047   0.36167   0.37609   0.39731
     Eigenvalues ---    0.45062   0.45244   0.49100   0.50541   0.79971
     Eigenvalues ---    0.82723
 Eigenvectors required to have negative eigenvalues:
                          R6        R7        D6        D9        D5
   1                    0.81973  -0.26449   0.19564   0.18324   0.13996
                          A11       D8        R2        D40       D38
   1                   -0.12773   0.12755  -0.10937  -0.10590  -0.09848
 RFO step:  Lambda0=3.906238326D-09 Lambda=-9.59147572D-07.
 Linear search not attempted -- option 19 set.
 Iteration  1 RMS(Cart)=  0.00131772 RMS(Int)=  0.00000200
 Iteration  2 RMS(Cart)=  0.00000211 RMS(Int)=  0.00000002
 Iteration  3 RMS(Cart)=  0.00000000 RMS(Int)=  0.00000002
 Variable       Old X    -DE/DX   Delta X   Delta X   Delta X     New X
                                 (Linear)    (Quad)   (Total)
    R1        2.73063  -0.00000   0.00000   0.00002   0.00002   2.73065
    R2        2.67054  -0.00000   0.00000  -0.00003  -0.00003   2.67051
    R3        2.86224   0.00000   0.00000  -0.00003  -0.00003   2.86221
    R4        2.33005   0.00000   0.00000  -0.00001  -0.00001   2.33004
    R5        2.88925  -0.00000   0.00000   0.00002   0.00002   2.88926
    R6        3.27585  -0.00000   0.00000   0.00037   0.00037   3.27622
    R7        3.58764   0.00000   0.00000  -0.00006  -0.00006   3.58758
    R8        2.84808  -0.00000   0.00000  -0.00002  -0.00002   2.84806
    R9        2.07444  -0.00000   0.00000   0.00000   0.00000   2.07444
   R10        2.07975   0.00000   0.00000  -0.00000  -0.00000   2.07975
   R11        2.07098  -0.00000   0.00000   0.00000   0.00000   2.07098
   R12        2.76522   0.00001   0.00000  -0.00003  -0.00003   2.76520
   R13        1.93161  -0.00000   0.00000  -0.00000  -0.00000   1.93161
   R14        1.93234  -0.00000   0.00000  -0.00001  -0.00001   1.93233
   R15        2.07099   0.00000   0.00000   0.00001   0.00001   2.07099
   R16        2.07262  -0.00000   0.00000   0.00000   0.00000   2.07262
   R17        2.07870   0.00000   0.00000  -0.00000  -0.00000   2.07870
   R18        2.08030  -0.00000   0.00000  -0.00001  -0.00001   2.08030
   R19        2.08185   0.00000   0.00000  -0.00007  -0.00007   2.08177
   R20        2.09247  -0.00000   0.00000   0.00009   0.00009   2.09257
   R21        2.08146   0.00000   0.00000   0.00001   0.00001   2.08147
   R22        2.07262  -0.00000   0.00000   0.00000   0.00000   2.07262
   R23        2.08097  -0.00000   0.00000  -0.00001  -0.00001   2.08096
    A1        2.10691  -0.00002   0.00000  -0.00003  -0.00003   2.10688
    A2        2.09706   0.00002   0.00000   0.00012   0.00012   2.09717
    A3        2.07850  -0.00000   0.00000  -0.00012  -0.00012   2.07838
    A4        2.20161  -0.00001   0.00000  -0.00003  -0.00003   2.20158
    A5        2.02614   0.00001   0.00000   0.00008   0.00008   2.02622
    A6        2.05542  -0.00000   0.00000  -0.00005  -0.00005   2.05537
    A7        1.91169  -0.00004   0.00000  -0.00013  -0.00013   1.91156
    A8        2.01589   0.00001   0.00000   0.00010   0.00010   2.01599
    A9        2.13682   0.00001   0.00000   0.00006   0.00006   2.13688
   A10        1.63687   0.00001   0.00000  -0.00005  -0.00005   1.63682
   A11        1.81992   0.00001   0.00000  -0.00003  -0.00003   1.81990
   A12        1.86708  -0.00001   0.00000  -0.00001  -0.00001   1.86708
   A13        1.92477  -0.00000   0.00000  -0.00001  -0.00001   1.92476
   A14        1.91549  -0.00000   0.00000  -0.00000  -0.00000   1.91549
   A15        1.94099   0.00001   0.00000   0.00003   0.00003   1.94102
   A16        1.90190  -0.00000   0.00000  -0.00004  -0.00004   1.90187
   A17        1.86876  -0.00001   0.00000   0.00002   0.00002   1.86878
   A18        1.91104   0.00001   0.00000   0.00000   0.00000   1.91104
   A19        1.96456  -0.00003   0.00000  -0.00002  -0.00002   1.96454
   A20        1.79562   0.00001   0.00000  -0.00003  -0.00003   1.79559
   A21        1.89919   0.00002   0.00000  -0.00001  -0.00001   1.89918
   A22        1.94633   0.00000   0.00000   0.00004   0.00004   1.94637
   A23        1.98265   0.00001   0.00000   0.00001   0.00001   1.98267
   A24        1.86367  -0.00000   0.00000   0.00001   0.00001   1.86367
   A25        1.93262  -0.00000   0.00000  -0.00001  -0.00001   1.93261
   A26        1.89702   0.00000   0.00000   0.00000   0.00000   1.89703
   A27        1.93203  -0.00000   0.00000   0.00001   0.00001   1.93204
   A28        1.84697  -0.00000   0.00000   0.00000   0.00000   1.84697
   A29        1.95238   0.00000   0.00000   0.00001   0.00001   1.95239
   A30        1.89987  -0.00000   0.00000  -0.00001  -0.00001   1.89986
   A31        1.94066  -0.00001   0.00000  -0.00012  -0.00012   1.94054
   A32        1.96260   0.00002   0.00000  -0.00001  -0.00001   1.96259
   A33        1.98337  -0.00001   0.00000   0.00007   0.00007   1.98344
   A34        1.83862  -0.00000   0.00000   0.00012   0.00012   1.83873
   A35        1.87746   0.00001   0.00000   0.00002   0.00002   1.87748
   A36        1.85238  -0.00000   0.00000  -0.00007  -0.00007   1.85231
   A37        1.93904   0.00000   0.00000  -0.00011  -0.00011   1.93893
   A38        1.88647  -0.00001   0.00000  -0.00004  -0.00004   1.88643
   A39        1.95594   0.00000   0.00000   0.00014   0.00014   1.95608
   A40        1.90406  -0.00000   0.00000  -0.00009  -0.00009   1.90396
   A41        1.86820   0.00000   0.00000   0.00005   0.00005   1.86825
   A42        1.90966   0.00000   0.00000   0.00006   0.00006   1.90972
    D1        0.02291  -0.00000   0.00000  -0.00085  -0.00085   0.02206
    D2       -3.12417  -0.00000   0.00000  -0.00079  -0.00079  -3.12496
    D3       -3.07746   0.00001   0.00000   0.00001   0.00001  -3.07745
    D4        0.05865   0.00001   0.00000   0.00007   0.00007   0.05872
    D5       -2.02669   0.00002   0.00000   0.00025   0.00025  -2.02644
    D6        2.43628   0.00002   0.00000   0.00033   0.00033   2.43661
    D7        0.10903   0.00001   0.00000   0.00014   0.00014   0.10917
    D8        1.07411   0.00001   0.00000  -0.00059  -0.00059   1.07352
    D9       -0.74610   0.00001   0.00000  -0.00051  -0.00051  -0.74662
   D10       -3.07336   0.00000   0.00000  -0.00070  -0.00070  -3.07406
   D11       -2.95603   0.00002   0.00000   0.00324   0.00324  -2.95279
   D12       -0.89902   0.00003   0.00000   0.00330   0.00330  -0.89572
   D13        1.20584   0.00003   0.00000   0.00325   0.00325   1.20909
   D14        0.22612   0.00004   0.00000   0.00408   0.00408   0.23020
   D15        2.28313   0.00004   0.00000   0.00415   0.00415   2.28727
   D16       -1.89519   0.00005   0.00000   0.00409   0.00409  -1.89110
   D17        1.10299   0.00001   0.00000   0.00143   0.00143   1.10442
   D18       -3.09171   0.00001   0.00000   0.00122   0.00122  -3.09049
   D19       -0.98604   0.00001   0.00000   0.00135   0.00135  -0.98468
   D20       -2.04361   0.00001   0.00000   0.00149   0.00149  -2.04212
   D21        0.04487   0.00001   0.00000   0.00128   0.00128   0.04615
   D22        2.15055   0.00001   0.00000   0.00141   0.00141   2.15195
   D23        1.10786  -0.00001   0.00000  -0.00027  -0.00027   1.10758
   D24       -0.98934  -0.00001   0.00000  -0.00029  -0.00029  -0.98963
   D25       -2.96164  -0.00001   0.00000  -0.00028  -0.00028  -2.96191
   D26       -3.10239  -0.00000   0.00000  -0.00022  -0.00022  -3.10261
   D27        1.08360   0.00000   0.00000  -0.00023  -0.00023   1.08336
   D28       -0.88870  -0.00000   0.00000  -0.00022  -0.00022  -0.88892
   D29       -1.20717  -0.00001   0.00000  -0.00025  -0.00025  -1.20741
   D30        2.97882  -0.00000   0.00000  -0.00026  -0.00026   2.97856
   D31        1.00653  -0.00001   0.00000  -0.00025  -0.00025   1.00628
   D32       -0.91967   0.00002   0.00000   0.00031   0.00031  -0.91937
   D33        1.10209   0.00002   0.00000   0.00030   0.00030   1.10239
   D34       -3.09532   0.00002   0.00000   0.00030   0.00030  -3.09503
   D35        1.25808  -0.00001   0.00000   0.00015   0.00015   1.25823
   D36       -3.00334  -0.00001   0.00000   0.00015   0.00015  -3.00319
   D37       -0.91757  -0.00001   0.00000   0.00014   0.00014  -0.91743
   D38        2.97833   0.00000   0.00000   0.00009   0.00009   2.97842
   D39       -1.28309   0.00001   0.00000   0.00009   0.00009  -1.28300
   D40        0.80268   0.00001   0.00000   0.00008   0.00008   0.80276
   D41       -2.81238   0.00001   0.00000  -0.00000  -0.00000  -2.81238
   D42       -0.80452   0.00000   0.00000  -0.00003  -0.00003  -0.80455
   D43        1.30248   0.00000   0.00000   0.00002   0.00002   1.30249
   D44       -0.70855   0.00000   0.00000   0.00001   0.00001  -0.70854
   D45        1.29931  -0.00000   0.00000  -0.00002  -0.00002   1.29929
   D46       -2.87689   0.00000   0.00000   0.00003   0.00003  -2.87686
   D47        1.35094   0.00000   0.00000  -0.00002  -0.00002   1.35092
   D48       -2.92439  -0.00001   0.00000  -0.00005  -0.00005  -2.92443
   D49       -0.81740  -0.00000   0.00000   0.00000   0.00000  -0.81740
         Item               Value     Threshold  Converged?
 Maximum Force            0.000048     0.000450     YES
 RMS     Force            0.000013     0.000300     YES
 Maximum Displacement     0.007298     0.001800     NO 
 RMS     Displacement     0.001318     0.001200     NO 
 Predicted change in Energy=-4.776207D-07
 GradGradGradGradGradGradGradGradGradGradGradGradGradGradGradGradGradGrad

                          Input orientation:                          
 ---------------------------------------------------------------------
 Center     Atomic      Atomic             Coordinates (Angstroms)
 Number     Number       Type             X           Y           Z
 ---------------------------------------------------------------------
      1          6           0       -0.604500   -0.426374   -0.192604
      2          6           0       -1.849215    0.055431    0.361084
      3          8           0       -1.969868    0.866637    1.281782
      4          6           0        0.634300    0.006620    0.331746
      5          6           0        0.805722    2.117703   -1.282996
      6          1           0        1.171592    2.481865   -2.251797
      7          1           0       -0.266149    1.876243   -1.346307
      8          1           0        0.952632    2.888671   -0.518107
      9          7           0        1.498960    0.893182   -0.881555
     10          1           0        1.557685    0.225414   -1.653212
     11          1           0        2.454940    1.052174   -0.555333
     12         17           0        1.970700   -1.333152    0.484146
     13          6           0        0.733477    0.869198    1.563637
     14          1           0        0.102745    1.760009    1.465261
     15          1           0        0.330892    0.310491    2.417280
     16          1           0        1.781511    1.130304    1.772075
     17          6           0       -0.613145   -1.363600   -1.382394
     18          1           0        0.386835   -1.787311   -1.562321
     19          1           0       -1.274388   -2.231343   -1.229547
     20          1           0       -0.947253   -0.884132   -2.322968
     21          6           0       -3.125937   -0.499017   -0.271532
     22          1           0       -3.201686   -1.587723   -0.122484
     23          1           0       -3.983168   -0.010854    0.207824
     24          1           0       -3.161913   -0.318623   -1.357257
 ---------------------------------------------------------------------
                    Distance matrix (angstroms):
                    1          2          3          4          5
     1  C    0.000000
     2  C    1.444999   0.000000
     3  O    2.389544   1.233003   0.000000
     4  C    1.413171   2.484168   2.902393   0.000000
     5  C    3.106446   3.742279   3.980848   2.663352   0.000000
     6  H    3.981536   4.673328   4.996390   3.618040   1.097748
     7  H    2.597606   2.955780   3.290716   2.668738   1.100554
     8  H    3.676974   4.080511   3.983620   3.021556   1.095915
     9  N    2.576902   3.668276   4.088214   1.733703   1.463279
    10  H    2.689469   3.961470   4.633463   2.200129   2.069605
    11  H    3.417287   4.512102   4.794616   2.279215   2.093983
    12  Cl   2.812809   4.066332   4.582943   1.898468   4.048255
    13  C    2.559897   2.962878   2.718000   1.507127   3.109229
    14  H    2.833546   2.816903   2.264399   2.154478   2.859202
    15  H    2.868697   3.007634   2.625291   2.129283   4.145300
    16  H    3.460673   4.040844   3.792460   2.157152   3.355678
    17  C    1.514618   2.565391   3.729944   2.524262   3.760656
    18  H    2.170488   3.477801   4.548231   2.620480   3.937336
    19  H    2.186758   2.844269   4.048202   3.330046   4.821194
    20  H    2.205782   2.983362   4.135838   3.215938   3.628426
    21  C    2.523718   1.528933   2.369449   3.841744   4.829930
    22  H    2.845878   2.182423   3.084351   4.178881   5.579989
    23  H    3.427594   2.140477   2.444740   4.619164   5.448556
    24  H    2.812186   2.194490   3.128951   4.167703   4.656536
                    6          7          8          9         10
     6  H    0.000000
     7  H    1.803826   0.000000
     8  H    1.794189   1.787835   0.000000
     9  N    2.123357   2.073165   2.100605   0.000000
    10  H    2.366209   2.479072   2.957615   1.022163   0.000000
    11  H    2.563004   2.951111   2.372980   1.022544   1.641321
    12  Cl   4.762176   4.319059   4.456990   2.654099   2.677314
    13  C    4.165354   3.237463   2.908601   2.562324   3.382587
    14  H    3.934467   2.838047   2.435146   2.865021   3.767851
    15  H    5.217462   4.119784   3.956016   3.547706   4.252195
    16  H    4.288387   3.804424   3.003968   2.679144   3.549861
    17  C    4.327672   3.258572   4.613074   3.131277   2.703851
    18  H    4.395120   3.727556   4.824449   2.980823   2.330281
    19  H    5.407600   4.231127   5.628526   4.192280   3.773034
    20  H    3.978003   3.006234   4.593597   3.349699   2.820352
    21  C    5.592482   3.869804   5.307726   4.868266   4.936613
    22  H    6.342009   4.702571   6.119884   5.369092   5.318102
    23  H    6.231768   4.448897   5.770299   5.661957   5.849815
    24  H    5.236621   3.633594   5.283975   4.839267   4.760060
                   11         12         13         14         15
    11  H    0.000000
    12  Cl   2.646656   0.000000
    13  C    2.736229   2.747065   0.000000
    14  H    3.180668   3.744260   1.095922   0.000000
    15  H    3.728015   3.021182   1.096783   1.749140   0.000000
    16  H    2.424136   2.786246   1.099999   1.819043   1.786807
    17  C    3.991633   3.187657   3.934193   4.287023   4.258087
    18  H    3.654279   2.627340   4.116893   4.672305   4.499013
    19  H    5.014372   3.778106   4.631064   5.008929   4.726223
    20  H    4.295199   4.073814   4.583091   4.737579   5.052794
    21  C    5.799390   5.219439   4.487197   4.306279   4.453614
    22  H    6.257302   5.214057   4.936089   4.964626   4.746865
    23  H    6.569754   6.105192   4.985927   4.627288   4.857579
    24  H    5.837054   5.546508   5.011647   4.790126   5.180984
                   16         17         18         19         20
    16  H    0.000000
    17  C    4.680236   0.000000
    18  H    4.644975   1.100847   0.000000
    19  H    5.445082   1.101627   1.751447   0.000000
    20  H    5.317282   1.107338   1.781603   1.765663   0.000000
    21  C    5.560042   2.880216   3.957954   2.710531   3.017178
    22  H    5.984086   2.887585   3.871750   2.313939   3.227946
    23  H    6.081172   3.964312   5.038466   3.786040   4.047753
    24  H    6.027400   2.754783   3.846129   2.690271   2.481354
                   21         22         23         24
    21  C    0.000000
    22  H    1.101469   0.000000
    23  H    1.096782   1.790624   0.000000
    24  H    1.101197   1.771118   1.794062   0.000000
 Stoichiometry    C7H14ClNO
 Framework group  C1[X(C7H14ClNO)]
 Deg. of freedom    66
 Full point group                 C1      NOp   1
 Largest Abelian subgroup         C1      NOp   1
 Largest concise Abelian subgroup C1      NOp   1
                         Standard orientation:                         
 ---------------------------------------------------------------------
 Center     Atomic      Atomic             Coordinates (Angstroms)
 Number     Number       Type             X           Y           Z
 ---------------------------------------------------------------------
      1          6           0        0.604653   -0.426276    0.193080
      2          6           0        1.849511    0.054857   -0.360870
      3          8           0        1.970406    0.865484   -1.282046
      4          6           0       -0.634017    0.006750   -0.331551
      5          6           0       -0.804886    2.118836    1.281937
      6          1           0       -1.170674    2.483673    2.250515
      7          1           0        0.266917    1.877118    1.345412
      8          1           0       -0.951569    2.889391    0.516589
      9          7           0       -1.498455    0.894269    0.881208
     10          1           0       -1.557379    0.226974    1.653260
     11          1           0       -2.454385    1.053332    0.554874
     12         17           0       -1.970784   -1.332743   -0.483183
     13          6           0       -0.732933    0.868625   -1.563954
     14          1           0       -0.101957    1.759320   -1.466094
     15          1           0       -0.330486    0.309302   -2.417258
     16          1           0       -1.780891    1.129897   -1.772566
     17          6           0        0.613017   -1.362799    1.383425
     18          1           0       -0.387084   -1.786127    1.563583
     19          1           0        1.274023   -2.230815    1.231104
     20          1           0        0.947240   -0.882867    2.323721
     21          6           0        3.126068   -0.499569    0.272099
     22          1           0        3.201520   -1.588384    0.123697
     23          1           0        3.983444   -0.011926   -0.207530
     24          1           0        3.162074   -0.318542    1.357717
 ---------------------------------------------------------------------
 Rotational constants (GHZ):           1.3913457           0.8094653           0.7432495
 Standard basis: STO-3G (5D, 7F)
 There are    68 symmetry adapted cartesian basis functions of A   symmetry.
 There are    68 symmetry adapted basis functions of A   symmetry.
    68 basis functions,   204 primitive gaussians,    68 cartesian basis functions
    44 alpha electrons       44 beta electrons
       nuclear repulsion energy       671.1744633720 Hartrees.
 NAtoms=   24 NActive=   24 NUniq=   24 SFac= 1.00D+00 NAtFMM=   60 NAOKFM=F Big=F
 Integral buffers will be    131072 words long.
 Raffenetti 1 integral format.
 Two-electron integral symmetry is turned on.
 External calculation of energy, first and second derivatives.
 Running external command "~/scripts/MiMe -H 'hf 6-31g(d)' -EF 'wb97xd def2svp' -c 12 -m 48GB R"
         input file       "/local/jobs/1158196/Gau-206166.EIn"
         output file      "/local/jobs/1158196/Gau-206166.EOu"
         message file     "/local/jobs/1158196/Gau-206166.EMs"
         fchk file        "/local/jobs/1158196/Gau-206166.EFC"
         mat. el file     "/local/jobs/1158196/Gau-206166.EUF"
 Read checkpoint file Gau-206166_H.chk type G16
 Write formatted file Gau-206166_H.fchk

deriv: 2

spelevel: wb97xd def2svp
gradlevel: wb97xd def2svp
hesslevel: hf 6-31g(d)

runspe: False
runforce: True
runfreq: True

Running Gaussian ...

Parsing files ...
SPE file: Gau-206166_F.out
FORCE file: Gau-206166_F.out
HESS file: Gau-206166_H.out

 ExternalExternalExternalExternalExternalExternalExternalExternalExternalExternal
 Output from external command:
 "~/scripts/MiMe -H 'hf 6-31g(d)' -EF 'wb97xd def2svp' -c 12 -m 48GB R /local/jobs/1158196/Gau-206166.EIn /local/jobs/1158196/Gau-206166.EOu /local/jobs/1158196/Gau-206166.EMs /local/jobs/1158196/Gau-206166.EFC /local/jobs/1158196/Gau-206166.EUF"
  
 --------------------------------------------------
 Force calculation at wb97xd def2svp
 Hessian calculation at hf 6-31g(d)
 ExternalExternalExternalExternalExternalExternalExternalExternalExternalExternal

 Recovered energy= -864.728928483     dipole=     -4.523300000000      2.768800000000      4.537200000000
 Energy=    -864.728928     NIter=   0.
 Dipole moment=      -4.523300       2.768800       4.537200
 ***** Axes restored to original set *****
 -------------------------------------------------------------------
 Center     Atomic                   Forces (Hartrees/Bohr)
 Number     Number              X              Y              Z
 -------------------------------------------------------------------
      1        6           0.000000198    0.000004851   -0.000004191
      2        6           0.000002023    0.000000525   -0.000004006
      3        8           0.000002477   -0.000009498    0.000009921
      4        6           0.000005522    0.000004729   -0.000003289
      5        6           0.000001215    0.000005518    0.000002648
      6        1          -0.000006245    0.000002695   -0.000000062
      7        1          -0.000000708   -0.000004339    0.000003758
      8        1          -0.000005797    0.000002934   -0.000000600
      9        7          -0.000007367   -0.000004749   -0.000003011
     10        1           0.000003449    0.000001520    0.000003805
     11        1          -0.000001519    0.000010515   -0.000001762
     12       17           0.000003156   -0.000000788   -0.000002353
     13        6          -0.000000961   -0.000003255    0.000000142
     14        1          -0.000006743   -0.000005001    0.000003231
     15        1           0.000007560   -0.000002386    0.000001658
     16        1           0.000000733    0.000004751   -0.000003894
     17        6          -0.000001821   -0.000009210    0.000002892
     18        1          -0.000004033   -0.000020074    0.000022156
     19        1          -0.000026500    0.000012499   -0.000025549
     20        1           0.000034933    0.000015245   -0.000002881
     21        6           0.000002387   -0.000002385   -0.000003450
     22        1          -0.000007224   -0.000000625    0.000009963
     23        1           0.000002095    0.000004196   -0.000003983
     24        1           0.000003173   -0.000007670   -0.000001146
 -------------------------------------------------------------------
 Cartesian Forces:  Max     0.000034933 RMS     0.000008487
 FormGI is forming the generalized inverse of G from B-inverse, IUseBI=4.

 GradGradGradGradGradGradGradGradGradGradGradGradGradGradGradGradGradGrad
 Berny optimization.
 Internal  Forces:  Max     0.000044528 RMS     0.000012123
 Search for a saddle point.
 Step number   3 out of a maximum of   50
 All quantities printed in internal units (Hartrees-Bohrs-Radians)
 Swapping is turned off.
 Second derivative matrix not updated -- analytic derivatives used.
 ITU=  0  0  0
     Eigenvalues ---   -0.03185   0.00589   0.00696   0.00881   0.01117
     Eigenvalues ---    0.01470   0.01562   0.02083   0.03627   0.03983
     Eigenvalues ---    0.04625   0.05178   0.05665   0.05776   0.05913
     Eigenvalues ---    0.06007   0.06420   0.07289   0.07367   0.07704
     Eigenvalues ---    0.07826   0.08186   0.08916   0.12106   0.12504
     Eigenvalues ---    0.14998   0.15409   0.16067   0.16655   0.16979
     Eigenvalues ---    0.17025   0.17736   0.18877   0.19096   0.19617
     Eigenvalues ---    0.20164   0.20655   0.22464   0.22534   0.23488
     Eigenvalues ---    0.25568   0.26771   0.27225   0.29594   0.31655
     Eigenvalues ---    0.32382   0.33540   0.33888   0.34259   0.34613
     Eigenvalues ---    0.34769   0.34953   0.35074   0.35410   0.35585
     Eigenvalues ---    0.35723   0.36047   0.36166   0.37608   0.39732
     Eigenvalues ---    0.45063   0.45245   0.49101   0.50546   0.79975
     Eigenvalues ---    0.82733
 Eigenvectors required to have negative eigenvalues:
                          R6        R7        D6        D9        D5
   1                    0.81987  -0.26430   0.19559   0.18328   0.13988
                          A11       D8        R2        D40       D38
   1                   -0.12768   0.12756  -0.10942  -0.10586  -0.09846
 RFO step:  Lambda0=3.220699738D-09 Lambda=-8.15888064D-07.
 Linear search not attempted -- option 19 set.
 Iteration  1 RMS(Cart)=  0.00121453 RMS(Int)=  0.00000171
 Iteration  2 RMS(Cart)=  0.00000180 RMS(Int)=  0.00000002
 Iteration  3 RMS(Cart)=  0.00000000 RMS(Int)=  0.00000002
 Variable       Old X    -DE/DX   Delta X   Delta X   Delta X     New X
[...]
 .00044271,0.00214831,0.00268995,-0.00352966,-0.00166055,-0.00218289,-0
 .00612730,0.00180467,0.00309098,-0.00011443,0.00002823,-0.00038338,0.0
 0005481,0.00005177,0.00000659,0.00007942,0.00003733,0.00023371,-0.0002
 3288,0.00016006,-0.00012447,0.00134336,0.00117146,0.00013807,0.0003196
 3,-0.00004244,0.00019535,0.00071541,-0.00003354,-0.00085314,0.00266316
 ,0.00111582,0.00159721,-0.29150878,-0.05802656,-0.04457004,-0.01451148
 ,-0.00604743,-0.00245713,-0.01101068,-0.00228472,-0.00245354,0.3193730
 8,0.00068523,-0.00120558,-0.00381573,0.00174282,-0.00219670,-0.0013247
 5,0.00196738,0.00278513,0.00093932,-0.02283952,-0.00741306,-0.00250172
 ,0.00004477,0.00029316,0.00004234,-0.00001045,-0.00007456,-0.00000950,
 0.00000138,-0.00009429,-0.00003428,0.00006908,-0.00009092,-0.00003712,
 0.00017032,0.00000799,0.00138749,-0.00000940,-0.00012064,0.00016044,0.
 00022146,0.00050495,-0.00043402,-0.00037470,-0.00062141,-0.00019354,-0
 .05057971,-0.07838111,-0.00993002,0.02501413,0.01298622,0.00530783,-0.
 01711704,-0.00431521,-0.00489541,0.06215839,0.07758845,0.00246621,-0.0
 0342777,-0.00380534,0.00133951,-0.00096986,-0.00154350,0.00061641,0.00
 038825,0.00230184,-0.03356723,-0.00830571,-0.00825152,-0.00012624,0.00
 018689,-0.00024866,0.00005345,0.00000826,0.00004533,0.00008142,-0.0001
 2867,0.00015517,-0.00009210,0.00013983,-0.00002722,-0.00084013,0.00021
 937,0.00133562,-0.00012828,-0.00030087,0.00037403,0.00059212,-0.000012
 96,-0.00161685,-0.00037432,0.00124420,0.00052708,-0.03877099,-0.009371
 30,-0.07090386,-0.00260713,-0.00051595,-0.00196167,0.02693657,0.005083
 71,0.00876750,0.04603420,0.01609331,0.07529379,-0.10272084,-0.00109987
 ,-0.00179874,0.00797072,0.02210634,0.02585744,-0.00716137,0.00147355,0
 .00193034,0.00342034,-0.02483373,-0.02809438,0.00048059,0.00022900,0.0
 0009651,0.00000001,0.00011076,-0.00001076,-0.00011358,-0.00000821,0.00
 004099,-0.00009332,0.00015345,-0.00008259,0.00021928,0.00122236,0.0000
 7845,-0.00060516,-0.00214638,0.00052690,0.00037673,0.00017670,-0.00025
 408,-0.00141988,0.00080856,-0.00103183,-0.00565532,0.00023510,0.000182
 16,-0.00013579,-0.00009463,0.00022951,-0.00000977,0.00010176,-0.000128
 44,-0.00021676,-0.00103598,-0.00151667,0.61542652,-0.00185043,-0.12942
 026,-0.08098330,0.00619658,-0.00991365,-0.00944067,-0.00020690,0.00496
 431,-0.00108905,-0.00981141,-0.01658078,-0.00256079,0.00052599,-0.0002
 3943,-0.00012692,-0.00013666,0.00013759,-0.00001451,-0.00016639,-0.001
 11790,-0.00002681,0.00038296,0.00003822,0.00009013,0.00479656,0.003311
 07,-0.00433115,-0.00000788,0.00146951,-0.00003214,0.00056840,0.0006424
 2,-0.00092331,-0.00232181,0.00200693,-0.00091311,0.00003273,0.00356662
 ,-0.00147019,0.00009123,0.00023036,0.00038874,-0.00011025,-0.00026358,
 -0.00069289,0.00031821,0.00064529,-0.00025856,0.00125996,0.56121952,-0
 .00378529,-0.07607422,-0.17087111,0.00666551,-0.00689410,-0.01335100,-
 0.00087780,-0.00161538,0.00499727,-0.01259934,-0.00277758,-0.01515229,
 0.00051632,0.00033485,-0.00002984,0.00028238,0.00021760,-0.00003297,0.
 00023373,-0.00024306,0.00046802,-0.00002918,0.00004144,-0.00008232,-0.
 00039022,-0.00027436,0.00134889,0.00039188,-0.00005710,0.00093329,0.00
 026183,0.00020297,-0.00010411,0.00417738,-0.00519675,-0.00285541,-0.00
 058985,-0.00227734,0.00243501,-0.00011631,-0.00035186,-0.00037990,0.00
 009119,0.00033726,0.00037519,0.00031939,-0.00050843,0.00008568,0.00210
 093,-0.00681250,0.54056118,0.00317080,-0.00075033,0.00093009,0.0001745
 4,0.00009903,-0.00128097,0.00019267,0.00027893,0.00054762,-0.00346925,
 -0.00035497,0.00092310,-0.00013124,-0.00001972,-0.00010807,0.00001351,
 0.00002846,0.00000023,-0.00002981,-0.00009077,0.00005795,0.00005856,-0
 .00005892,0.00002579,0.00053687,0.00007520,-0.00078733,0.00047258,0.00
 016436,0.00000584,0.00005680,-0.00008210,-0.00027578,-0.00291372,-0.00
 239488,-0.00585102,0.00024975,0.00007591,-0.00005740,-0.00004788,-0.00
 002502,-0.00000199,-0.00001469,0.00002647,-0.00003261,0.00018315,0.000
 06200,0.00006410,-0.26438446,0.09133273,0.03317576,0.29437893,0.018341
 59,-0.00824813,-0.00302775,-0.00242938,-0.00345124,-0.00259273,0.00154
 019,-0.00017767,-0.00091850,0.00523030,0.00097862,-0.00081404,0.000224
 99,-0.00016261,0.00020515,-0.00002779,-0.00001032,-0.00002606,0.000047
 02,0.00010634,-0.00007305,-0.00006930,0.00009486,-0.00002463,-0.001215
 34,-0.00080759,0.00073123,-0.00110937,-0.00194813,0.00001896,-0.000204
 76,0.00000271,0.00022209,-0.00079257,0.00164793,0.00136508,0.00026909,
 -0.00001620,0.00017559,0.00003878,0.00002554,-0.00000401,0.00000036,0.
 00000951,0.00005442,-0.00008983,0.00002565,0.00005156,0.09099008,-0.10
 249407,-0.01485669,-0.10074179,0.10738115,0.02624648,-0.00894932,-0.00
 308655,-0.00275691,-0.00423497,-0.00439806,0.00204834,-0.00052974,-0.0
 0094414,0.00519714,-0.00146744,0.00109007,-0.00000348,0.00009185,0.000
 00354,-0.00003266,0.00004484,-0.00000898,0.00000344,0.00003970,-0.0001
 0654,0.00001203,0.00002431,-0.00000936,-0.00107109,0.00000086,0.000364
 90,0.00002052,-0.00010454,0.00059961,-0.00009956,-0.00013935,0.0001815
 9,-0.00382214,0.00101274,-0.00185637,0.00017836,0.00042799,-0.00011423
 ,0.00006612,0.00011621,0.00011413,0.00001500,-0.00004783,-0.00001560,-
 0.00005506,0.00000727,0.00005258,0.02740339,-0.01284232,-0.06644654,-0
 .02971506,0.01806933,0.06948650,0.00302023,0.00101197,-0.00281945,-0.0
 0159935,0.00061359,0.00000066,0.00058003,-0.00038081,-0.00035641,-0.00
 013685,-0.00057973,0.00051744,-0.00019603,0.00014464,-0.00015709,0.000
 00131,-0.00002562,0.00004011,0.00001910,0.00003607,-0.00002464,0.00002
 544,-0.00007331,0.00002023,-0.00001153,0.00001853,0.00011530,0.0004231
 0,0.00061756,-0.00022392,0.00012494,-0.00002302,-0.00004084,-0.0000848
 4,-0.00021697,-0.00076770,-0.00013227,0.00002398,-0.00002380,0.0000333
 0,0.00003161,0.00003049,-0.00000218,-0.00004684,-0.00001862,0.00000851
 ,-0.00004538,-0.00005352,-0.15973425,-0.12119368,0.02275976,-0.0211115
 2,-0.02609234,0.00598461,0.17379054,-0.01218679,-0.01342186,-0.0040156
 8,-0.00479499,0.00120074,0.00072651,0.00138536,-0.00041368,-0.00086048
 ,0.00444543,-0.00443847,-0.00103731,0.00013535,0.00020610,0.00003139,-
 0.00003141,-0.00000173,0.00001712,-0.00002074,0.00006777,-0.00005327,-
 0.00001408,0.00002509,-0.00003281,-0.00015523,0.00025864,0.00028575,0.
 00000176,-0.00035182,0.00010236,0.00001880,0.00006805,0.00004857,-0.00
 116105,0.00089914,0.00030165,-0.00072340,0.00051832,-0.00013868,0.0000
 1088,0.00001687,0.00011777,-0.00004884,-0.00004981,-0.00011622,-0.0000
 6209,-0.00008746,-0.00026310,-0.11990123,-0.20416600,0.02752191,0.0092
 1143,0.01412507,-0.00247433,0.13510483,0.21986647,-0.02141860,-0.02435
 875,0.00228147,-0.00181105,0.00086815,0.00165498,0.00028763,-0.0001448
 1,-0.00103741,0.00425798,-0.00552327,-0.00222343,-0.00016613,-0.000027
 87,0.00006578,-0.00007375,-0.00007992,0.00001696,0.00005008,-0.0000049
 2,-0.00019434,0.00005247,0.00003300,0.00002446,0.00010760,0.00010792,-
 0.00001293,-0.00048905,-0.00012619,-0.00023257,-0.00008500,0.00007080,
 0.00007768,-0.00128708,0.00115097,0.00015398,-0.00110273,0.00059253,-0
 .00031110,0.00003668,0.00006199,0.00013167,-0.00002623,-0.00007097,-0.
 00013990,-0.00010083,-0.00011234,-0.00038528,0.02228065,0.02763508,-0.
 06334733,0.00268194,0.00333925,-0.00105520,-0.02584641,-0.02684204,0.0
 7086330,0.00201122,-0.00104402,0.00037857,-0.00078621,-0.00047430,0.00
 075373,0.00022986,0.00024637,-0.00015776,-0.00063622,0.00138749,-0.001
 07510,-0.00020354,-0.00008248,0.00010440,-0.00004982,-0.00010044,0.000
 02816,0.00017876,-0.00000013,-0.00011171,0.00006969,0.00002154,0.00003
 581,0.00039445,-0.00031056,0.00017657,-0.00070186,0.00005184,-0.000448
 85,0.00001403,0.00018454,-0.00002960,0.00004910,-0.00092575,-0.0006795
 1,-0.00018753,-0.00031542,0.00021110,0.00000890,-0.00002049,-0.0000604
 3,0.00000737,0.00006457,0.00007257,0.00000085,-0.00004426,-0.00005996,
 -0.07979552,0.02954170,-0.05090107,-0.00705099,0.01665236,-0.02953846,
 0.00757736,-0.01229052,0.02075224,0.07859864,-0.00795301,0.01330569,-0
 .02359534,-0.00132005,0.00155970,0.00009048,0.00017173,-0.00131616,-0.
 00007573,0.00361868,0.00103090,-0.00356491,-0.00015005,0.00052490,0.00
 003751,0.00004262,-0.00000399,0.00003963,0.00016933,-0.00027603,-0.000
 29260,0.00017171,0.00004251,0.00000504,-0.00143356,-0.00067588,0.00158
 311,-0.00026065,-0.00031634,0.00017156,0.00010457,0.00002516,0.0001268
 5,0.00039068,0.00013829,0.00043414,-0.00054950,-0.00061947,0.00046675,
 0.00000259,-0.00006120,-0.00005912,0.00002026,0.00004565,0.00013274,-0
 .00010594,-0.00025434,-0.00009180,0.02824759,-0.11160064,0.08863882,0.
 00277365,-0.00757238,0.01105412,0.00848853,-0.01497844,0.02386116,-0.0
 3292448,0.12091945,-0.00784893,0.00082971,-0.02483174,-0.00597807,0.00
 158447,0.00047485,0.00179352,-0.00211509,-0.00139543,0.00876482,0.0028
 8552,-0.00548428,-0.00112651,0.00018598,0.00004758,0.00001869,-0.00022
 006,0.00006693,0.00019557,0.00005029,-0.00042251,0.00013319,-0.0000069
 3,0.00005018,-0.00220527,-0.00195070,0.00248223,-0.00068624,-0.0000109
 8,-0.00039394,-0.00016623,-0.00014255,0.00024515,-0.00031894,0.0002031
 2,0.00038089,-0.00095297,-0.00072198,0.00060834,0.00000084,-0.00009919
 ,-0.00009756,0.00003008,0.00006962,0.00018519,-0.00013846,-0.00038791,
 -0.00024064,-0.05058742,0.09427695,-0.21779367,-0.00070808,-0.00213373
 ,0.00592489,-0.00125952,0.00614431,-0.00597507,0.06008411,-0.09870646,
 0.24567137,-0.02400655,-0.01032196,-0.01150648,-0.19882689,-0.02771471
 ,-0.03243452,0.00971242,-0.00682732,-0.00864140,-0.00256458,0.00164020
 ,0.00198090,-0.00013971,0.00013076,-0.00002607,0.00000025,-0.00006152,
 0.00002391,-0.00008713,-0.00001414,0.00001872,0.00003777,-0.00001410,0
 .00000017,-0.00055178,-0.00032810,-0.00003025,0.00007871,0.00005159,-0
 .00014153,-0.00004704,-0.00011491,0.00013737,-0.00095892,0.00028255,-0
 .00030060,0.00015418,0.00008661,0.00020400,-0.00004920,-0.00004130,-0.
 00002891,0.00001626,-0.00000682,-0.00002290,-0.00005659,-0.00002911,-0
 .00003308,-0.00373951,0.00122352,-0.00028205,-0.00056532,-0.00057931,-
 0.00023301,-0.00135833,0.00000572,0.00066542,0.00048006,0.00013051,0.0
 0007186,0.57119818,0.00505815,0.01255421,-0.00001114,-0.02202171,-0.10
 673664,-0.00414863,-0.02650230,-0.00675702,-0.03880534,0.00406827,0.00
 105508,-0.00234199,0.00029692,-0.00023447,-0.00000460,-0.00009546,0.00
 005272,-0.00001115,-0.00008602,-0.00001261,0.00002746,0.00001142,0.000
 04538,-0.00000223,0.00222182,0.00159727,-0.00044192,-0.00007664,0.0000
 1461,0.00011749,0.00016686,0.00034264,-0.00043368,-0.00211308,0.000943
 71,0.00015460,-0.00011084,0.00062916,-0.00050987,0.00050405,0.00009092
 ,-0.00002934,-0.00008566,-0.00040926,0.00015497,-0.00019364,-0.0000176
 3,0.00021883,0.00098503,-0.00134273,0.00019001,0.00002390,-0.00017158,
 0.00025102,0.00142280,-0.00030717,-0.00098904,0.00012039,-0.00024210,0
 .00059347,-0.03787307,0.58373932,0.00526578,0.00015420,0.01287425,-0.0
 2561593,-0.00497830,-0.11026402,-0.03192306,-0.03853153,-0.01619620,0.
 00448879,-0.00119561,0.00043683,-0.00012675,0.00024934,-0.00014114,0.0
 0009997,0.00000904,0.00002464,0.00008724,-0.00002587,0.00007119,0.0000
 0406,0.00001151,-0.00002169,-0.00217459,-0.00116905,0.00081764,0.00004
 722,-0.00009749,0.00001227,-0.00012101,-0.00023971,0.00028752,0.002647
 99,-0.00112849,0.00054343,-0.00016254,-0.00116982,0.00007323,-0.000200
 97,0.00045767,-0.00019550,0.00014290,0.00009468,-0.00000448,-0.0001658
 1,0.00023297,0.00001765,0.00095959,0.00004323,-0.00015209,0.00015970,0
 .00039988,-0.00046681,0.00091963,0.00057155,0.00011763,0.00055606,-0.0
 0008371,-0.00075794,-0.03855468,0.02307136,0.59156243,-0.00276299,0.00
 195151,-0.00135514,0.00582571,-0.03143832,0.01044295,-0.00294472,0.000
 14579,-0.00553641,0.00140040,0.00058016,-0.00002108,0.00005200,-0.0000
 0962,0.00000365,-0.00003479,-0.00000406,0.00000519,-0.00000719,0.00002
 234,-0.00003490,0.00000059,0.00000872,-0.00000210,0.00025628,0.0001938
 9,-0.00009645,-0.00003075,-0.00002697,-0.00001238,0.00001584,0.0000398
 2,-0.00003190,-0.00097247,0.00051133,0.00000404,0.00001167,0.00014595,
 -0.00010325,0.00013489,0.00005170,0.00001304,-0.00004444,-0.00009760,0
 .00003970,-0.00004412,-0.00000615,0.00004108,-0.00110780,-0.00106509,0
 .00031534,0.00005712,0.00007172,-0.00002920,-0.00110003,0.00070815,0.0
 0111734,0.00028578,0.00030489,-0.00000108,-0.06457706,-0.02020085,0.00
 420778,0.06115281,-0.00139141,0.00036299,-0.00166656,0.00358980,-0.011
 40080,0.00191331,-0.00340411,0.00024913,-0.00218460,0.00067306,0.00014
 158,0.00015406,0.00009794,0.00000822,0.00000443,-0.00002454,-0.0000040
 6,0.00000862,0.00004025,-0.00000529,-0.00003427,0.00000404,0.00001082,
 -0.00000300,-0.00011189,0.00001111,0.00005759,-0.00004855,-0.00006684,
 -0.00000864,-0.00000152,0.00001819,0.00002430,-0.00052643,0.00031817,-
 0.00000486,0.00001966,0.00004326,-0.00001469,0.00011494,0.00007572,0.0
 0001434,-0.00001097,-0.00006540,0.00003164,-0.00006078,0.00001277,0.00
 002878,0.00076122,-0.00069878,0.00007642,0.00038627,0.00049021,-0.0001
 7656,0.00091656,0.00092481,-0.00010693,-0.00003954,0.00001801,-0.00000
 948,-0.01887401,-0.30599730,0.03689048,0.01881604,0.33430055,-0.000095
 84,0.00047546,-0.00034593,0.00162724,-0.01719150,0.00282853,-0.0029880
 9,0.00070321,-0.00389622,0.00048556,-0.00001513,-0.00018407,-0.0000711
 3,0.00001600,-0.00000414,-0.00000872,-0.00000237,0.00000730,-0.0000437
 8,0.00001277,-0.00004042,0.00001498,0.00000011,0.00000177,0.00016239,0
 .00006246,0.00003691,0.00001752,0.00003928,0.00000383,0.00002613,0.000
 02071,-0.00002965,-0.00034815,0.00017353,-0.00004514,-0.00004378,0.000
 11094,-0.00002724,0.00009381,0.00001954,0.00000653,-0.00002903,-0.0000
 7343,0.00001671,-0.00003422,-0.00001051,0.00000732,0.00027040,0.000876
 80,0.00017435,-0.00023937,-0.00017224,0.00003584,0.00069013,-0.0006150
 2,-0.00001486,-0.00009159,0.00013148,0.00010181,0.00315180,0.03293132,
 -0.05967852,-0.00272685,-0.03937255,0.06220331,-0.00405775,-0.00342357
 ,-0.00385210,-0.02868282,0.01898149,0.01870766,0.00747359,-0.00053445,
 -0.00003465,0.00011109,0.00069528,0.00069132,-0.00013725,0.00013071,0.
 00001330,0.00000300,-0.00004272,0.00001559,-0.00000517,0.00009325,-0.0
 0003012,-0.00002218,-0.00002334,-0.00000916,-0.00055082,-0.00045447,0.
 00019697,0.00005380,0.00001559,-0.00007755,-0.00002024,-0.00006188,0.0
 0010886,-0.00068705,0.00026032,-0.00014921,-0.00001054,0.00010719,0.00
 010006,-0.00004566,-0.00007504,0.00002931,-0.00004659,0.00003807,-0.00
 001439,0.00002023,-0.00007614,-0.00006613,0.00028316,-0.00056143,-0.00
 068185,0.00007274,0.00004559,0.00006392,0.00020465,0.00008237,-0.00011
 626,0.00003598,-0.00006801,0.00009546,-0.21929004,0.09132505,0.0864467
 4,0.00428365,-0.00105738,-0.00307666,0.23815774,-0.00134886,-0.0005407
 6,-0.00167882,-0.01300276,0.00526498,0.00549570,0.00005327,0.00045264,
 0.00158852,-0.00074928,0.00021332,0.00002798,0.00002883,-0.00004036,0.
 00002196,-0.00000866,-0.00000054,-0.00000536,-0.00000791,0.00000856,0.
 00000579,-0.00000834,0.00000274,-0.00000026,0.00020616,0.00011373,-0.0
 0009892,-0.00004049,-0.00003017,0.00000632,0.00000356,0.00002091,-0.00
 001431,-0.00027356,0.00013011,-0.00004886,0.00001224,0.00001152,0.0000
 1037,-0.00002414,0.00000062,0.00000633,0.00000836,0.00001064,0.0000018
 9,0.00001354,-0.00000024,0.00000217,0.00006499,-0.00093991,0.00003612,
 0.00021971,0.00029627,-0.00010585,0.00025740,0.00065108,0.00010373,0.0
 0004808,0.00007037,-0.00015180,0.09708001,-0.11730278,-0.05144198,0.02
 787765,-0.01356627,-0.01606052,-0.10282623,0.12120137,-0.00175613,-0.0
 0155136,-0.00085338,-0.01397199,0.00731099,0.00601793,0.00020438,0.001
 23050,0.00062057,-0.00051875,-0.00001080,0.00046481,-0.00004328,0.0000
 1727,0.00001259,0.00000528,-0.00001407,-0.00000147,-0.00000231,-0.0000
 3837,-0.00002288,0.00001732,-0.00000058,0.00000845,-0.00030727,-0.0001
 8155,0.00002650,-0.00003210,-0.00003140,-0.00003224,-0.00003098,-0.000
 04695,0.00006808,0.00008466,0.00000372,0.00002347,0.00001336,0.0000309
 2,0.00001425,-0.00000740,-0.00000762,0.00001595,-0.00001318,0.00001197
 ,0.00000733,0.00001369,-0.00000710,0.00000154,0.00030996,-0.00029531,-
 0.00068645,0.00016679,0.00002238,0.00024409,0.00021768,0.00019808,-0.0
 0022950,-0.00010951,-0.00016402,0.00048796,0.09295291,-0.05189381,-0.1
 1317776,-0.00665396,0.00272825,0.00331192,-0.09800955,0.05947862,0.116
 29812,-0.00285798,-0.00114434,0.00165511,0.00912011,0.01094067,-0.0301
 9944,-0.00387563,-0.00575513,-0.00108002,0.00170955,0.00043887,0.00040
 242,-0.00026454,0.00015110,-0.00002612,0.00004178,-0.00003220,0.000019
 65,-0.00004392,-0.00004827,-0.00008491,0.00004790,0.00000276,0.0000081
 3,-0.00097886,-0.00069124,0.00046454,-0.00003769,-0.00004968,-0.000060
 65,-0.00005976,-0.00012172,0.00015064,0.00031506,-0.00014132,0.0001379
 3,0.00001119,-0.00025552,0.00003829,-0.00002530,0.00012091,-0.00003331
 ,0.00002176,0.00002522,0.00003606,-0.00004672,0.00003089,0.00001071,-0
 .00128400,0.00116136,-0.00103844,0.00010087,-0.00010027,0.00011730,-0.
 00034133,0.00028031,0.00023310,-0.00053035,0.00012791,0.00078962,-0.06
 485919,0.00315461,-0.00698809,0.00014960,0.00013138,0.00325723,0.00285
 650,-0.00758358,0.02747039,0.06083094,0.00021294,0.00015328,0.00053616
 ,0.00256389,0.00218675,-0.01500337,-0.00338794,-0.00332301,-0.00032189
 ,0.00024086,-0.00007590,-0.00009753,-0.00014891,0.00007327,-0.00002581
 ,0.00002302,-0.00000888,0.00000992,-0.00006054,-0.00000171,-0.00002069
 ,0.00002532,-0.00000131,-0.00000008,-0.00019606,-0.00019172,0.00014692
 ,0.00003373,0.00004095,-0.00000159,-0.00000607,-0.00004252,0.00002972,
 0.00020044,-0.00011315,0.00000575,-0.00005705,-0.00014286,0.00005908,-
 0.00001569,0.00006667,-0.00003340,0.00002532,0.00001114,0.00000113,-0.
 00002545,0.00002352,-0.00001863,0.00019360,0.00054589,0.00034195,-0.00
 023955,-0.00012395,-0.00006800,-0.00001037,-0.00061169,0.00056248,0.00
 025351,0.00023635,-0.00016658,0.00216893,-0.06153372,0.03787566,0.0014
 1900,-0.00518081,0.03793964,-0.00257024,0.00397215,-0.01678976,-0.0006
 4272,0.06404126,-0.00171629,-0.00129887,0.00029023,0.00615353,0.002684
 64,-0.01231549,-0.00434392,-0.00255380,-0.00055758,0.00098994,0.000314
 45,0.00010917,-0.00024964,0.00007030,-0.00001018,0.00001012,-0.0000265
 1,0.00002338,-0.00006344,0.00003034,-0.00010598,0.00002877,0.00000821,
 0.00000455,-0.00047509,-0.00042725,0.00035576,-0.00003788,-0.00004755,
 -0.00004910,-0.00001902,-0.00007099,0.00005413,-0.00008259,0.00013179,
 0.00015594,0.00001501,-0.00011521,0.00003719,0.00003404,0.00011835,-0.
 00003169,0.00006397,-0.00000487,0.00005170,-0.00008138,0.00003139,0.00
 001940,0.00123769,-0.00049740,-0.00009384,0.00031875,-0.00001149,0.000
 41065,0.00029588,0.00038197,-0.00022900,0.00011024,-0.00013971,0.00066
 541,-0.00697157,0.04191220,-0.30578256,0.00041457,0.00164989,-0.004469
 94,-0.00035155,0.00282120,-0.01261987,0.00471986,-0.04496109,0.3340876
 9\\-0.00000052,-0.00000103,0.00000137,-0.00000036,0.00000060,0.0000006
 9,-0.00000041,0.00000344,-0.00000250,-0.00000118,-0.00000087,0.0000010
 2,0.00000013,-0.00000228,-0.00000187,0.00000204,-0.00000206,-0.0000012
 4,0.00000068,0.00000057,-0.00000188,0.00000212,-0.00000124,-0.00000129
 ,0.00000185,0.00000024,0.00000073,-0.00000102,-0.00000142,-0.00000090,
 0.00000072,-0.00000345,-0.00000014,-0.00000094,0.00000012,0.00000181,0
 .00000052,0.00000168,-0.00000036,0.00000093,0.00000183,-0.00000158,-0.
 00000136,0.00000189,-0.00000031,-0.00000010,0.00000002,0.00000028,0.00
 000024,0.00000095,0.00000076,0.00000060,0.00000385,-0.00000425,0.00000
 656,-0.00000367,0.00000720,-0.00000947,-0.00000393,0.00000143,-0.00000
 077,0.00000143,0.00000106,0.00000030,0.00000164,0.00000036,-0.00000055
 ,0.00000140,-0.00000024,0.,0.00000028,-0.00000016\\\@
 The archive entry for this job was punched.


 ON A CLEAR DISK YOU CAN SEEK FOREVER.
 Job cpu time:       0 days  6 hours 39 minutes 25.7 seconds.
 Elapsed time:       0 days  0 hours 55 minutes 54.7 seconds.
 File lengths (MBytes):  RWF=      6 Int=      0 D2E=      0 Chk=      2 Scr=      1
 Normal termination of Gaussian 16 at Thu Jan 18 20:39:11 2024.
