 Entering Gaussian System, Link 0=g16
 Initial command:
 /apps/gaussian/g16/C.01/g16/l1.exe "/local/jobs/762010/Gau-1426940.inp" -scrdir="/local/jobs/762010/"
 Default is to use a total of  12 processors:
                               12 via shared-memory
                                1 via Linda
 Entering Link 1 = /apps/gaussian/g16/C.01/g16/l1.exe PID=   1426944.
  
 Copyright (c) 1988-2019, Gaussian, Inc.  All Rights Reserved.
  
 This is part of the Gaussian(R) 16 program.  It is based on
 the Gaussian(R) 09 system (copyright 2009, Gaussian, Inc.),
 the Gaussian(R) 03 system (copyright 2003, Gaussian, Inc.),
 the Gaussian(R) 98 system (copyright 1998, Gaussian, Inc.),
 the Gaussian(R) 94 system (copyright 1995, Gaussian, Inc.),
 the Gaussian 92(TM) system (copyright 1992, Gaussian, Inc.),
 the Gaussian 90(TM) system (copyright 1990, Gaussian, Inc.),
 the Gaussian 88(TM) system (copyright 1988, Gaussian, Inc.),
 the Gaussian 86(TM) system (copyright 1986, Carnegie Mellon
 University), and the Gaussian 82(TM) system (copyright 1983,
 Carnegie Mellon University). Gaussian is a federally registered
 trademark of Gaussian, Inc.
  
 This software contains proprietary and confidential information,
 including trade secrets, belonging to Gaussian, Inc.
  
 This software is provided under written license and may be
 used, copied, transmitted, or stored only in accord with that
 written license.
  
 The following legend is applicable only to US Government
 contracts under FAR:
  
                    RESTRICTED RIGHTS LEGEND
  
 Use, reproduction and disclosure by the US Government is
 subject to restrictions as set forth in subparagraphs (a)
 and (c) of the Commercial Computer Software - Restricted
 Rights clause in FAR 52.227-19.
  
 Gaussian, Inc.
 340 Quinnipiac St., Bldg. 40, Wallingford CT 06492
  
  
 ---------------------------------------------------------------
 Warning -- This program may not be used in any manner that
 competes with the business of Gaussian, Inc. or will provide
 assistance to any competitor of Gaussian, Inc.  The licensee
 of this program is prohibited from giving any competitor of
 Gaussian, Inc. access to this program.  By using this program,
 the user acknowledges that Gaussian, Inc. is engaged in the
 business of creating and licensing software in the field of
 computational chemistry and represents and warrants to the
 licensee that it is not a competitor of Gaussian, Inc. and that
 it will not use this program in any manner prohibited above.
 ---------------------------------------------------------------
  

 Cite this work as:
 Gaussian 16, Revision C.01,
 M. J. Frisch, G. W. Trucks, H. B. Schlegel, G. E. Scuseria, 
 M. A. Robb, J. R. Cheeseman, G. Scalmani, V. Barone, 
 G. A. Petersson, H. Nakatsuji, X. Li, M. Caricato, A. V. Marenich, 
 J. Bloino, B. G. Janesko, R. Gomperts, B. Mennucci, H. P. Hratchian, 
 J. V. Ortiz, A. F. Izmaylov, J. L. Sonnenberg, D. Williams-Young, 
 F. Ding, F. Lipparini, F. Egidi, J. Goings, B. Peng, A. Petrone, 
 T. Henderson, D. Ranasinghe, V. G. Zakrzewski, J. Gao, N. Rega, 
 G. Zheng, W. Liang, M. Hada, M. Ehara, K. Toyota, R. Fukuda, 
 J. Hasegawa, M. Ishida, T. Nakajima, Y. Honda, O. Kitao, H. Nakai, 
 T. Vreven, K. Throssell, J. A. Montgomery, Jr., J. E. Peralta, 
 F. Ogliaro, M. J. Bearpark, J. J. Heyd, E. N. Brothers, K. N. Kudin, 
 V. N. Staroverov, T. A. Keith, R. Kobayashi, J. Normand, 
 K. Raghavachari, A. P. Rendell, J. C. Burant, S. S. Iyengar, 
 J. Tomasi, M. Cossi, J. M. Millam, M. Klene, C. Adamo, R. Cammi, 
 J. W. Ochterski, R. L. Martin, K. Morokuma, O. Farkas, 
 J. B. Foresman, and D. J. Fox, Gaussian, Inc., Wallingford CT, 2019.
 
 ******************************************
 Gaussian 16:  ES64L-G16RevC.01  3-Jul-2019
                29-Jul-2023 
 ******************************************
 %mem=48GB
 ----------------------------------
 # pm6 scrf=(iefpcm, solvent=water)
 ----------------------------------
 1/38=1,172=1/1;
 2/12=2,17=6,18=5,40=1/2;
 3/5=2,25=1,41=3900000,70=2201,72=1/1,2,3;
 4/35=1/1;
 5/5=2,35=1,38=5,53=1/2;
 6/7=2,8=2,9=2,10=2,28=1/1;
 99/5=1,9=1/99;
 ---------------------------
 MA1_1_b3lyp.out,Ph,H,Br,OMe
 ---------------------------
 Symbolic Z-matrix:
 Charge =  0 Multiplicity = 1
 C                     0.0016   -0.6343    0.5845 
 C                    -0.5609    0.7448    0.428 
 O                    -0.0431    1.7638    0.8681 
 C                     1.3558   -0.711     0.7265 
 C                     2.1935    0.8114   -1.781 
 H                     2.7755    0.6188   -2.6868 
 H                     1.198     1.159    -2.07 
 H                     2.6866    1.5989   -1.2045 
 N                     2.088    -0.4125   -0.9737 
 H                     1.6804   -1.1269   -1.5859 
 H                     3.051    -0.7456   -0.8374 
 C                     2.0205   -1.9316    1.2989 
 C                     2.0608   -3.1625    0.6286 
 C                     2.7149   -4.2596    1.1945 
 C                     3.3433   -4.1357    2.4318 
 C                     3.3211   -2.9151    3.1031 
 C                     2.6668   -1.8179    2.538 
 H                     1.5834   -3.2792   -0.3404 
 H                     2.7327   -5.2105    0.6686 
 H                     3.8506   -4.9899    2.8726 
 H                     3.8121   -2.8154    4.0676 
 H                     2.6599   -0.8729    3.077 
 H                     1.8721    0.2283    0.9876 
 Br                   -1.1894   -2.0816    0.5951 
 O                    -1.7207    0.713    -0.284 
 C                    -2.3179    1.9937   -0.4823 
 H                    -3.2376    1.8534   -1.057 
 H                    -2.5768    2.4498    0.4784 
 H                    -1.6488    2.6445   -1.0539 
 
                          Input orientation:                          
 ---------------------------------------------------------------------
 Center     Atomic      Atomic             Coordinates (Angstroms)
 Number     Number       Type             X           Y           Z
 ---------------------------------------------------------------------
      1          6           0        0.001600   -0.634300    0.584500
      2          6           0       -0.560900    0.744800    0.428000
      3          8           0       -0.043100    1.763800    0.868100
      4          6           0        1.355800   -0.711000    0.726500
      5          6           0        2.193500    0.811400   -1.781000
      6          1           0        2.775500    0.618800   -2.686800
      7          1           0        1.198000    1.159000   -2.070000
      8          1           0        2.686600    1.598900   -1.204500
      9          7           0        2.088000   -0.412500   -0.973700
     10          1           0        1.680400   -1.126900   -1.585900
     11          1           0        3.051000   -0.745600   -0.837400
     12          6           0        2.020500   -1.931600    1.298900
     13          6           0        2.060800   -3.162500    0.628600
     14          6           0        2.714900   -4.259600    1.194500
     15          6           0        3.343300   -4.135700    2.431800
     16          6           0        3.321100   -2.915100    3.103100
     17          6           0        2.666800   -1.817900    2.538000
     18          1           0        1.583400   -3.279200   -0.340400
     19          1           0        2.732700   -5.210500    0.668600
     20          1           0        3.850600   -4.989900    2.872600
     21          1           0        3.812100   -2.815400    4.067600
     22          1           0        2.659900   -0.872900    3.077000
     23          1           0        1.872100    0.228300    0.987600
     24         35           0       -1.189400   -2.081600    0.595100
     25          8           0       -1.720700    0.713000   -0.284000
     26          6           0       -2.317900    1.993700   -0.482300
     27          1           0       -3.237600    1.853400   -1.057000
     28          1           0       -2.576800    2.449800    0.478400
     29          1           0       -1.648800    2.644500   -1.053900
 ---------------------------------------------------------------------
                    Distance matrix (angstroms):
                    1          2          3          4          5
     1  C    0.000000
     2  C    1.497603   0.000000
     3  O    2.415225   1.224813   0.000000
     4  C    1.363783   2.425324   2.846332   0.000000
     5  C    3.534129   3.531407   3.595438   3.050738   0.000000
     6  H    4.468354   4.566117   4.678979   3.928681   1.093752
     7  H    3.419601   3.083066   3.246312   3.367820   1.093328
     8  H    3.923892   3.733738   3.431344   3.291721   1.093461
     9  N    2.613474   3.212597   3.559508   1.875073   1.469964
    10  H    2.787770   3.547179   4.165179   2.371820   2.014533
    11  H    3.366456   4.107110   4.333506   2.306661   2.012445
    12  C    2.503859   3.819059   4.254411   1.503108   4.127925
    13  C    3.260988   4.709623   5.362107   2.552736   4.649265
    14  C    4.569124   6.030125   6.632831   3.828673   5.902584
    15  C    5.180664   6.563328   6.979754   4.311238   6.598752
    16  C    4.750208   5.968329   6.181033   3.790605   6.246016
    17  C    3.510037   4.630073   4.791732   2.495091   5.078483
    18  H    3.217612   4.623963   5.434871   2.790292   4.379561
    19  H    5.329877   6.809647   7.509043   4.705816   6.523385
    20  H    6.246715   7.637027   8.049310   5.398033   7.619518
    21  H    5.604382   6.711545   6.787374   4.650254   7.069630
    22  H    3.651855   4.472998   4.374658   2.692905   5.162805
    23  H    2.098890   2.549395   2.457648   1.103188   2.847534
    24  Br   1.874372   2.900254   4.021894   2.893761   5.045722
    25  O    2.352834   1.361283   2.290384   3.537476   4.191856
    26  C    3.663950   2.339967   2.655400   4.719393   4.841197
    27  H    4.401771   3.255602   3.730800   5.554849   5.577346
    28  H    4.021328   2.640723   2.653695   5.051490   5.526754
    29  H    4.019789   2.643561   2.654805   4.843225   4.318819
                    6          7          8          9         10
     6  H    0.000000
     7  H    1.777854   0.000000
     8  H    1.779245   1.777226   0.000000
     9  N    2.114462   2.112720   2.111237   0.000000
    10  H    2.336385   2.385875   2.930510   1.025326   0.000000
    11  H    2.314685   2.929234   2.400881   1.028058   1.607540
    12  C    4.791698   4.645191   4.378942   2.734398   3.014180
    13  C    5.079459   5.167420   5.140312   3.182861   3.031894
    14  C    6.234336   6.505319   6.330721   4.460300   4.314467
    15  C    7.009118   7.273401   6.821992   5.199560   5.287724
    16  C    6.805077   6.918584   6.271699   4.940024   5.279799
    17  C    5.766096   5.679170   5.067664   3.826512   4.296163
    18  H    4.703307   4.778877   5.075390   2.978869   2.488589
    19  H    6.726164   7.101110   7.062475   5.112102   4.781830
    20  H    7.969961   8.323134   7.835172   6.233247   6.285758
    21  H    7.647888   7.765276   6.967628   5.844754   6.273535
    22  H    5.954823   5.723406   4.943860   4.116699   4.771433
    23  H    3.803924   3.266425   2.710582   2.074593   2.914827
    24  Br   5.812354   4.827414   5.639860   3.998547   3.728802
    25  O    5.098837   3.450728   4.588729   4.030959   4.080154
    26  C    5.717770   3.947033   5.071731   5.044128   5.190615
    27  H    6.351209   4.602489   5.931498   5.788200   5.774829
    28  H    6.482142   4.733880   5.591025   5.662306   5.931093
    29  H    5.132665   3.368002   4.462248   4.828598   5.058661
                   11         12         13         14         15
    11  H    0.000000
    12  C    2.651849   0.000000
    13  C    2.995172   1.402156   0.000000
    14  C    4.073055   2.431599   1.397039   0.000000
    15  C    4.718674   2.809149   2.417324   1.393251   0.000000
    16  C    4.506354   2.431866   2.787959   2.412035   1.393198
    17  C    3.562410   1.402141   2.412674   2.787329   2.416842
    18  H    2.969846   2.166653   1.086504   2.144154   3.393513
    19  H    4.722783   3.414043   2.155772   1.086784   2.153347
    20  H    5.693641   3.896023   3.402692   2.153874   1.086883
    21  H    5.377952   3.414181   3.874823   3.397685   2.153789
    22  H    3.935949   2.165945   3.405268   3.875122   3.395465
    23  H    2.380948   2.187258   3.414969   4.571036   4.826452
    24  Br   4.670968   3.289573   3.425386   4.510712   5.304542
    25  O    5.020248   4.847273   5.491091   6.825486   7.518614
    26  C    6.037793   6.115748   6.855181   8.200274   8.838026
    27  H    6.808048   6.893773   7.488227   8.824414   9.557682
    28  H    6.604093   6.403519   7.282019   8.575018   9.068195
    29  H    5.798946   6.319820   7.093179   8.471350   9.112754
                   16         17         18         19         20
    16  C    0.000000
    17  C    1.396887   0.000000
    18  H    3.874256   3.405046   0.000000
    19  H    3.397332   3.874111   2.463512   0.000000
    20  H    2.153670   3.402194   4.288363   2.481125   0.000000
    21  H    1.086868   2.155550   4.961117   4.295906   2.481523
    22  H    2.146729   1.087931   4.315988   4.961901   4.290598
    23  H    4.056588   2.687419   3.761581   5.515699   5.890441
    24  Br   5.227753   4.326046   3.161934   5.017797   6.248745
    25  O    7.074977   5.798215   5.182463   7.471818   8.574764
    26  C    8.291546   6.964032   6.560774   8.873197   9.903354
    27  H    9.113812   7.827158   7.078075   9.408553  10.607313
    28  H    8.393833   7.067571   7.127351   9.322401  10.118933
    29  H    8.537547   7.172110   6.785751   9.157815  10.195336
                   21         22         23         24         25
    21  H    0.000000
    22  H    2.466203   0.000000
    23  H    4.744904   2.489752   0.000000
    24  Br   6.132840   4.736865   3.855188   0.000000
    25  O    7.873875   5.744655   3.841889   2.977396   0.000000
    26  C    9.022524   6.757552   4.778425   4.363757   1.426942
    27  H    9.887239   7.700855   5.738499   4.733792   2.049153
    28  H    9.023454   6.724291   4.998706   4.740473   2.081018
    29  H    9.266159   6.928299   4.733126   5.026557   2.080531
                   26         27         28         29
    26  C    0.000000
    27  H    1.093532   0.000000
    28  H    1.094532   1.774768   0.000000
    29  H    1.094515   1.774862   1.801953   0.000000
 Stoichiometry    C11H14BrNO2
 Framework group  C1[X(C11H14BrNO2)]
 Deg. of freedom    81
 Full point group                 C1      NOp   1
 Largest Abelian subgroup         C1      NOp   1
 Largest concise Abelian subgroup C1      NOp   1
                         Standard orientation:                         
 ---------------------------------------------------------------------
 Center     Atomic      Atomic             Coordinates (Angstroms)
 Number     Number       Type             X           Y           Z
 ---------------------------------------------------------------------
      1          6           0       -0.742486   -0.121322    0.222479
      2          6           0       -2.097294    0.308037    0.694668
      3          8           0       -2.301693    1.189519    1.520123
      4          6           0        0.235695    0.827084    0.282421
      5          6           0       -1.122489    3.027770   -1.336008
      6          1           0       -0.927985    3.595912   -2.250161
      7          1           0       -2.103138    2.551681   -1.419882
      8          1           0       -1.138535    3.717410   -0.487600
      9          7           0       -0.080654    2.009905   -1.137704
     10          1           0       -0.071215    1.438070   -1.988709
     11          1           0        0.816305    2.510111   -1.184207
     12          6           0        1.692868    0.459674    0.250941
     13          6           0        2.322991   -0.061515   -0.888071
     14          6           0        3.687194   -0.362170   -0.871517
     15          6           0        4.437832   -0.136669    0.280369
     16          6           0        3.826770    0.391942    1.415347
     17          6           0        2.462646    0.692293    1.399561
     18          1           0        1.758020   -0.238539   -1.799094
     19          1           0        4.162552   -0.772823   -1.758363
     20          1           0        5.498781   -0.372318    0.293481
     21          1           0        4.410535    0.570445    2.314589
     22          1           0        2.002883    1.104298    2.295364
     23          1           0        0.022551    1.707460    0.912128
     24         35           0       -0.527414   -1.887920   -0.365861
     25          8           0       -3.072987   -0.406193    0.069377
     26          6           0       -4.397906   -0.050487    0.462093
     27          1           0       -5.096962   -0.682325   -0.092807
     28          1           0       -4.543100   -0.231065    1.531817
     29          1           0       -4.604113    0.995123    0.212812
 ---------------------------------------------------------------------
 Rotational constants (GHZ):           0.6855910           0.3044402           0.2523099
 Standard basis: VSTO-6G (5D, 7F)
 There are    80 symmetry adapted cartesian basis functions of A   symmetry.
 There are    79 symmetry adapted basis functions of A   symmetry.
    79 basis functions,   480 primitive gaussians,    80 cartesian basis functions
    41 alpha electrons       41 beta electrons
       nuclear repulsion energy       565.3735123343 Hartrees.
 Integral buffers will be    131072 words long.
 Regular integral format.
 Two-electron integral symmetry is turned off.
 ------------------------------------------------------------------------------
 Polarizable Continuum Model (PCM)
 =================================
 Model                : PCM.
 Atomic radii         : UFF (Universal Force Field).
 Polarization charges : Total charges.
 Charge compensation  : None.
 Solution method      : On-the-fly selection.
 Cavity type          : Scaled VdW (van der Waals Surface) (Alpha=1.100).
 Cavity algorithm     : GePol (No added spheres)
                        Default sphere list used, NSphG=   29.
                        Lebedev-Laikov grids with approx.  5.0 points / Ang**2.
                        Smoothing algorithm: York/Karplus (Gamma=1.0000).
                        Polarization charges: spherical gaussians, with
                                              point-specific exponents (IZeta= 3).
                        Self-potential: point-specific (ISelfS= 7).
                        Self-field    : sphere-specific E.n sum rule (ISelfD= 2).
 Solvent              : Water, Eps=  78.355300 Eps(inf)=   1.777849
 ------------------------------------------------------------------------------
 Do NDO integrals.
 One-electron integrals computed using PRISM.
 NBasis=    79 RedAO= F EigKep=  0.00D+00  NBF=    79
 NBsUse=    79 1.00D-04 EigRej=  0.00D+00 NBFU=    79
 Nonelectrostatic core Hamiltonian diagonalized for initial guess.
 Keep J ints in memory in canonical form, NReq=2227564.
 Overlap will be assumed to be unity.
 Requested convergence on RMS density matrix=1.00D-08 within 128 cycles.
 Requested convergence on MAX density matrix=1.00D-06.
 Requested convergence on             energy=1.00D-06.
 No special actions if energy rises.
 Inv3:  Mode=1 IEnd=    16511148.
 Iteration    1 A*A^-1 deviation from unit magnitude is 3.66D-15 for   1118.
 Iteration    1 A*A^-1 deviation from orthogonality  is 2.42D-15 for   1682    700.
 Iteration    1 A^-1*A deviation from unit magnitude is 3.11D-15 for   1118.
 Iteration    1 A^-1*A deviation from orthogonality  is 2.23D-15 for   1811    505.
 Error on total polarization charges = -0.00041
 SCF Done:  E(RPM6) = -0.725908444001E-01 A.U. after   19 cycles
            NFock= 18  Conv=0.78D-08     -V/T= 0.9995

 **********************************************************************

            Population analysis using the SCF Density.

 **********************************************************************

 Orbital symmetries:
       Occupied  (A) (A) (A) (A) (A) (A) (A) (A) (A) (A) (A) (A)
                 (A) (A) (A) (A) (A) (A) (A) (A) (A) (A) (A) (A)
                 (A) (A) (A) (A) (A) (A) (A) (A) (A) (A) (A) (A)
                 (A) (A) (A) (A) (A)
       Virtual   (A) (A) (A) (A) (A) (A) (A) (A) (A) (A) (A) (A)
                 (A) (A) (A) (A) (A) (A) (A) (A) (A) (A) (A) (A)
                 (A) (A) (A) (A) (A) (A) (A) (A) (A) (A) (A) (A)
                 (A) (A)
 The electronic state is 1-A.
 Alpha  occ. eigenvalues --   -1.19817  -1.17420  -1.13514  -1.11168  -1.04088
 Alpha  occ. eigenvalues --   -0.98794  -0.96851  -0.96517  -0.92954  -0.89146
 Alpha  occ. eigenvalues --   -0.83844  -0.79813  -0.77492  -0.71315  -0.67430
 Alpha  occ. eigenvalues --   -0.65341  -0.63885  -0.62670  -0.61779  -0.60340
 Alpha  occ. eigenvalues --   -0.58426  -0.57931  -0.55276  -0.54176  -0.53510
 Alpha  occ. eigenvalues --   -0.53128  -0.51869  -0.50215  -0.49425  -0.48547
 Alpha  occ. eigenvalues --   -0.47506  -0.47061  -0.45299  -0.44824  -0.42793
 Alpha  occ. eigenvalues --   -0.42524  -0.42154  -0.39261  -0.36933  -0.36813
 Alpha  occ. eigenvalues --   -0.32569
 Alpha virt. eigenvalues --   -0.01545   0.00003   0.00478   0.01496   0.04598
 Alpha virt. eigenvalues --    0.04905   0.08474   0.11009   0.11554   0.12312
 Alpha virt. eigenvalues --    0.13557   0.14930   0.16190   0.16954   0.17117
 Alpha virt. eigenvalues --    0.17255   0.17542   0.17928   0.18182   0.18589
 Alpha virt. eigenvalues --    0.19105   0.19177   0.19303   0.19395   0.19796
 Alpha virt. eigenvalues --    0.20472   0.21053   0.21232   0.21560   0.21738
 Alpha virt. eigenvalues --    0.22029   0.22158   0.22494   4.16989   4.17031
 Alpha virt. eigenvalues --    4.17857   4.18352   4.19408
          Condensed to atoms (all electrons):
               1          2          3          4          5          6
     1  C    4.501403   0.000000   0.000000   0.000000   0.000000   0.000000
     2  C    0.000000   3.298617   0.000000   0.000000   0.000000   0.000000
     3  O    0.000000   0.000000   6.634045   0.000000   0.000000   0.000000
     4  C    0.000000   0.000000   0.000000   3.768107   0.000000   0.000000
     5  C    0.000000   0.000000   0.000000   0.000000   4.374795   0.000000
     6  H    0.000000   0.000000   0.000000   0.000000   0.000000   0.830931
     7  H    0.000000   0.000000   0.000000   0.000000   0.000000   0.000000
     8  H    0.000000   0.000000   0.000000   0.000000   0.000000   0.000000
     9  N    0.000000   0.000000   0.000000   0.000000   0.000000   0.000000
    10  H    0.000000   0.000000   0.000000   0.000000   0.000000   0.000000
    11  H    0.000000   0.000000   0.000000   0.000000   0.000000   0.000000
    12  C    0.000000   0.000000   0.000000   0.000000   0.000000   0.000000
    13  C    0.000000   0.000000   0.000000   0.000000   0.000000   0.000000
    14  C    0.000000   0.000000   0.000000   0.000000   0.000000   0.000000
    15  C    0.000000   0.000000   0.000000   0.000000   0.000000   0.000000
    16  C    0.000000   0.000000   0.000000   0.000000   0.000000   0.000000
    17  C    0.000000   0.000000   0.000000   0.000000   0.000000   0.000000
    18  H    0.000000   0.000000   0.000000   0.000000   0.000000   0.000000
    19  H    0.000000   0.000000   0.000000   0.000000   0.000000   0.000000
    20  H    0.000000   0.000000   0.000000   0.000000   0.000000   0.000000
    21  H    0.000000   0.000000   0.000000   0.000000   0.000000   0.000000
    22  H    0.000000   0.000000   0.000000   0.000000   0.000000   0.000000
    23  H    0.000000   0.000000   0.000000   0.000000   0.000000   0.000000
    24  Br   0.000000   0.000000   0.000000   0.000000   0.000000   0.000000
    25  O    0.000000   0.000000   0.000000   0.000000   0.000000   0.000000
    26  C    0.000000   0.000000   0.000000   0.000000   0.000000   0.000000
    27  H    0.000000   0.000000   0.000000   0.000000   0.000000   0.000000
    28  H    0.000000   0.000000   0.000000   0.000000   0.000000   0.000000
    29  H    0.000000   0.000000   0.000000   0.000000   0.000000   0.000000
               7          8          9         10         11         12
     1  C    0.000000   0.000000   0.000000   0.000000   0.000000   0.000000
     2  C    0.000000   0.000000   0.000000   0.000000   0.000000   0.000000
     3  O    0.000000   0.000000   0.000000   0.000000   0.000000   0.000000
     4  C    0.000000   0.000000   0.000000   0.000000   0.000000   0.000000
     5  C    0.000000   0.000000   0.000000   0.000000   0.000000   0.000000
     6  H    0.000000   0.000000   0.000000   0.000000   0.000000   0.000000
     7  H    0.824612   0.000000   0.000000   0.000000   0.000000   0.000000
     8  H    0.000000   0.823151   0.000000   0.000000   0.000000   0.000000
     9  N    0.000000   0.000000   5.323111   0.000000   0.000000   0.000000
    10  H    0.000000   0.000000   0.000000   0.773220   0.000000   0.000000
    11  H    0.000000   0.000000   0.000000   0.000000   0.772935   0.000000
    12  C    0.000000   0.000000   0.000000   0.000000   0.000000   4.073370
    13  C    0.000000   0.000000   0.000000   0.000000   0.000000   0.000000
    14  C    0.000000   0.000000   0.000000   0.000000   0.000000   0.000000
    15  C    0.000000   0.000000   0.000000   0.000000   0.000000   0.000000
    16  C    0.000000   0.000000   0.000000   0.000000   0.000000   0.000000
    17  C    0.000000   0.000000   0.000000   0.000000   0.000000   0.000000
    18  H    0.000000   0.000000   0.000000   0.000000   0.000000   0.000000
    19  H    0.000000   0.000000   0.000000   0.000000   0.000000   0.000000
    20  H    0.000000   0.000000   0.000000   0.000000   0.000000   0.000000
    21  H    0.000000   0.000000   0.000000   0.000000   0.000000   0.000000
    22  H    0.000000   0.000000   0.000000   0.000000   0.000000   0.000000
    23  H    0.000000   0.000000   0.000000   0.000000   0.000000   0.000000
    24  Br   0.000000   0.000000   0.000000   0.000000   0.000000   0.000000
    25  O    0.000000   0.000000   0.000000   0.000000   0.000000   0.000000
    26  C    0.000000   0.000000   0.000000   0.000000   0.000000   0.000000
    27  H    0.000000   0.000000   0.000000   0.000000   0.000000   0.000000
    28  H    0.000000   0.000000   0.000000   0.000000   0.000000   0.000000
    29  H    0.000000   0.000000   0.000000   0.000000   0.000000   0.000000
              13         14         15         16         17         18
     1  C    0.000000   0.000000   0.000000   0.000000   0.000000   0.000000
     2  C    0.000000   0.000000   0.000000   0.000000   0.000000   0.000000
     3  O    0.000000   0.000000   0.000000   0.000000   0.000000   0.000000
     4  C    0.000000   0.000000   0.000000   0.000000   0.000000   0.000000
     5  C    0.000000   0.000000   0.000000   0.000000   0.000000   0.000000
     6  H    0.000000   0.000000   0.000000   0.000000   0.000000   0.000000
     7  H    0.000000   0.000000   0.000000   0.000000   0.000000   0.000000
     8  H    0.000000   0.000000   0.000000   0.000000   0.000000   0.000000
     9  N    0.000000   0.000000   0.000000   0.000000   0.000000   0.000000
    10  H    0.000000   0.000000   0.000000   0.000000   0.000000   0.000000
    11  H    0.000000   0.000000   0.000000   0.000000   0.000000   0.000000
    12  C    0.000000   0.000000   0.000000   0.000000   0.000000   0.000000
    13  C    4.133155   0.000000   0.000000   0.000000   0.000000   0.000000
    14  C    0.000000   4.152556   0.000000   0.000000   0.000000   0.000000
    15  C    0.000000   0.000000   4.133296   0.000000   0.000000   0.000000
    16  C    0.000000   0.000000   0.000000   4.148310   0.000000   0.000000
    17  C    0.000000   0.000000   0.000000   0.000000   4.145362   0.000000
    18  H    0.000000   0.000000   0.000000   0.000000   0.000000   0.841255
    19  H    0.000000   0.000000   0.000000   0.000000   0.000000   0.000000
    20  H    0.000000   0.000000   0.000000   0.000000   0.000000   0.000000
    21  H    0.000000   0.000000   0.000000   0.000000   0.000000   0.000000
    22  H    0.000000   0.000000   0.000000   0.000000   0.000000   0.000000
    23  H    0.000000   0.000000   0.000000   0.000000   0.000000   0.000000
    24  Br   0.000000   0.000000   0.000000   0.000000   0.000000   0.000000
    25  O    0.000000   0.000000   0.000000   0.000000   0.000000   0.000000
    26  C    0.000000   0.000000   0.000000   0.000000   0.000000   0.000000
    27  H    0.000000   0.000000   0.000000   0.000000   0.000000   0.000000
    28  H    0.000000   0.000000   0.000000   0.000000   0.000000   0.000000
    29  H    0.000000   0.000000   0.000000   0.000000   0.000000   0.000000
              19         20         21         22         23         24
     1  C    0.000000   0.000000   0.000000   0.000000   0.000000   0.000000
     2  C    0.000000   0.000000   0.000000   0.000000   0.000000   0.000000
     3  O    0.000000   0.000000   0.000000   0.000000   0.000000   0.000000
     4  C    0.000000   0.000000   0.000000   0.000000   0.000000   0.000000
     5  C    0.000000   0.000000   0.000000   0.000000   0.000000   0.000000
     6  H    0.000000   0.000000   0.000000   0.000000   0.000000   0.000000
     7  H    0.000000   0.000000   0.000000   0.000000   0.000000   0.000000
     8  H    0.000000   0.000000   0.000000   0.000000   0.000000   0.000000
     9  N    0.000000   0.000000   0.000000   0.000000   0.000000   0.000000
    10  H    0.000000   0.000000   0.000000   0.000000   0.000000   0.000000
    11  H    0.000000   0.000000   0.000000   0.000000   0.000000   0.000000
    12  C    0.000000   0.000000   0.000000   0.000000   0.000000   0.000000
    13  C    0.000000   0.000000   0.000000   0.000000   0.000000   0.000000
    14  C    0.000000   0.000000   0.000000   0.000000   0.000000   0.000000
    15  C    0.000000   0.000000   0.000000   0.000000   0.000000   0.000000
    16  C    0.000000   0.000000   0.000000   0.000000   0.000000   0.000000
    17  C    0.000000   0.000000   0.000000   0.000000   0.000000   0.000000
    18  H    0.000000   0.000000   0.000000   0.000000   0.000000   0.000000
    19  H    0.841131   0.000000   0.000000   0.000000   0.000000   0.000000
    20  H    0.000000   0.843350   0.000000   0.000000   0.000000   0.000000
    21  H    0.000000   0.000000   0.841075   0.000000   0.000000   0.000000
    22  H    0.000000   0.000000   0.000000   0.839846   0.000000   0.000000
    23  H    0.000000   0.000000   0.000000   0.000000   0.845518   0.000000
    24  Br   0.000000   0.000000   0.000000   0.000000   0.000000   7.087131
    25  O    0.000000   0.000000   0.000000   0.000000   0.000000   0.000000
    26  C    0.000000   0.000000   0.000000   0.000000   0.000000   0.000000
    27  H    0.000000   0.000000   0.000000   0.000000   0.000000   0.000000
    28  H    0.000000   0.000000   0.000000   0.000000   0.000000   0.000000
    29  H    0.000000   0.000000   0.000000   0.000000   0.000000   0.000000
              25         26         27         28         29
     1  C    0.000000   0.000000   0.000000   0.000000   0.000000
     2  C    0.000000   0.000000   0.000000   0.000000   0.000000
     3  O    0.000000   0.000000   0.000000   0.000000   0.000000
     4  C    0.000000   0.000000   0.000000   0.000000   0.000000
     5  C    0.000000   0.000000   0.000000   0.000000   0.000000
     6  H    0.000000   0.000000   0.000000   0.000000   0.000000
     7  H    0.000000   0.000000   0.000000   0.000000   0.000000
     8  H    0.000000   0.000000   0.000000   0.000000   0.000000
     9  N    0.000000   0.000000   0.000000   0.000000   0.000000
    10  H    0.000000   0.000000   0.000000   0.000000   0.000000
    11  H    0.000000   0.000000   0.000000   0.000000   0.000000
    12  C    0.000000   0.000000   0.000000   0.000000   0.000000
    13  C    0.000000   0.000000   0.000000   0.000000   0.000000
    14  C    0.000000   0.000000   0.000000   0.000000   0.000000
    15  C    0.000000   0.000000   0.000000   0.000000   0.000000
    16  C    0.000000   0.000000   0.000000   0.000000   0.000000
    17  C    0.000000   0.000000   0.000000   0.000000   0.000000
    18  H    0.000000   0.000000   0.000000   0.000000   0.000000
    19  H    0.000000   0.000000   0.000000   0.000000   0.000000
    20  H    0.000000   0.000000   0.000000   0.000000   0.000000
    21  H    0.000000   0.000000   0.000000   0.000000   0.000000
    22  H    0.000000   0.000000   0.000000   0.000000   0.000000
    23  H    0.000000   0.000000   0.000000   0.000000   0.000000
    24  Br   0.000000   0.000000   0.000000   0.000000   0.000000
    25  O    6.413601   0.000000   0.000000   0.000000   0.000000
    26  C    0.000000   4.206798   0.000000   0.000000   0.000000
    27  H    0.000000   0.000000   0.833836   0.000000   0.000000
    28  H    0.000000   0.000000   0.000000   0.847424   0.000000
    29  H    0.000000   0.000000   0.000000   0.000000   0.848059
 Mulliken charges:
               1
     1  C   -0.501403
     2  C    0.701383
     3  O   -0.634045
     4  C    0.231893
     5  C   -0.374795
     6  H    0.169069
     7  H    0.175388
     8  H    0.176849
     9  N   -0.323111
    10  H    0.226780
    11  H    0.227065
    12  C   -0.073370
    13  C   -0.133155
    14  C   -0.152556
    15  C   -0.133296
    16  C   -0.148310
    17  C   -0.145362
    18  H    0.158745
    19  H    0.158869
    20  H    0.156650
    21  H    0.158925
    22  H    0.160154
    23  H    0.154482
    24  Br  -0.087131
    25  O   -0.413601
    26  C   -0.206798
    27  H    0.166164
    28  H    0.152576
    29  H    0.151941
 Sum of Mulliken charges =  -0.00000
 Mulliken charges with hydrogens summed into heavy atoms:
               1
     1  C   -0.501403
     2  C    0.701383
     3  O   -0.634045
     4  C    0.386376
     5  C    0.146512
     9  N    0.130734
    12  C   -0.073370
    13  C    0.025590
    14  C    0.006313
    15  C    0.023353
    16  C    0.010615
    17  C    0.014792
    24  Br  -0.087131
    25  O   -0.413601
    26  C    0.263882
 Charge=             -0.0000 electrons
 Dipole moment (field-independent basis, Debye):
    X=              3.0686    Y=              5.5584    Z=             -4.9110  Tot=              8.0268
 N-N= 5.653735123343D+02 E-N=-9.277903691078D+02  KE=-1.495842459283D+02
 Unable to Open any file for archive entry.
 1\1\GINC-NODE-004\SP\RPM6\ZDO\C11H14Br1N1O2\TLA25\29-Jul-2023\0\\# pm6
  scrf=(iefpcm, solvent=water)\\MA1_1_b3lyp.out,Ph,H,Br,OMe\\0,1\C,0,0.
 0016,-0.6343,0.5845\C,0,-0.5609,0.7448,0.428\O,0,-0.0431,1.7638,0.8681
 \C,0,1.3558,-0.711,0.7265\C,0,2.1935,0.8114,-1.781\H,0,2.7755,0.6188,-
 2.6868\H,0,1.198,1.159,-2.07\H,0,2.6866,1.5989,-1.2045\N,0,2.088,-0.41
 25,-0.9737\H,0,1.6804,-1.1269,-1.5859\H,0,3.051,-0.7456,-0.8374\C,0,2.
 0205,-1.9316,1.2989\C,0,2.0608,-3.1625,0.6286\C,0,2.7149,-4.2596,1.194
 5\C,0,3.3433,-4.1357,2.4318\C,0,3.3211,-2.9151,3.1031\C,0,2.6668,-1.81
 79,2.538\H,0,1.5834,-3.2792,-0.3404\H,0,2.7327,-5.2105,0.6686\H,0,3.85
 06,-4.9899,2.8726\H,0,3.8121,-2.8154,4.0676\H,0,2.6599,-0.8729,3.077\H
 ,0,1.8721,0.2283,0.9876\Br,0,-1.1894,-2.0816,0.5951\O,0,-1.7207,0.713,
 -0.284\C,0,-2.3179,1.9937,-0.4823\H,0,-3.2376,1.8534,-1.057\H,0,-2.576
 8,2.4498,0.4784\H,0,-1.6488,2.6445,-1.0539\\Version=ES64L-G16RevC.01\S
 tate=1-A\HF=-0.0725908\RMSD=7.770e-09\Dipole=2.496601,-0.3639441,-1.89
 92962\PG=C01 [X(C11H14Br1N1O2)]\\@
 The archive entry for this job was punched.


 THE DIFFICULTY IN SCIENCE IS OFTEN NOT SO MUCH HOW
 TO MAKE A DISCOVERY BUT RATHER TO KNOW ONE HAS MADE IT.

                                                   -- J. D. BERNAL
 Job cpu time:       0 days  0 hours  0 minutes 27.5 seconds.
 Elapsed time:       0 days  0 hours  0 minutes  2.7 seconds.
 File lengths (MBytes):  RWF=    100 Int=      0 D2E=      0 Chk=      3 Scr=      1
 Normal termination of Gaussian 16 at Sat Jul 29 12:21:16 2023.
