 Entering Gaussian System, Link 0=g16
 Initial command:
 /apps/gaussian/g16/C.01/g16/l1.exe "/local/jobs/762010/Gau-1516470.inp" -scrdir="/local/jobs/762010/"
 Default is to use a total of  12 processors:
                               12 via shared-memory
                                1 via Linda
 Entering Link 1 = /apps/gaussian/g16/C.01/g16/l1.exe PID=   1516474.
  
 Copyright (c) 1988-2019, Gaussian, Inc.  All Rights Reserved.
  
 This is part of the Gaussian(R) 16 program.  It is based on
 the Gaussian(R) 09 system (copyright 2009, Gaussian, Inc.),
 the Gaussian(R) 03 system (copyright 2003, Gaussian, Inc.),
 the Gaussian(R) 98 system (copyright 1998, Gaussian, Inc.),
 the Gaussian(R) 94 system (copyright 1995, Gaussian, Inc.),
 the Gaussian 92(TM) system (copyright 1992, Gaussian, Inc.),
 the Gaussian 90(TM) system (copyright 1990, Gaussian, Inc.),
 the Gaussian 88(TM) system (copyright 1988, Gaussian, Inc.),
 the Gaussian 86(TM) system (copyright 1986, Carnegie Mellon
 University), and the Gaussian 82(TM) system (copyright 1983,
 Carnegie Mellon University). Gaussian is a federally registered
 trademark of Gaussian, Inc.
  
 This software contains proprietary and confidential information,
 including trade secrets, belonging to Gaussian, Inc.
  
 This software is provided under written license and may be
 used, copied, transmitted, or stored only in accord with that
 written license.
  
 The following legend is applicable only to US Government
 contracts under FAR:
  
                    RESTRICTED RIGHTS LEGEND
  
 Use, reproduction and disclosure by the US Government is
 subject to restrictions as set forth in subparagraphs (a)
 and (c) of the Commercial Computer Software - Restricted
 Rights clause in FAR 52.227-19.
  
 Gaussian, Inc.
 340 Quinnipiac St., Bldg. 40, Wallingford CT 06492
  
  
 ---------------------------------------------------------------
 Warning -- This program may not be used in any manner that
 competes with the business of Gaussian, Inc. or will provide
 assistance to any competitor of Gaussian, Inc.  The licensee
 of this program is prohibited from giving any competitor of
 Gaussian, Inc. access to this program.  By using this program,
 the user acknowledges that Gaussian, Inc. is engaged in the
 business of creating and licensing software in the field of
 computational chemistry and represents and warrants to the
 licensee that it is not a competitor of Gaussian, Inc. and that
 it will not use this program in any manner prohibited above.
 ---------------------------------------------------------------
  

 Cite this work as:
 Gaussian 16, Revision C.01,
 M. J. Frisch, G. W. Trucks, H. B. Schlegel, G. E. Scuseria, 
 M. A. Robb, J. R. Cheeseman, G. Scalmani, V. Barone, 
 G. A. Petersson, H. Nakatsuji, X. Li, M. Caricato, A. V. Marenich, 
 J. Bloino, B. G. Janesko, R. Gomperts, B. Mennucci, H. P. Hratchian, 
 J. V. Ortiz, A. F. Izmaylov, J. L. Sonnenberg, D. Williams-Young, 
 F. Ding, F. Lipparini, F. Egidi, J. Goings, B. Peng, A. Petrone, 
 T. Henderson, D. Ranasinghe, V. G. Zakrzewski, J. Gao, N. Rega, 
 G. Zheng, W. Liang, M. Hada, M. Ehara, K. Toyota, R. Fukuda, 
 J. Hasegawa, M. Ishida, T. Nakajima, Y. Honda, O. Kitao, H. Nakai, 
 T. Vreven, K. Throssell, J. A. Montgomery, Jr., J. E. Peralta, 
 F. Ogliaro, M. J. Bearpark, J. J. Heyd, E. N. Brothers, K. N. Kudin, 
 V. N. Staroverov, T. A. Keith, R. Kobayashi, J. Normand, 
 K. Raghavachari, A. P. Rendell, J. C. Burant, S. S. Iyengar, 
 J. Tomasi, M. Cossi, J. M. Millam, M. Klene, C. Adamo, R. Cammi, 
 J. W. Ochterski, R. L. Martin, K. Morokuma, O. Farkas, 
 J. B. Foresman, and D. J. Fox, Gaussian, Inc., Wallingford CT, 2019.
 
 ******************************************
 Gaussian 16:  ES64L-G16RevC.01  3-Jul-2019
                29-Jul-2023 
 ******************************************
 %mem=48GB
 ----------------------------------
 # pm6 scrf=(iefpcm, solvent=water)
 ----------------------------------
 1/38=1,172=1/1;
 2/12=2,17=6,18=5,40=1/2;
 3/5=2,25=1,41=3900000,70=2201,72=1/1,2,3;
 4/35=1/1;
 5/5=2,35=1,38=5,53=1/2;
 6/7=2,8=2,9=2,10=2,28=1/1;
 99/5=1,9=1/99;
 ---------------------------
 MA1_1_b3lyp.out,Ph,Me,H,OMe
 ---------------------------
 Symbolic Z-matrix:
 Charge =  0 Multiplicity = 1
 C                    -0.0314   -1.0622   -0.0457 
 C                    -1.1718   -0.2703   -0.5653 
 O                    -1.5707    0.8059   -0.1562 
 C                     0.942    -0.6083    0.8038 
 C                     2.1753    1.3003   -1.2648 
 H                     1.9733    2.2198   -0.7091 
 H                     3.1363    1.4056   -1.7767 
 H                     1.3908    1.1632   -2.0139 
 N                     2.2098    0.1483   -0.3531 
 H                     2.526    -0.6433   -0.9194 
 H                     2.9992    0.3074    0.283 
 C                     1.7441   -1.721     1.498 
 C                     2.3042   -2.7901    0.7701 
 C                     3.0382   -3.7986    1.4027 
 C                     3.2277   -3.7624    2.7799 
 C                     2.6825   -2.72      3.5226 
 C                     1.9489   -1.7111    2.8881 
 H                     2.1823   -2.8485   -0.3083 
 H                     3.4602   -4.6109    0.8169 
 H                     3.7959   -4.5456    3.2742 
 H                     2.8222   -2.6894    4.6002 
 H                     1.5292   -0.9261    3.511 
 C                     0.6922    0.672     1.6352 
 H                     0.3917    1.5249    1.0195 
 H                    -0.0929    0.4928    2.3786 
 H                     1.5992    0.9843    2.1667 
 H                    -0.0111   -2.0796   -0.4201 
 O                    -1.718    -0.979    -1.5915 
 C                    -2.8417   -0.3394   -2.1963 
 H                    -3.2012   -0.9806   -3.0059 
 H                    -3.6501   -0.2149   -1.469 
 H                    -2.5508    0.6257   -2.6231 
 
                          Input orientation:                          
 ---------------------------------------------------------------------
 Center     Atomic      Atomic             Coordinates (Angstroms)
 Number     Number       Type             X           Y           Z
 ---------------------------------------------------------------------
      1          6           0       -0.031400   -1.062200   -0.045700
      2          6           0       -1.171800   -0.270300   -0.565300
      3          8           0       -1.570700    0.805900   -0.156200
      4          6           0        0.942000   -0.608300    0.803800
      5          6           0        2.175300    1.300300   -1.264800
      6          1           0        1.973300    2.219800   -0.709100
      7          1           0        3.136300    1.405600   -1.776700
      8          1           0        1.390800    1.163200   -2.013900
      9          7           0        2.209800    0.148300   -0.353100
     10          1           0        2.526000   -0.643300   -0.919400
     11          1           0        2.999200    0.307400    0.283000
     12          6           0        1.744100   -1.721000    1.498000
     13          6           0        2.304200   -2.790100    0.770100
     14          6           0        3.038200   -3.798600    1.402700
     15          6           0        3.227700   -3.762400    2.779900
     16          6           0        2.682500   -2.720000    3.522600
     17          6           0        1.948900   -1.711100    2.888100
     18          1           0        2.182300   -2.848500   -0.308300
     19          1           0        3.460200   -4.610900    0.816900
     20          1           0        3.795900   -4.545600    3.274200
     21          1           0        2.822200   -2.689400    4.600200
     22          1           0        1.529200   -0.926100    3.511000
     23          6           0        0.692200    0.672000    1.635200
     24          1           0        0.391700    1.524900    1.019500
     25          1           0       -0.092900    0.492800    2.378600
     26          1           0        1.599200    0.984300    2.166700
     27          1           0       -0.011100   -2.079600   -0.420100
     28          8           0       -1.718000   -0.979000   -1.591500
     29          6           0       -2.841700   -0.339400   -2.196300
     30          1           0       -3.201200   -0.980600   -3.005900
     31          1           0       -3.650100   -0.214900   -1.469000
     32          1           0       -2.550800    0.625700   -2.623100
 ---------------------------------------------------------------------
                    Distance matrix (angstroms):
                    1          2          3          4          5
     1  C    0.000000
     2  C    1.482431   0.000000
     3  O    2.423108   1.218479   0.000000
     4  C    1.369373   2.541029   3.038951   0.000000
     5  C    3.455016   3.762866   3.937758   3.072928   0.000000
     6  H    3.902620   4.014091   3.855483   3.369065   1.093200
     7  H    4.372725   4.778688   5.014131   3.940777   1.093915
     8  H    3.293762   3.274184   3.514142   3.358432   1.093338
     9  N    2.565693   3.414011   3.842315   1.875681   1.469521
    10  H    2.734799   3.733395   4.411984   2.340876   2.004962
    11  H    3.341913   4.295415   4.617942   2.311236   2.015030
    12  C    2.443241   3.855413   4.484362   1.537329   4.116704
    13  C    3.017647   4.496138   5.366945   2.572348   4.570427
    14  C    4.359838   5.834897   6.698772   3.864033   5.818843
    15  C    5.088893   6.537639   7.246702   4.367808   6.564912
    16  C    4.779782   6.129240   6.637413   3.857524   6.272102
    17  C    3.598589   4.872437   5.290618   2.564044   5.134819
    18  H    2.856623   4.238296   5.240495   2.791703   4.257638
    19  H    5.052586   6.496669   7.456447   4.728880   6.397400
    20  H    6.148499   7.595920   8.319050   5.454352   7.576504
    21  H    5.689921   6.963223   7.357855   4.720040   7.122809
    22  H    3.886401   4.933730   5.104661   2.788321   5.308726
    23  C    2.521204   3.033913   2.889249   1.546866   3.317280
    24  H    2.829620   2.859872   2.397967   2.213572   2.906837
    25  H    2.880805   3.226902   2.950786   2.182529   4.367053
    26  H    3.426621   4.088556   3.933949   2.196766   3.493843
    27  H    1.084292   2.154501   3.290609   2.138002   4.113099
    28  O    2.289332   1.361498   2.295136   3.598678   4.523243
    29  C    3.611829   2.335273   2.662548   4.836248   5.359720
    30  H    4.337865   3.252617   3.737767   5.640791   6.094316
    31  H    3.979785   2.638506   2.662589   5.138849   6.022692
    32  H    3.979871   2.634198   2.660576   5.046390   4.963475
                    6          7          8          9         10
     6  H    0.000000
     7  H    1.776305   0.000000
     8  H    1.777136   1.778143   0.000000
     9  N    2.115131   2.113254   2.111644   0.000000
    10  H    2.923533   2.303350   2.397927   1.023381   0.000000
    11  H    2.386212   2.338205   2.931739   1.026201   1.604218
    12  C    4.522580   4.736825   4.558165   2.671653   2.759824
    13  C    5.234179   4.978200   4.920725   3.147171   2.740868
    14  C    6.466440   6.099336   6.245522   4.398534   3.951002
    15  C    7.037994   6.890514   7.114510   5.113256   4.889375
    16  C    6.543078   6.731203   6.884807   4.844754   4.905970
    17  C    5.328454   5.734466   5.709876   3.745773   3.996285
    18  H    5.088417   4.600400   4.430494   2.997261   2.313975
    19  H    7.155278   6.559721   6.755448   5.057903   4.430499
    20  H    8.059726   7.833482   8.144870   6.140498   5.867442
    21  H    7.280765   7.585021   7.787025   5.741320   5.894085
    22  H    5.282344   5.998280   5.908371   4.068024   4.549948
    23  C    3.087498   4.260617   3.747699   2.555525   3.408639
    24  H    2.443850   3.919923   3.214116   2.661681   3.607722
    25  H    4.097024   5.341110   4.684534   3.589330   4.361899
    26  H    3.152243   4.253302   4.189612   2.724173   3.609994
    27  H    4.744070   4.888058   3.875729   3.146494   2.957894
    28  O    4.963532   5.411547   3.798958   4.269901   4.309982
    29  C    5.652034   6.241600   4.495012   5.399342   5.525851
    30  H    6.503330   6.882499   5.163953   6.131124   6.104758
    31  H    6.174774   6.983976   5.254212   5.976251   6.215287
    32  H    5.164497   5.802391   4.024455   5.295670   5.503349
                   11         12         13         14         15
    11  H    0.000000
    12  C    2.676921   0.000000
    13  C    3.211666   1.409441   0.000000
    14  C    4.256111   2.449530   1.398575   0.000000
    15  C    4.780167   2.830486   2.416095   1.390648   0.000000
    16  C    4.445274   2.444913   2.779259   2.404969   1.391202
    17  C    3.458904   1.405140   2.403415   2.783998   2.419684
    18  H    3.313105   2.173935   1.086838   2.136065   3.386009
    19  H    4.968626   3.429347   2.157276   1.086774   2.151134
    20  H    5.756181   3.917031   3.402568   2.152819   1.086548
    21  H    5.258360   3.423995   3.866281   3.391310   2.151570
    22  H    3.755317   2.174906   3.404064   3.869530   3.385854
    23  C    2.698820   2.617588   3.915747   5.054111   5.234788
    24  H    2.970487   3.548777   4.726424   5.957387   6.252795
    25  H    3.739919   3.008477   4.371589   5.401137   5.412407
    26  H    2.442646   2.790485   4.085782   5.052776   5.055609
    27  H    3.905640   2.624582   2.698518   3.946618   4.854034
    28  O    5.236464   4.699118   5.003532   6.287831   7.163547
    29  C    6.378197   6.048655   6.425399   7.713112   8.562541
    30  H    7.135879   6.729732   6.916784   8.142910   9.085409
    31  H    6.896049   6.337888   6.862865   8.113133   8.828479
    32  H    6.272897   6.398174   6.837582   8.186478   9.046485
                   16         17         18         19         20
    16  C    0.000000
    17  C    1.399514   0.000000
    18  H    3.865554   3.400754   0.000000
    19  H    3.391332   3.870754   2.450542   0.000000
    20  H    2.152714   3.405124   4.279972   2.480984   0.000000
    21  H    1.087048   2.156620   4.952591   4.290986   2.480292
    22  H    2.132677   1.086452   4.325415   4.956278   4.277240
    23  C    4.362251   2.971232   4.288532   6.020006   6.288293
    24  H    5.434377   4.048238   4.908760   6.863292   7.315957
    25  H    4.397006   3.047247   4.853890   6.411800   6.427312
    26  H    4.090702   2.812097   4.599564   6.049094   6.052424
    27  H    4.817725   3.862846   2.326953   4.470746   5.849979
    28  O    6.967747   5.835147   4.511538   6.767928   8.173051
    29  C    8.299992   7.119167   5.924585   8.187737   9.574770
    30  H    8.959060   7.861068   6.304615   8.495124  10.055262
    31  H    8.443543   7.250637   6.503842   8.666402   9.833404
    32  H    8.737893   7.488742   6.311149   8.682609  10.089653
                   21         22         23         24         25
    21  H    0.000000
    22  H    2.442833   0.000000
    23  C    4.962573   2.602522   0.000000
    24  H    6.040618   3.675443   1.093995   0.000000
    25  H    4.853835   2.434505   1.095965   1.774041   0.000000
    26  H    4.573152   2.337022   1.096664   1.751106   1.774733
    27  H    5.796797   4.376829   3.505737   3.902194   3.802191
    28  O    7.866132   6.048356   4.352753   4.187800   4.535288
    29  C    9.153943   7.212646   5.309592   4.926648   5.401682
    30  H    9.851604   8.052927   6.279288   5.948975   6.389466
    31  H    9.211352   7.220205   5.410935   5.055263   5.287583
    32  H    9.593492   7.528723   5.352785   4.768165   5.574580
                   26         27         28         29         30
    26  H    0.000000
    27  H    4.321121   0.000000
    28  O    5.383533   2.344569   0.000000
    29  C    6.364711   3.767689   1.427436   0.000000
    30  H    7.325330   4.250988   2.049491   1.093540   0.000000
    31  H    6.497041   4.221329   2.081313   1.094521   1.774787
    32  H    6.347699   4.315314   2.081542   1.094623   1.774755
                   31         32
    31  H    0.000000
    32  H    1.801948   0.000000
 Stoichiometry    C12H17NO2
 Framework group  C1[X(C12H17NO2)]
 Deg. of freedom    90
 Full point group                 C1      NOp   1
 Largest Abelian subgroup         C1      NOp   1
 Largest concise Abelian subgroup C1      NOp   1
                         Standard orientation:                         
 ---------------------------------------------------------------------
 Center     Atomic      Atomic             Coordinates (Angstroms)
 Number     Number       Type             X           Y           Z
 ---------------------------------------------------------------------
      1          6           0       -0.879275   -0.554589   -0.057444
      2          6           0       -2.310968   -0.566975    0.326876
      3          8           0       -2.839018    0.060483    1.228069
      4          6           0        0.054617    0.360563    0.349405
      5          6           0       -1.209417    2.684067   -1.214705
      6          1           0       -1.447930    3.295970   -0.340765
      7          1           0       -0.913645    3.345724   -2.034082
      8          1           0       -2.105668    2.133526   -1.513077
      9          7           0       -0.121775    1.746697   -0.901874
     10          1           0        0.127557    1.305570   -1.791002
     11          1           0        0.701842    2.320935   -0.689755
     12          6           0        1.510573   -0.089698    0.147328
     13          6           0        1.957701   -0.608534   -1.084505
     14          6           0        3.283982   -1.012614   -1.268104
     15          6           0        4.194592   -0.908936   -0.222187
     16          6           0        3.778416   -0.403401    1.005280
     17          6           0        2.451111    0.001288    1.187293
     18          1           0        1.276304   -0.698557   -1.926414
     19          1           0        3.602290   -1.408039   -2.229038
     20          1           0        5.225120   -1.223892   -0.361474
     21          1           0        4.484142   -0.325456    1.828414
     22          1           0        2.168578    0.374956    2.167561
     23          6           0       -0.222939    1.229461    1.598714
     24          1           0       -1.177479    1.760873    1.541450
     25          1           0       -0.232262    0.604778    2.499171
     26          1           0        0.547376    1.999464    1.726712
     27          1           0       -0.611360   -1.357028   -0.735679
     28          8           0       -2.943871   -1.433708   -0.510911
     29          6           0       -4.343280   -1.557441   -0.258093
     30          1           0       -4.756783   -2.265919   -0.981214
     31          1           0       -4.518442   -1.949288    0.748759
     32          1           0       -4.844793   -0.593842   -0.392853
 ---------------------------------------------------------------------
 Rotational constants (GHZ):           1.0108137           0.3191614           0.2988232
 Standard basis: VSTO-6G (5D, 7F)
 There are    77 symmetry adapted cartesian basis functions of A   symmetry.
 There are    77 symmetry adapted basis functions of A   symmetry.
    77 basis functions,   462 primitive gaussians,    77 cartesian basis functions
    41 alpha electrons       41 beta electrons
       nuclear repulsion energy       573.7160333140 Hartrees.
 Integral buffers will be    131072 words long.
 Regular integral format.
 Two-electron integral symmetry is turned off.
 ------------------------------------------------------------------------------
 Polarizable Continuum Model (PCM)
 =================================
 Model                : PCM.
 Atomic radii         : UFF (Universal Force Field).
 Polarization charges : Total charges.
 Charge compensation  : None.
 Solution method      : On-the-fly selection.
 Cavity type          : Scaled VdW (van der Waals Surface) (Alpha=1.100).
 Cavity algorithm     : GePol (No added spheres)
                        Default sphere list used, NSphG=   32.
                        Lebedev-Laikov grids with approx.  5.0 points / Ang**2.
                        Smoothing algorithm: York/Karplus (Gamma=1.0000).
                        Polarization charges: spherical gaussians, with
                                              point-specific exponents (IZeta= 3).
                        Self-potential: point-specific (ISelfS= 7).
                        Self-field    : sphere-specific E.n sum rule (ISelfD= 2).
 Solvent              : Water, Eps=  78.355300 Eps(inf)=   1.777849
 ------------------------------------------------------------------------------
 Do NDO integrals.
 One-electron integrals computed using PRISM.
 NBasis=    77 RedAO= F EigKep=  0.00D+00  NBF=    77
 NBsUse=    77 1.00D-04 EigRej=  0.00D+00 NBFU=    77
 Simple Huckel Guess.
 Keep J ints in memory in canonical form, NReq=1871353.
 Overlap will be assumed to be unity.
 Requested convergence on RMS density matrix=1.00D-08 within 128 cycles.
 Requested convergence on MAX density matrix=1.00D-06.
 Requested convergence on             energy=1.00D-06.
 No special actions if energy rises.
 Inv3:  Mode=1 IEnd=    15787308.
 Iteration    1 A*A^-1 deviation from unit magnitude is 3.11D-15 for    549.
 Iteration    1 A*A^-1 deviation from orthogonality  is 2.95D-15 for   1839    946.
 Iteration    1 A^-1*A deviation from unit magnitude is 3.33D-15 for    549.
 Iteration    1 A^-1*A deviation from orthogonality  is 1.55D-15 for   2141   2022.
 Error on total polarization charges = -0.00036
 SCF Done:  E(RPM6) = -0.881182105284E-01 A.U. after   17 cycles
            NFock= 16  Conv=0.67D-08     -V/T= 0.9994

 **********************************************************************

            Population analysis using the SCF Density.

 **********************************************************************

 Orbital symmetries:
       Occupied  (A) (A) (A) (A) (A) (A) (A) (A) (A) (A) (A) (A)
                 (A) (A) (A) (A) (A) (A) (A) (A) (A) (A) (A) (A)
                 (A) (A) (A) (A) (A) (A) (A) (A) (A) (A) (A) (A)
                 (A) (A) (A) (A) (A)
       Virtual   (A) (A) (A) (A) (A) (A) (A) (A) (A) (A) (A) (A)
                 (A) (A) (A) (A) (A) (A) (A) (A) (A) (A) (A) (A)
                 (A) (A) (A) (A) (A) (A) (A) (A) (A) (A) (A) (A)
 The electronic state is 1-A.
 Alpha  occ. eigenvalues --   -1.19188  -1.16163  -1.12333  -1.10573  -1.03374
 Alpha  occ. eigenvalues --   -0.97374  -0.96441  -0.93620  -0.89284  -0.88157
 Alpha  occ. eigenvalues --   -0.81949  -0.78816  -0.76195  -0.69046  -0.66009
 Alpha  occ. eigenvalues --   -0.65031  -0.62975  -0.61437  -0.60119  -0.59677
 Alpha  occ. eigenvalues --   -0.58321  -0.57166  -0.55667  -0.54625  -0.52956
 Alpha  occ. eigenvalues --   -0.52064  -0.51552  -0.50691  -0.49382  -0.49284
 Alpha  occ. eigenvalues --   -0.48176  -0.47598  -0.46553  -0.44798  -0.44589
 Alpha  occ. eigenvalues --   -0.43570  -0.41682  -0.39566  -0.36699  -0.36629
 Alpha  occ. eigenvalues --   -0.32121
 Alpha virt. eigenvalues --   -0.01077   0.00186   0.02839   0.06218   0.06637
 Alpha virt. eigenvalues --    0.08799   0.11936   0.12444   0.12933   0.13645
 Alpha virt. eigenvalues --    0.15421   0.15971   0.16662   0.17367   0.17715
 Alpha virt. eigenvalues --    0.18097   0.18215   0.18549   0.18654   0.19411
 Alpha virt. eigenvalues --    0.19476   0.19645   0.19764   0.20153   0.20611
 Alpha virt. eigenvalues --    0.21085   0.21506   0.21572   0.21617   0.21861
 Alpha virt. eigenvalues --    0.22113   0.22203   0.22316   0.22713   0.24710
 Alpha virt. eigenvalues --    0.25261
          Condensed to atoms (all electrons):
               1          2          3          4          5          6
     1  C    4.766593   0.000000   0.000000   0.000000   0.000000   0.000000
     2  C    0.000000   3.271574   0.000000   0.000000   0.000000   0.000000
     3  O    0.000000   0.000000   6.666569   0.000000   0.000000   0.000000
     4  C    0.000000   0.000000   0.000000   3.496083   0.000000   0.000000
     5  C    0.000000   0.000000   0.000000   0.000000   4.372701   0.000000
     6  H    0.000000   0.000000   0.000000   0.000000   0.000000   0.826144
     7  H    0.000000   0.000000   0.000000   0.000000   0.000000   0.000000
     8  H    0.000000   0.000000   0.000000   0.000000   0.000000   0.000000
     9  N    0.000000   0.000000   0.000000   0.000000   0.000000   0.000000
    10  H    0.000000   0.000000   0.000000   0.000000   0.000000   0.000000
    11  H    0.000000   0.000000   0.000000   0.000000   0.000000   0.000000
    12  C    0.000000   0.000000   0.000000   0.000000   0.000000   0.000000
    13  C    0.000000   0.000000   0.000000   0.000000   0.000000   0.000000
    14  C    0.000000   0.000000   0.000000   0.000000   0.000000   0.000000
    15  C    0.000000   0.000000   0.000000   0.000000   0.000000   0.000000
    16  C    0.000000   0.000000   0.000000   0.000000   0.000000   0.000000
    17  C    0.000000   0.000000   0.000000   0.000000   0.000000   0.000000
    18  H    0.000000   0.000000   0.000000   0.000000   0.000000   0.000000
    19  H    0.000000   0.000000   0.000000   0.000000   0.000000   0.000000
    20  H    0.000000   0.000000   0.000000   0.000000   0.000000   0.000000
    21  H    0.000000   0.000000   0.000000   0.000000   0.000000   0.000000
    22  H    0.000000   0.000000   0.000000   0.000000   0.000000   0.000000
    23  C    0.000000   0.000000   0.000000   0.000000   0.000000   0.000000
    24  H    0.000000   0.000000   0.000000   0.000000   0.000000   0.000000
    25  H    0.000000   0.000000   0.000000   0.000000   0.000000   0.000000
    26  H    0.000000   0.000000   0.000000   0.000000   0.000000   0.000000
    27  H    0.000000   0.000000   0.000000   0.000000   0.000000   0.000000
    28  O    0.000000   0.000000   0.000000   0.000000   0.000000   0.000000
    29  C    0.000000   0.000000   0.000000   0.000000   0.000000   0.000000
    30  H    0.000000   0.000000   0.000000   0.000000   0.000000   0.000000
    31  H    0.000000   0.000000   0.000000   0.000000   0.000000   0.000000
    32  H    0.000000   0.000000   0.000000   0.000000   0.000000   0.000000
               7          8          9         10         11         12
     1  C    0.000000   0.000000   0.000000   0.000000   0.000000   0.000000
     2  C    0.000000   0.000000   0.000000   0.000000   0.000000   0.000000
     3  O    0.000000   0.000000   0.000000   0.000000   0.000000   0.000000
     4  C    0.000000   0.000000   0.000000   0.000000   0.000000   0.000000
     5  C    0.000000   0.000000   0.000000   0.000000   0.000000   0.000000
     6  H    0.000000   0.000000   0.000000   0.000000   0.000000   0.000000
     7  H    0.836000   0.000000   0.000000   0.000000   0.000000   0.000000
     8  H    0.000000   0.825987   0.000000   0.000000   0.000000   0.000000
     9  N    0.000000   0.000000   5.314519   0.000000   0.000000   0.000000
    10  H    0.000000   0.000000   0.000000   0.776697   0.000000   0.000000
    11  H    0.000000   0.000000   0.000000   0.000000   0.779889   0.000000
    12  C    0.000000   0.000000   0.000000   0.000000   0.000000   4.112986
    13  C    0.000000   0.000000   0.000000   0.000000   0.000000   0.000000
    14  C    0.000000   0.000000   0.000000   0.000000   0.000000   0.000000
    15  C    0.000000   0.000000   0.000000   0.000000   0.000000   0.000000
    16  C    0.000000   0.000000   0.000000   0.000000   0.000000   0.000000
    17  C    0.000000   0.000000   0.000000   0.000000   0.000000   0.000000
    18  H    0.000000   0.000000   0.000000   0.000000   0.000000   0.000000
    19  H    0.000000   0.000000   0.000000   0.000000   0.000000   0.000000
    20  H    0.000000   0.000000   0.000000   0.000000   0.000000   0.000000
    21  H    0.000000   0.000000   0.000000   0.000000   0.000000   0.000000
    22  H    0.000000   0.000000   0.000000   0.000000   0.000000   0.000000
    23  C    0.000000   0.000000   0.000000   0.000000   0.000000   0.000000
    24  H    0.000000   0.000000   0.000000   0.000000   0.000000   0.000000
    25  H    0.000000   0.000000   0.000000   0.000000   0.000000   0.000000
    26  H    0.000000   0.000000   0.000000   0.000000   0.000000   0.000000
    27  H    0.000000   0.000000   0.000000   0.000000   0.000000   0.000000
    28  O    0.000000   0.000000   0.000000   0.000000   0.000000   0.000000
    29  C    0.000000   0.000000   0.000000   0.000000   0.000000   0.000000
    30  H    0.000000   0.000000   0.000000   0.000000   0.000000   0.000000
    31  H    0.000000   0.000000   0.000000   0.000000   0.000000   0.000000
    32  H    0.000000   0.000000   0.000000   0.000000   0.000000   0.000000
              13         14         15         16         17         18
     1  C    0.000000   0.000000   0.000000   0.000000   0.000000   0.000000
     2  C    0.000000   0.000000   0.000000   0.000000   0.000000   0.000000
     3  O    0.000000   0.000000   0.000000   0.000000   0.000000   0.000000
     4  C    0.000000   0.000000   0.000000   0.000000   0.000000   0.000000
     5  C    0.000000   0.000000   0.000000   0.000000   0.000000   0.000000
     6  H    0.000000   0.000000   0.000000   0.000000   0.000000   0.000000
     7  H    0.000000   0.000000   0.000000   0.000000   0.000000   0.000000
     8  H    0.000000   0.000000   0.000000   0.000000   0.000000   0.000000
     9  N    0.000000   0.000000   0.000000   0.000000   0.000000   0.000000
    10  H    0.000000   0.000000   0.000000   0.000000   0.000000   0.000000
    11  H    0.000000   0.000000   0.000000   0.000000   0.000000   0.000000
    12  C    0.000000   0.000000   0.000000   0.000000   0.000000   0.000000
    13  C    4.138682   0.000000   0.000000   0.000000   0.000000   0.000000
    14  C    0.000000   4.155702   0.000000   0.000000   0.000000   0.000000
    15  C    0.000000   0.000000   4.133503   0.000000   0.000000   0.000000
    16  C    0.000000   0.000000   0.000000   4.157422   0.000000   0.000000
    17  C    0.000000   0.000000   0.000000   0.000000   4.135106   0.000000
    18  H    0.000000   0.000000   0.000000   0.000000   0.000000   0.844592
    19  H    0.000000   0.000000   0.000000   0.000000   0.000000   0.000000
    20  H    0.000000   0.000000   0.000000   0.000000   0.000000   0.000000
    21  H    0.000000   0.000000   0.000000   0.000000   0.000000   0.000000
    22  H    0.000000   0.000000   0.000000   0.000000   0.000000   0.000000
    23  C    0.000000   0.000000   0.000000   0.000000   0.000000   0.000000
    24  H    0.000000   0.000000   0.000000   0.000000   0.000000   0.000000
    25  H    0.000000   0.000000   0.000000   0.000000   0.000000   0.000000
    26  H    0.000000   0.000000   0.000000   0.000000   0.000000   0.000000
    27  H    0.000000   0.000000   0.000000   0.000000   0.000000   0.000000
    28  O    0.000000   0.000000   0.000000   0.000000   0.000000   0.000000
    29  C    0.000000   0.000000   0.000000   0.000000   0.000000   0.000000
    30  H    0.000000   0.000000   0.000000   0.000000   0.000000   0.000000
    31  H    0.000000   0.000000   0.000000   0.000000   0.000000   0.000000
    32  H    0.000000   0.000000   0.000000   0.000000   0.000000   0.000000
              19         20         21         22         23         24
     1  C    0.000000   0.000000   0.000000   0.000000   0.000000   0.000000
     2  C    0.000000   0.000000   0.000000   0.000000   0.000000   0.000000
     3  O    0.000000   0.000000   0.000000   0.000000   0.000000   0.000000
     4  C    0.000000   0.000000   0.000000   0.000000   0.000000   0.000000
     5  C    0.000000   0.000000   0.000000   0.000000   0.000000   0.000000
     6  H    0.000000   0.000000   0.000000   0.000000   0.000000   0.000000
     7  H    0.000000   0.000000   0.000000   0.000000   0.000000   0.000000
     8  H    0.000000   0.000000   0.000000   0.000000   0.000000   0.000000
     9  N    0.000000   0.000000   0.000000   0.000000   0.000000   0.000000
    10  H    0.000000   0.000000   0.000000   0.000000   0.000000   0.000000
    11  H    0.000000   0.000000   0.000000   0.000000   0.000000   0.000000
    12  C    0.000000   0.000000   0.000000   0.000000   0.000000   0.000000
    13  C    0.000000   0.000000   0.000000   0.000000   0.000000   0.000000
    14  C    0.000000   0.000000   0.000000   0.000000   0.000000   0.000000
    15  C    0.000000   0.000000   0.000000   0.000000   0.000000   0.000000
    16  C    0.000000   0.000000   0.000000   0.000000   0.000000   0.000000
    17  C    0.000000   0.000000   0.000000   0.000000   0.000000   0.000000
    18  H    0.000000   0.000000   0.000000   0.000000   0.000000   0.000000
    19  H    0.842298   0.000000   0.000000   0.000000   0.000000   0.000000
    20  H    0.000000   0.844737   0.000000   0.000000   0.000000   0.000000
    21  H    0.000000   0.000000   0.842522   0.000000   0.000000   0.000000
    22  H    0.000000   0.000000   0.000000   0.841795   0.000000   0.000000
    23  C    0.000000   0.000000   0.000000   0.000000   4.550930   0.000000
    24  H    0.000000   0.000000   0.000000   0.000000   0.000000   0.812731
    25  H    0.000000   0.000000   0.000000   0.000000   0.000000   0.000000
    26  H    0.000000   0.000000   0.000000   0.000000   0.000000   0.000000
    27  H    0.000000   0.000000   0.000000   0.000000   0.000000   0.000000
    28  O    0.000000   0.000000   0.000000   0.000000   0.000000   0.000000
    29  C    0.000000   0.000000   0.000000   0.000000   0.000000   0.000000
    30  H    0.000000   0.000000   0.000000   0.000000   0.000000   0.000000
    31  H    0.000000   0.000000   0.000000   0.000000   0.000000   0.000000
    32  H    0.000000   0.000000   0.000000   0.000000   0.000000   0.000000
              25         26         27         28         29         30
     1  C    0.000000   0.000000   0.000000   0.000000   0.000000   0.000000
     2  C    0.000000   0.000000   0.000000   0.000000   0.000000   0.000000
     3  O    0.000000   0.000000   0.000000   0.000000   0.000000   0.000000
     4  C    0.000000   0.000000   0.000000   0.000000   0.000000   0.000000
     5  C    0.000000   0.000000   0.000000   0.000000   0.000000   0.000000
     6  H    0.000000   0.000000   0.000000   0.000000   0.000000   0.000000
     7  H    0.000000   0.000000   0.000000   0.000000   0.000000   0.000000
     8  H    0.000000   0.000000   0.000000   0.000000   0.000000   0.000000
     9  N    0.000000   0.000000   0.000000   0.000000   0.000000   0.000000
    10  H    0.000000   0.000000   0.000000   0.000000   0.000000   0.000000
    11  H    0.000000   0.000000   0.000000   0.000000   0.000000   0.000000
    12  C    0.000000   0.000000   0.000000   0.000000   0.000000   0.000000
    13  C    0.000000   0.000000   0.000000   0.000000   0.000000   0.000000
    14  C    0.000000   0.000000   0.000000   0.000000   0.000000   0.000000
    15  C    0.000000   0.000000   0.000000   0.000000   0.000000   0.000000
    16  C    0.000000   0.000000   0.000000   0.000000   0.000000   0.000000
    17  C    0.000000   0.000000   0.000000   0.000000   0.000000   0.000000
    18  H    0.000000   0.000000   0.000000   0.000000   0.000000   0.000000
    19  H    0.000000   0.000000   0.000000   0.000000   0.000000   0.000000
    20  H    0.000000   0.000000   0.000000   0.000000   0.000000   0.000000
    21  H    0.000000   0.000000   0.000000   0.000000   0.000000   0.000000
    22  H    0.000000   0.000000   0.000000   0.000000   0.000000   0.000000
    23  C    0.000000   0.000000   0.000000   0.000000   0.000000   0.000000
    24  H    0.000000   0.000000   0.000000   0.000000   0.000000   0.000000
    25  H    0.824517   0.000000   0.000000   0.000000   0.000000   0.000000
    26  H    0.000000   0.833542   0.000000   0.000000   0.000000   0.000000
    27  H    0.000000   0.000000   0.803052   0.000000   0.000000   0.000000
    28  O    0.000000   0.000000   0.000000   6.442133   0.000000   0.000000
    29  C    0.000000   0.000000   0.000000   0.000000   4.208907   0.000000
    30  H    0.000000   0.000000   0.000000   0.000000   0.000000   0.837898
    31  H    0.000000   0.000000   0.000000   0.000000   0.000000   0.000000
    32  H    0.000000   0.000000   0.000000   0.000000   0.000000   0.000000
              31         32
     1  C    0.000000   0.000000
     2  C    0.000000   0.000000
     3  O    0.000000   0.000000
     4  C    0.000000   0.000000
     5  C    0.000000   0.000000
     6  H    0.000000   0.000000
     7  H    0.000000   0.000000
     8  H    0.000000   0.000000
     9  N    0.000000   0.000000
    10  H    0.000000   0.000000
    11  H    0.000000   0.000000
    12  C    0.000000   0.000000
    13  C    0.000000   0.000000
    14  C    0.000000   0.000000
    15  C    0.000000   0.000000
    16  C    0.000000   0.000000
    17  C    0.000000   0.000000
    18  H    0.000000   0.000000
    19  H    0.000000   0.000000
    20  H    0.000000   0.000000
    21  H    0.000000   0.000000
    22  H    0.000000   0.000000
    23  C    0.000000   0.000000
    24  H    0.000000   0.000000
    25  H    0.000000   0.000000
    26  H    0.000000   0.000000
    27  H    0.000000   0.000000
    28  O    0.000000   0.000000
    29  C    0.000000   0.000000
    30  H    0.000000   0.000000
    31  H    0.852149   0.000000
    32  H    0.000000   0.852041
 Mulliken charges:
               1
     1  C   -0.766593
     2  C    0.728426
     3  O   -0.666569
     4  C    0.503917
     5  C   -0.372701
     6  H    0.173856
     7  H    0.164000
     8  H    0.174013
     9  N   -0.314519
    10  H    0.223303
    11  H    0.220111
    12  C   -0.112986
    13  C   -0.138682
    14  C   -0.155702
    15  C   -0.133503
    16  C   -0.157422
    17  C   -0.135106
    18  H    0.155408
    19  H    0.157702
    20  H    0.155263
    21  H    0.157478
    22  H    0.158205
    23  C   -0.550930
    24  H    0.187269
    25  H    0.175483
    26  H    0.166458
    27  H    0.196948
    28  O   -0.442133
    29  C   -0.208907
    30  H    0.162102
    31  H    0.147851
    32  H    0.147959
 Sum of Mulliken charges =  -0.00000
 Mulliken charges with hydrogens summed into heavy atoms:
               1
     1  C   -0.569645
     2  C    0.728426
     3  O   -0.666569
     4  C    0.503917
     5  C    0.139168
     9  N    0.128896
    12  C   -0.112986
    13  C    0.016726
    14  C    0.002000
    15  C    0.021760
    16  C    0.000056
    17  C    0.023099
    23  C   -0.021720
    28  O   -0.442133
    29  C    0.249005
 Charge=             -0.0000 electrons
 Dipole moment (field-independent basis, Debye):
    X=              4.5263    Y=              4.7052    Z=             -4.0113  Tot=              7.6627
 N-N= 5.737160333140D+02 E-N=-9.481446976982D+02  KE=-1.463908879554D+02
 Unable to Open any file for archive entry.
 1\1\GINC-NODE-004\SP\RPM6\ZDO\C12H17N1O2\TLA25\29-Jul-2023\0\\# pm6 sc
 rf=(iefpcm, solvent=water)\\MA1_1_b3lyp.out,Ph,Me,H,OMe\\0,1\C,0,-0.03
 14,-1.0622,-0.0457\C,0,-1.1718,-0.2703,-0.5653\O,0,-1.5707,0.8059,-0.1
 562\C,0,0.942,-0.6083,0.8038\C,0,2.1753,1.3003,-1.2648\H,0,1.9733,2.21
 98,-0.7091\H,0,3.1363,1.4056,-1.7767\H,0,1.3908,1.1632,-2.0139\N,0,2.2
 098,0.1483,-0.3531\H,0,2.526,-0.6433,-0.9194\H,0,2.9992,0.3074,0.283\C
 ,0,1.7441,-1.721,1.498\C,0,2.3042,-2.7901,0.7701\C,0,3.0382,-3.7986,1.
 4027\C,0,3.2277,-3.7624,2.7799\C,0,2.6825,-2.72,3.5226\C,0,1.9489,-1.7
 111,2.8881\H,0,2.1823,-2.8485,-0.3083\H,0,3.4602,-4.6109,0.8169\H,0,3.
 7959,-4.5456,3.2742\H,0,2.8222,-2.6894,4.6002\H,0,1.5292,-0.9261,3.511
 \C,0,0.6922,0.672,1.6352\H,0,0.3917,1.5249,1.0195\H,0,-0.0929,0.4928,2
 .3786\H,0,1.5992,0.9843,2.1667\H,0,-0.0111,-2.0796,-0.4201\O,0,-1.718,
 -0.979,-1.5915\C,0,-2.8417,-0.3394,-2.1963\H,0,-3.2012,-0.9806,-3.0059
 \H,0,-3.6501,-0.2149,-1.469\H,0,-2.5508,0.6257,-2.6231\\Version=ES64L-
 G16RevC.01\State=1-A\HF=-0.0881182\RMSD=6.693e-09\Dipole=2.9981051,0.1
 082045,-0.2971206\PG=C01 [X(C12H17N1O2)]\\@
 The archive entry for this job was punched.


 WHAT, THEN, IS TIME?  IF NO ONE ASKS ME, I KNOW WHAT IT IS.
 IF I WISH TO EXPLAIN WHAT IT IS TO HIM WHO ASKS ME, I DO NOT KNOW.
                                   -- ST. AUGUSTINE (FIFTH CENTURY)
 Job cpu time:       0 days  0 hours  0 minutes 25.0 seconds.
 Elapsed time:       0 days  0 hours  0 minutes  2.5 seconds.
 File lengths (MBytes):  RWF=     96 Int=      0 D2E=      0 Chk=      3 Scr=      1
 Normal termination of Gaussian 16 at Sat Jul 29 12:32:59 2023.
