Unloading slurm/anatra/current
  ERROR: No such file or directory on
    '/cm/local/modulefiles/slurm/anatra/current'
environment: line 0: unalias: gv: not found
environment: line 0: unalias: sl: not found
 Entering Gaussian System, Link 0=g16
 Initial command:
 /apps/gaussian/g16/C.01/g16/l1.exe "/local/jobs/1152771/Gau-1530302.inp" -scrdir="/local/jobs/1152771/"
 Entering Link 1 = /apps/gaussian/g16/C.01/g16/l1.exe PID=   1530305.
  
 Copyright (c) 1988-2019, Gaussian, Inc.  All Rights Reserved.
  
 This is part of the Gaussian(R) 16 program.  It is based on
 the Gaussian(R) 09 system (copyright 2009, Gaussian, Inc.),
 the Gaussian(R) 03 system (copyright 2003, Gaussian, Inc.),
 the Gaussian(R) 98 system (copyright 1998, Gaussian, Inc.),
 the Gaussian(R) 94 system (copyright 1995, Gaussian, Inc.),
 the Gaussian 92(TM) system (copyright 1992, Gaussian, Inc.),
 the Gaussian 90(TM) system (copyright 1990, Gaussian, Inc.),
 the Gaussian 88(TM) system (copyright 1988, Gaussian, Inc.),
 the Gaussian 86(TM) system (copyright 1986, Carnegie Mellon
 University), and the Gaussian 82(TM) system (copyright 1983,
 Carnegie Mellon University). Gaussian is a federally registered
 trademark of Gaussian, Inc.
  
 This software contains proprietary and confidential information,
 including trade secrets, belonging to Gaussian, Inc.
  
 This software is provided under written license and may be
 used, copied, transmitted, or stored only in accord with that
 written license.
  
 The following legend is applicable only to US Government
 contracts under FAR:
  
                    RESTRICTED RIGHTS LEGEND
  
 Use, reproduction and disclosure by the US Government is
 subject to restrictions as set forth in subparagraphs (a)
 and (c) of the Commercial Computer Software - Restricted
 Rights clause in FAR 52.227-19.
  
 Gaussian, Inc.
 340 Quinnipiac St., Bldg. 40, Wallingford CT 06492
  
  
 ---------------------------------------------------------------
 Warning -- This program may not be used in any manner that
 competes with the business of Gaussian, Inc. or will provide
 assistance to any competitor of Gaussian, Inc.  The licensee
 of this program is prohibited from giving any competitor of
 Gaussian, Inc. access to this program.  By using this program,
 the user acknowledges that Gaussian, Inc. is engaged in the
 business of creating and licensing software in the field of
 computational chemistry and represents and warrants to the
 licensee that it is not a competitor of Gaussian, Inc. and that
 it will not use this program in any manner prohibited above.
 ---------------------------------------------------------------
  

 Cite this work as:
 Gaussian 16, Revision C.01,
 M. J. Frisch, G. W. Trucks, H. B. Schlegel, G. E. Scuseria, 
 M. A. Robb, J. R. Cheeseman, G. Scalmani, V. Barone, 
 G. A. Petersson, H. Nakatsuji, X. Li, M. Caricato, A. V. Marenich, 
 J. Bloino, B. G. Janesko, R. Gomperts, B. Mennucci, H. P. Hratchian, 
 J. V. Ortiz, A. F. Izmaylov, J. L. Sonnenberg, D. Williams-Young, 
 F. Ding, F. Lipparini, F. Egidi, J. Goings, B. Peng, A. Petrone, 
 T. Henderson, D. Ranasinghe, V. G. Zakrzewski, J. Gao, N. Rega, 
 G. Zheng, W. Liang, M. Hada, M. Ehara, K. Toyota, R. Fukuda, 
 J. Hasegawa, M. Ishida, T. Nakajima, Y. Honda, O. Kitao, H. Nakai, 
 T. Vreven, K. Throssell, J. A. Montgomery, Jr., J. E. Peralta, 
 F. Ogliaro, M. J. Bearpark, J. J. Heyd, E. N. Brothers, K. N. Kudin, 
 V. N. Staroverov, T. A. Keith, R. Kobayashi, J. Normand, 
 K. Raghavachari, A. P. Rendell, J. C. Burant, S. S. Iyengar, 
 J. Tomasi, M. Cossi, J. M. Millam, M. Klene, C. Adamo, R. Cammi, 
 J. W. Ochterski, R. L. Martin, K. Morokuma, O. Farkas, 
 J. B. Foresman, and D. J. Fox, Gaussian, Inc., Wallingford CT, 2019.
 
 ******************************************
 Gaussian 16:  ES64L-G16RevC.01  3-Jul-2019
                22-Dec-2023 
 ******************************************
 %chk=allylic-1_1_opt_dft_re.chk
 %nprocshared=12
 Will use up to   12 processors via shared memory.
 %mem=48GB
 ----------------------------------------------------------------------
 # wb97xd def2svp geom=allchk scrf=(iefpcm,solvent=toluene) opt=(calcfc
 ,ts,noeigen,maxcycles=50,maxstep=10)
 ----------------------------------------------------------------------
 1/5=1,6=50,8=10,10=4,11=1,18=20,26=3,29=7,38=1/1,3;
 2/9=110,12=2,40=1/2;
 3/5=43,7=101,11=2,14=-4,25=1,30=1,70=2201,71=2,72=13,74=-58,140=1/1,2,3;
 4//1;
 5/5=2,38=5,53=13/2;
 8/6=4,10=90,11=11/1;
 11/6=1,8=1,9=11,15=111,16=1/1,2,10;
 10/6=1,13=1/2;
 6/7=2,8=2,9=2,10=2,28=1/1;
 7/10=1,25=1/1,2,3,16;
 1/5=1,6=50,8=10,10=4,11=1,18=20,26=3/3(2);
 2/9=110/2;
 99//99;
 2/9=110/2;
 3/5=43,7=101,11=2,14=-2,25=1,30=1,70=2205,71=1,72=13,74=-58/1,2,3;
 4/5=5,16=3,69=1/1;
 5/5=2,38=5,53=13/2;
 7//1,2,3,16;
 1/5=1,6=50,8=10,11=1,18=20,26=3/3(-5);
 2/9=110/2;
 6/7=2,8=2,9=2,10=2,19=2,28=1/1;
 99/9=1/99;
 Structure from the checkpoint file:  "allylic-1_1_opt_dft_re.chk"
 ---------------------
 allyl_ts_46_reopt.out
 ---------------------
 Charge =  0 Multiplicity = 1
 Redundant internal coordinates found in file.  (old form).
 C,0,1.4140216356,0.0349814129,0.6287163704
 C,0,-2.0459786342,-0.5645098468,1.0364285559
 C,0,0.7008398501,2.1576359235,-0.1966019712
 C,0,-1.7907919653,0.5599089114,1.6876937705
 N,0,1.13225502,0.7519318847,-0.3955358382
 H,0,-2.3027371244,0.7364657582,2.6348137075
 H,0,-0.2993861738,2.1771946522,-0.6814048699
 H,0,-2.7316987571,-1.3536181235,1.3566249997
 H,0,1.3428429995,2.7374650649,-0.8932579678
 H,0,1.363657622,0.5931818242,1.568124918
 H,0,-1.0949633912,1.3165064967,1.2993087613
 F,0,-1.4600581607,-0.8651428306,-0.1373812148
 C,0,1.7540943391,-1.4151253521,0.6149433476
 H,0,1.8982079683,-1.7761253704,1.6396017
 H,0,0.9422648634,-1.9934845849,0.1484968089
 H,0,2.6782850548,-1.6063043823,0.0472738816
 C,0,1.1426565423,0.1879295979,-1.7438530436
 H,0,1.6512779148,0.9014118621,-2.4036284577
 H,0,1.6422248905,-0.7883175681,-1.7981240275
 H,0,0.1003855063,0.0857146701,-2.0747394307
 Recover connectivity data from disk.

 GradGradGradGradGradGradGradGradGradGradGradGradGradGradGradGradGradGrad
 Berny optimization.
 Initialization pass.
                           ----------------------------
                           !    Initial Parameters    !
                           ! (Angstroms and Degrees)  !
 --------------------------                            --------------------------
 ! Name  Definition              Value          Derivative Info.                !
 --------------------------------------------------------------------------------
 ! R1    R(1,5)                  1.2816         calculate D2E/DX2 analytically  !
 ! R2    R(1,10)                 1.0939         calculate D2E/DX2 analytically  !
 ! R3    R(1,13)                 1.4895         calculate D2E/DX2 analytically  !
 ! R4    R(2,4)                  1.3242         calculate D2E/DX2 analytically  !
 ! R5    R(2,8)                  1.0934         calculate D2E/DX2 analytically  !
 ! R6    R(2,12)                 1.3459         calculate D2E/DX2 analytically  !
 ! R7    R(3,5)                  1.4838         calculate D2E/DX2 analytically  !
 ! R8    R(3,7)                  1.1117         calculate D2E/DX2 analytically  !
 ! R9    R(3,9)                  1.1107         calculate D2E/DX2 analytically  !
 ! R10   R(4,6)                  1.091          calculate D2E/DX2 analytically  !
 ! R11   R(4,11)                 1.0988         calculate D2E/DX2 analytically  !
 ! R12   R(5,17)                 1.4616         calculate D2E/DX2 analytically  !
 ! R13   R(7,11)                 2.3015         calculate D2E/DX2 analytically  !
 ! R14   R(13,14)                1.0959         calculate D2E/DX2 analytically  !
 ! R15   R(13,15)                1.1005         calculate D2E/DX2 analytically  !
 ! R16   R(13,16)                1.1013         calculate D2E/DX2 analytically  !
 ! R17   R(17,18)                1.0968         calculate D2E/DX2 analytically  !
 ! R18   R(17,19)                1.098          calculate D2E/DX2 analytically  !
 ! R19   R(17,20)                1.0983         calculate D2E/DX2 analytically  !
 ! A1    A(5,1,10)             113.0007         calculate D2E/DX2 analytically  !
 ! A2    A(5,1,13)             125.9744         calculate D2E/DX2 analytically  !
 ! A3    A(10,1,13)            121.0134         calculate D2E/DX2 analytically  !
 ! A4    A(4,2,8)              126.1328         calculate D2E/DX2 analytically  !
 ! A5    A(4,2,12)             122.3227         calculate D2E/DX2 analytically  !
 ! A6    A(8,2,12)             111.5444         calculate D2E/DX2 analytically  !
 ! A7    A(5,3,7)              102.697          calculate D2E/DX2 analytically  !
 ! A8    A(5,3,9)              104.0286         calculate D2E/DX2 analytically  !
 ! A9    A(7,3,9)              103.7297         calculate D2E/DX2 analytically  !
 ! A10   A(2,4,6)              118.2898         calculate D2E/DX2 analytically  !
 ! A11   A(2,4,11)             122.198          calculate D2E/DX2 analytically  !
 ! A12   A(6,4,11)             119.5082         calculate D2E/DX2 analytically  !
 ! A13   A(1,5,3)              119.1268         calculate D2E/DX2 analytically  !
 ! A14   A(1,5,17)             121.3212         calculate D2E/DX2 analytically  !
 ! A15   A(3,5,17)             119.4279         calculate D2E/DX2 analytically  !
 ! A16   A(3,7,11)              85.9359         calculate D2E/DX2 analytically  !
 ! A17   A(4,11,7)             141.3126         calculate D2E/DX2 analytically  !
 ! A18   A(1,13,14)            110.0031         calculate D2E/DX2 analytically  !
 ! A19   A(1,13,15)            110.3118         calculate D2E/DX2 analytically  !
 ! A20   A(1,13,16)            111.4293         calculate D2E/DX2 analytically  !
 ! A21   A(14,13,15)           108.6737         calculate D2E/DX2 analytically  !
 ! A22   A(14,13,16)           108.3244         calculate D2E/DX2 analytically  !
 ! A23   A(15,13,16)           108.0193         calculate D2E/DX2 analytically  !
 ! A24   A(5,17,18)            107.8905         calculate D2E/DX2 analytically  !
 ! A25   A(5,17,19)            113.0753         calculate D2E/DX2 analytically  !
 ! A26   A(5,17,20)            107.8838         calculate D2E/DX2 analytically  !
 ! A27   A(18,17,19)           109.7338         calculate D2E/DX2 analytically  !
 ! A28   A(18,17,20)           108.6252         calculate D2E/DX2 analytically  !
 ! A29   A(19,17,20)           109.52           calculate D2E/DX2 analytically  !
 ! D1    D(10,1,5,3)            -4.0016         calculate D2E/DX2 analytically  !
 ! D2    D(10,1,5,17)         -179.9271         calculate D2E/DX2 analytically  !
 ! D3    D(13,1,5,3)           174.7646         calculate D2E/DX2 analytically  !
 ! D4    D(13,1,5,17)           -1.1609         calculate D2E/DX2 analytically  !
 ! D5    D(5,1,13,14)         -177.0992         calculate D2E/DX2 analytically  !
 ! D6    D(5,1,13,15)          -57.2267         calculate D2E/DX2 analytically  !
 ! D7    D(5,1,13,16)           62.7482         calculate D2E/DX2 analytically  !
 ! D8    D(10,1,13,14)           1.5757         calculate D2E/DX2 analytically  !
 ! D9    D(10,1,13,15)         121.4481         calculate D2E/DX2 analytically  !
 ! D10   D(10,1,13,16)        -118.5769         calculate D2E/DX2 analytically  !
 ! D11   D(8,2,4,6)             -0.0585         calculate D2E/DX2 analytically  !
 ! D12   D(8,2,4,11)          -179.3237         calculate D2E/DX2 analytically  !
 ! D13   D(12,2,4,6)          -179.9633         calculate D2E/DX2 analytically  !
 ! D14   D(12,2,4,11)            0.7716         calculate D2E/DX2 analytically  !
 ! D15   D(7,3,5,1)           -121.8103         calculate D2E/DX2 analytically  !
 ! D16   D(7,3,5,17)            54.1935         calculate D2E/DX2 analytically  !
 ! D17   D(9,3,5,1)            130.3073         calculate D2E/DX2 analytically  !
 ! D18   D(9,3,5,17)           -53.6889         calculate D2E/DX2 analytically  !
 ! D19   D(5,3,7,11)            82.7492         calculate D2E/DX2 analytically  !
 ! D20   D(9,3,7,11)          -169.141          calculate D2E/DX2 analytically  !
 ! D21   D(2,4,11,7)            30.6547         calculate D2E/DX2 analytically  !
 ! D22   D(6,4,11,7)          -148.6017         calculate D2E/DX2 analytically  !
 ! D23   D(1,5,17,18)         -135.8171         calculate D2E/DX2 analytically  !
 ! D24   D(1,5,17,19)          -14.2707         calculate D2E/DX2 analytically  !
 ! D25   D(1,5,17,20)          107.0016         calculate D2E/DX2 analytically  !
 ! D26   D(3,5,17,18)           48.2694         calculate D2E/DX2 analytically  !
 ! D27   D(3,5,17,19)          169.8158         calculate D2E/DX2 analytically  !
 ! D28   D(3,5,17,20)          -68.9119         calculate D2E/DX2 analytically  !
 ! D29   D(3,7,11,4)          -137.3805         calculate D2E/DX2 analytically  !
 --------------------------------------------------------------------------------
 Trust Radius=1.00D-01 FncErr=1.00D-07 GrdErr=1.00D-06 EigMax=2.50D+02 EigMin=1.00D-04
 Number of steps in this run=     50 maximum allowed number of steps=    120.
 Search for a saddle point of order  1.
 GradGradGradGradGradGradGradGradGradGradGradGradGradGradGradGradGradGrad

                          Input orientation:                          
 ---------------------------------------------------------------------
 Center     Atomic      Atomic             Coordinates (Angstroms)
 Number     Number       Type             X           Y           Z
 ---------------------------------------------------------------------
      1          6           0        1.414022    0.034981    0.628716
      2          6           0       -2.045979   -0.564510    1.036429
      3          6           0        0.700840    2.157636   -0.196602
      4          6           0       -1.790792    0.559909    1.687694
      5          7           0        1.132255    0.751932   -0.395536
      6          1           0       -2.302737    0.736466    2.634814
      7          1           0       -0.299386    2.177195   -0.681405
      8          1           0       -2.731699   -1.353618    1.356625
      9          1           0        1.342843    2.737465   -0.893258
     10          1           0        1.363658    0.593182    1.568125
     11          1           0       -1.094963    1.316506    1.299309
     12          9           0       -1.460058   -0.865143   -0.137381
     13          6           0        1.754094   -1.415125    0.614943
     14          1           0        1.898208   -1.776125    1.639602
     15          1           0        0.942265   -1.993485    0.148497
     16          1           0        2.678285   -1.606304    0.047274
     17          6           0        1.142657    0.187930   -1.743853
     18          1           0        1.651278    0.901412   -2.403628
     19          1           0        1.642225   -0.788318   -1.798124
     20          1           0        0.100386    0.085715   -2.074739
 ---------------------------------------------------------------------
                    Distance matrix (angstroms):
                    1          2          3          4          5
     1  C    0.000000
     2  C    3.535141   0.000000
     3  C    2.386512   4.058997   0.000000
     4  C    3.415818   1.324230   3.508779   0.000000
     5  N    1.281602   3.726219   1.483812   3.594568   0.000000
     6  H    4.281449   2.076848   4.365560   1.091007   4.580658
     7  H    3.039944   3.676749   1.111696   3.233038   2.040268
     8  H    4.432274   1.093357   5.150120   2.157892   4.736407
     9  H    3.102401   5.109877   1.110720   4.606814   2.057770
    10  H    1.093898   3.639859   2.449715   3.156890   1.983611
    11  H    2.896033   2.124090   2.483980   1.098845   2.855126
    12  F    3.107646   1.345924   3.716205   2.339029   3.066213
    13  C    1.489513   3.916855   3.812161   4.197353   2.470605
    14  H    2.129890   4.169945   4.503311   4.366702   3.334598
    15  H    2.137250   3.429284   4.172431   4.044570   2.805241
    16  H    2.151803   4.937857   4.258757   5.230307   2.854394
    17  C    2.392931   4.296920   2.543409   4.529791   1.461563
    18  H    3.162611   5.258576   2.711530   5.357554   2.079463
    19  H    2.572830   4.656997   3.482775   5.074864   2.144689
    20  H    3.006142   3.835236   2.860210   4.237607   2.080463
                    6          7          8          9         10
     6  H    0.000000
     7  H    4.133572   0.000000
     8  H    2.487212   4.747246   0.000000
     9  H    5.453581   1.748056   6.196840   0.000000
    10  H    3.821100   3.214840   4.539461   3.264474   0.000000
    11  H    1.891755   2.301511   3.132372   3.573426   2.576874
    12  F    3.310638   3.301354   2.021814   4.626704   3.606776
    13  C    5.016682   4.336135   4.547111   4.437094   2.257054
    14  H    4.995148   5.083820   4.657749   5.205411   2.429911
    15  H    4.915734   4.430011   3.920078   4.860823   2.980564
    16  H    6.082312   4.869534   5.571910   4.640726   2.979761
    17  C    5.598603   2.676837   5.196149   2.695129   3.343990
    18  H    6.406820   2.898062   6.199609   2.397382   3.994065
    19  H    6.126877   3.716339   5.422473   3.652336   3.649352
    20  H    5.327135   2.544698   4.676178   3.157749   3.888938
                   11         12         13         14         15
    11  H    0.000000
    12  F    2.637606   0.000000
    13  C    4.005908   3.346528   0.000000
    14  H    4.317319   3.907110   1.095908   0.000000
    15  H    4.053481   2.669464   1.100518   1.784507   0.000000
    16  H    4.934351   4.208242   1.101329   1.781254   1.781550
    17  C    3.942266   3.234785   2.916772   3.984487   2.894773
    18  H    4.628811   4.235210   3.806401   4.855707   3.923833
    19  H    4.638596   3.519677   2.495656   3.585980   2.394098
    20  H    3.785222   2.663169   3.495950   4.527134   3.158261
                   16         17         18         19         20
    16  H    0.000000
    17  C    2.964046   0.000000
    18  H    3.653807   1.096839   0.000000
    19  H    2.268924   1.097986   1.794966   0.000000
    20  H    3.743185   1.098300   1.782918   1.793800   0.000000
 Stoichiometry    C6H12FN
 Framework group  C1[X(C6H12FN)]
 Deg. of freedom    54
 Full point group                 C1      NOp   1
 Largest Abelian subgroup         C1      NOp   1
 Largest concise Abelian subgroup C1      NOp   1
                         Standard orientation:                         
 ---------------------------------------------------------------------
 Center     Atomic      Atomic             Coordinates (Angstroms)
 Number     Number       Type             X           Y           Z
 ---------------------------------------------------------------------
      1          6           0       -0.917072   -0.463805   -0.940306
      2          6           0        2.395356   -0.199166    0.265932
      3          6           0       -0.992572    1.887163   -0.536956
      4          6           0        2.295456    0.676388   -0.722505
      5          7           0       -1.245957    0.480457   -0.138617
      6          1           0        3.148435    0.800743   -1.391280
      7          1           0       -0.338831    2.258974    0.281730
      8          1           0        3.263556   -0.826015    0.486652
      9          1           0       -1.961646    2.397810   -0.353013
     10          1           0       -0.531005   -0.097924   -1.896181
     11          1           0        1.392344    1.282565   -0.878707
     12          9           0        1.393358   -0.417986    1.137500
     13          6           0       -0.999267   -1.923200   -0.653847
     14          1           0       -0.604037   -2.494452   -1.501479
     15          1           0       -0.410736   -2.170281    0.242658
     16          1           0       -2.038934   -2.240615   -0.477026
     17          6           0       -1.782159    0.196073    1.190962
     18          1           0       -2.637948    0.861357    1.358528
     19          1           0       -2.095351   -0.849059    1.314176
     20          1           0       -1.002823    0.434857    1.927087
 ---------------------------------------------------------------------
 Rotational constants (GHZ):           2.3110062           1.2913326           1.1443634
 Standard basis: def2SVP (5D, 7F)
 There are   180 symmetry adapted cartesian basis functions of A   symmetry.
 There are   172 symmetry adapted basis functions of A   symmetry.
   172 basis functions,   284 primitive gaussians,   180 cartesian basis functions
    32 alpha electrons       32 beta electrons
       nuclear repulsion energy       384.7592338818 Hartrees.
 NAtoms=   20 NActive=   20 NUniq=   20 SFac= 1.00D+00 NAtFMM=   60 NAOKFM=F Big=F
 Integral buffers will be    131072 words long.
 Raffenetti 2 integral format.
 Two-electron integral symmetry is turned on.
 Nuclear repulsion after empirical dispersion term =      384.7469046019 Hartrees.
 Force inversion solution in PCM.
 ------------------------------------------------------------------------------
 Polarizable Continuum Model (PCM)
 =================================
 Model                : PCM.
 Atomic radii         : UFF (Universal Force Field).
 Polarization charges : Total charges.
 Charge compensation  : None.
 Solution method      : Matrix inversion.
 Cavity type          : Scaled VdW (van der Waals Surface) (Alpha=1.100).
 Cavity algorithm     : GePol (No added spheres)
                        Default sphere list used, NSphG=   20.
                        Lebedev-Laikov grids with approx.  5.0 points / Ang**2.
                        Smoothing algorithm: York/Karplus (Gamma=1.0000).
                        Polarization charges: spherical gaussians, with
                                              point-specific exponents (IZeta= 3).
                        Self-potential: point-specific (ISelfS= 7).
                        Self-field    : sphere-specific E.n sum rule (ISelfD= 2).
 1st derivatives      : Analytical E(r).r(x)/FMM algorithm (CHGder, D1EAlg=3).
                        Cavity 1st derivative terms included.
 2nd derivatives      : Analytical E(r).r(xy)/FMM algorithm (CHGder, D2EAlg=3).
                        Cavity 2nd derivative terms included.
 Solvent              : Toluene, Eps=   2.374100 Eps(inf)=   2.238315
 ------------------------------------------------------------------------------
 Spheres list:
 ISph  on   Nord     Re0    Alpha      Xe            Ye            Ze
    1   C      1    1.9255  1.100     -0.917072     -0.463805     -0.940306
    2   C      2    1.9255  1.100      2.395356     -0.199166      0.265932
    3   C      3    1.9255  1.100     -0.992572      1.887163     -0.536956
    4   C      4    1.9255  1.100      2.295456      0.676388     -0.722505
    5   N      5    1.8300  1.100     -1.245957      0.480457     -0.138617
    6   H      6    1.4430  1.100      3.148435      0.800743     -1.391280
    7   H      7    1.4430  1.100     -0.338831      2.258974      0.281730
    8   H      8    1.4430  1.100      3.263556     -0.826015      0.486652
    9   H      9    1.4430  1.100     -1.961646      2.397810     -0.353013
   10   H     10    1.4430  1.100     -0.531005     -0.097924     -1.896181
   11   H     11    1.4430  1.100      1.392344      1.282565     -0.878707
   12   F     12    1.6820  1.100      1.393358     -0.417986      1.137500
   13   C     13    1.9255  1.100     -0.999267     -1.923200     -0.653847
   14   H     14    1.4430  1.100     -0.604037     -2.494452     -1.501479
   15   H     15    1.4430  1.100     -0.410736     -2.170281      0.242658
   16   H     16    1.4430  1.100     -2.038934     -2.240615     -0.477026
   17   C     17    1.9255  1.100     -1.782159      0.196073      1.190962
   18   H     18    1.4430  1.100     -2.637948      0.861357      1.358528
   19   H     19    1.4430  1.100     -2.095351     -0.849059      1.314176
   20   H     20    1.4430  1.100     -1.002823      0.434857      1.927087
 ------------------------------------------------------------------------------
 One-electron integrals computed using PRISM.
   1 Symmetry operations used in ECPInt.
 ECPInt:  NShTT=    3570 NPrTT=   12386 LenC2=    3545 LenP2D=    9908.
 LDataN:  DoStor=T MaxTD1= 4 Len=   56
 NBasis=   172 RedAO= T EigKep=  2.98D-03  NBF=   172
 NBsUse=   172 1.00D-06 EigRej= -1.00D+00 NBFU=   172
 ExpMin= 1.22D-01 ExpMax= 2.89D+03 ExpMxC= 4.35D+02 IAcc=3 IRadAn=         5 AccDes= 0.00D+00
 Harris functional with IExCor= 4639 and IRadAn=       5 diagonalized for initial guess.
 HarFok:  IExCor= 4639 AccDes= 0.00D+00 IRadAn=         5 IDoV= 1 UseB2=F ITyADJ=14
 ICtDFT=  3500011 ScaDFX=  1.000000  1.000000  1.000000  1.000000
 FoFCou: FMM=F IPFlag=           0 FMFlag=      100000 FMFlg1=           0
         NFxFlg=           0 DoJE=T BraDBF=F KetDBF=T FulRan=T
         wScrn=  0.000000 ICntrl=       500 IOpCl=  0 I1Cent=   200000004 NGrid=           0
         NMat0=    1 NMatS0=      1 NMatT0=    0 NMatD0=    1 NMtDS0=    0 NMtDT0=    0
 Petite list used in FoFCou.
 Requested convergence on RMS density matrix=1.00D-08 within 128 cycles.
 Requested convergence on MAX density matrix=1.00D-06.
 Requested convergence on             energy=1.00D-06.
 No special actions if energy rises.
 Inv3:  Mode=1 IEnd=     7096332.
 Iteration    1 A*A^-1 deviation from unit magnitude is 2.66D-15 for   1135.
 Iteration    1 A*A^-1 deviation from orthogonality  is 1.92D-15 for   1206    231.
 Iteration    1 A^-1*A deviation from unit magnitude is 2.44D-15 for    378.
 Iteration    1 A^-1*A deviation from orthogonality  is 2.00D-15 for   1350    735.
 Error on total polarization charges =  0.00606
 SCF Done:  E(RwB97XD) =  -389.899448602     A.U. after   16 cycles
            NFock= 16  Conv=0.30D-08     -V/T= 2.0102
 DoSCS=F DFT=T ScalE2(SS,OS)=  1.000000  1.000000
 Range of M.O.s used for correlation:     1   172
 NBasis=   172 NAE=    32 NBE=    32 NFC=     0 NFV=     0
 NROrb=    172 NOA=    32 NOB=    32 NVA=   140 NVB=   140
   1 Symmetry operations used in ECPInt.
 ECPInt:  NShTT=    3570 NPrTT=   12386 LenC2=    3545 LenP2D=    9908.
 LDataN:  DoStor=T MaxTD1= 5 Len=  102
 Symmetrizing basis deriv contribution to polar:
 IMax=3 JMax=2 DiffMx= 0.00D+00
 G2DrvN: will do    21 centers at a time, making    1 passes.
 Calling FoFCou, ICntrl=  3107 FMM=F I1Cent=   0 AccDes= 0.00D+00.
 NEqPCM:  Using equilibrium solvation (IEInf=0, Eps=   2.3741, EpsInf=   2.2383)
 G2PCM: DoFxE=T DoFxN=T DoGrad=T DoDP/DQ/DG/TGxP=FFFF NFrqRd=   0 IEInf=0 SqF1=F DoCFld=F IF1Alg=4.
 End of G2Drv F.D. properties file   721 does not exist.
 End of G2Drv F.D. properties file   722 does not exist.
 End of G2Drv F.D. properties file   788 does not exist.
          IDoAtm=11111111111111111111
 NEqPCM:  Using equilibrium solvation (IEInf=0, Eps=   2.3741, EpsInf=   2.2383)
          Differentiating once with respect to nuclear coordinates.
 Keep R1 ints in memory in canonical form, NReq=236059372.
          There are    63 degrees of freedom in the 1st order CPHF.  IDoFFX=6 NUNeed=     0.
     57 vectors produced by pass  0 Test12= 7.11D-15 1.59D-09 XBig12= 7.09D-02 6.57D-02.
 AX will form    57 AO Fock derivatives at one time.
     57 vectors produced by pass  1 Test12= 7.11D-15 1.59D-09 XBig12= 6.50D-03 2.99D-02.
     57 vectors produced by pass  2 Test12= 7.11D-15 1.59D-09 XBig12= 2.06D-04 2.71D-03.
     57 vectors produced by pass  3 Test12= 7.11D-15 1.59D-09 XBig12= 2.10D-06 2.02D-04.
     57 vectors produced by pass  4 Test12= 7.11D-15 1.59D-09 XBig12= 1.30D-08 1.41D-05.
     57 vectors produced by pass  5 Test12= 7.11D-15 1.59D-09 XBig12= 5.73D-11 8.30D-07.
     42 vectors produced by pass  6 Test12= 7.11D-15 1.59D-09 XBig12= 2.58D-13 5.76D-08.
      5 vectors produced by pass  7 Test12= 7.11D-15 1.59D-09 XBig12= 1.14D-15 3.61D-09.
 InvSVY:  IOpt=1 It=  1 EMax= 2.78D-16
 Solved reduced A of dimension   389 with    63 vectors.
 End of Minotr F.D. properties file   721 does not exist.
 End of Minotr F.D. properties file   722 does not exist.
 End of Minotr F.D. properties file   788 does not exist.

 **********************************************************************

            Population analysis using the SCF Density.

 **********************************************************************

 Orbital symmetries:
       Occupied  (A) (A) (A) (A) (A) (A) (A) (A) (A) (A) (A) (A)
                 (A) (A) (A) (A) (A) (A) (A) (A) (A) (A) (A) (A)
                 (A) (A) (A) (A) (A) (A) (A) (A)
       Virtual   (A) (A) (A) (A) (A) (A) (A) (A) (A) (A) (A) (A)
                 (A) (A) (A) (A) (A) (A) (A) (A) (A) (A) (A) (A)
                 (A) (A) (A) (A) (A) (A) (A) (A) (A) (A) (A) (A)
                 (A) (A) (A) (A) (A) (A) (A) (A) (A) (A) (A) (A)
                 (A) (A) (A) (A) (A) (A) (A) (A) (A) (A) (A) (A)
                 (A) (A) (A) (A) (A) (A) (A) (A) (A) (A) (A) (A)
                 (A) (A) (A) (A) (A) (A) (A) (A) (A) (A) (A) (A)
                 (A) (A) (A) (A) (A) (A) (A) (A) (A) (A) (A) (A)
                 (A) (A) (A) (A) (A) (A) (A) (A) (A) (A) (A) (A)
                 (A) (A) (A) (A) (A) (A) (A) (A) (A) (A) (A) (A)
                 (A) (A) (A) (A) (A) (A) (A) (A) (A) (A) (A) (A)
                 (A) (A) (A) (A) (A) (A) (A) (A)
 The electronic state is 1-A.
 Alpha  occ. eigenvalues --  -24.82778 -14.52776 -10.37936 -10.37667 -10.33996
 Alpha  occ. eigenvalues --  -10.32435 -10.29265 -10.23134  -1.31073  -1.08264
 Alpha  occ. eigenvalues --   -0.87345  -0.85660  -0.82213  -0.74816  -0.69462
 Alpha  occ. eigenvalues --   -0.65592  -0.61777  -0.58433  -0.57693  -0.56364
 Alpha  occ. eigenvalues --   -0.56187  -0.55517  -0.51711  -0.49742  -0.48719
 Alpha  occ. eigenvalues --   -0.48457  -0.46089  -0.45182  -0.44347  -0.37020
 Alpha  occ. eigenvalues --   -0.34626  -0.22319
 Alpha virt. eigenvalues --    0.02618   0.08972   0.13251   0.16473   0.16696
 Alpha virt. eigenvalues --    0.17044   0.19381   0.20746   0.21089   0.21570
 Alpha virt. eigenvalues --    0.22486   0.22884   0.24374   0.25164   0.27172
 Alpha virt. eigenvalues --    0.28960   0.32090   0.36057   0.37507   0.41322
 Alpha virt. eigenvalues --    0.44010   0.48837   0.48971   0.51115   0.53615
 Alpha virt. eigenvalues --    0.54779   0.55773   0.57035   0.58573   0.59979
 Alpha virt. eigenvalues --    0.61957   0.65404   0.66700   0.67976   0.69480
 Alpha virt. eigenvalues --    0.71017   0.71707   0.72195   0.72870   0.74279
 Alpha virt. eigenvalues --    0.74871   0.75011   0.75356   0.76484   0.76746
 Alpha virt. eigenvalues --    0.77647   0.80102   0.81964   0.83465   0.84390
 Alpha virt. eigenvalues --    0.88177   0.88587   0.91773   0.92204   1.00146
 Alpha virt. eigenvalues --    1.08585   1.10906   1.14972   1.19174   1.20569
 Alpha virt. eigenvalues --    1.27982   1.28177   1.30668   1.32813   1.33694
 Alpha virt. eigenvalues --    1.36152   1.39804   1.46145   1.49223   1.54871
 Alpha virt. eigenvalues --    1.58972   1.59550   1.60418   1.61894   1.64766
 Alpha virt. eigenvalues --    1.66955   1.68502   1.71482   1.73604   1.76326
 Alpha virt. eigenvalues --    1.77602   1.79432   1.81504   1.82296   1.84849
 Alpha virt. eigenvalues --    1.85249   1.85696   1.88215   1.91406   1.91765
 Alpha virt. eigenvalues --    1.93052   1.96375   1.97575   1.98428   2.02591
 Alpha virt. eigenvalues --    2.04479   2.05117   2.05728   2.10453   2.13742
 Alpha virt. eigenvalues --    2.17414   2.18273   2.18795   2.21488   2.24091
 Alpha virt. eigenvalues --    2.31874   2.34307   2.35671   2.38036   2.40327
 Alpha virt. eigenvalues --    2.41911   2.49937   2.51701   2.52348   2.55004
 Alpha virt. eigenvalues --    2.58203   2.63160   2.72227   2.73675   2.76737
 Alpha virt. eigenvalues --    2.79081   2.81444   2.84347   2.87916   2.91759
 Alpha virt. eigenvalues --    2.94334   2.98916   3.01829   3.02687   3.05663
 Alpha virt. eigenvalues --    3.08080   3.10312   3.14475   3.17327   3.29328
 Alpha virt. eigenvalues --    3.31586   3.39553   3.44944   3.61306   3.94451
          Condensed to atoms (all electrons):
               1          2          3          4          5          6
     1  C    4.922445  -0.000977  -0.089888   0.007302   0.540152  -0.000028
     2  C   -0.000977   4.544576  -0.000117   0.611678  -0.000813  -0.006265
     3  C   -0.089888  -0.000117   5.351464  -0.030029   0.264016   0.000219
     4  C    0.007302   0.611678  -0.030029   4.997617   0.000312   0.371201
     5  N    0.540152  -0.000813   0.264016   0.000312   6.285172   0.000054
     6  H   -0.000028  -0.006265   0.000219   0.371201   0.000054   0.590845
     7  H   -0.000076  -0.000120   0.363140   0.002383  -0.033979   0.000099
     8  H    0.000268   0.421843  -0.000045  -0.062146  -0.000028  -0.006744
     9  H    0.004177   0.000007   0.359124   0.000734  -0.031895  -0.000007
    10  H    0.383855  -0.000317   0.033091  -0.003828  -0.026633   0.000120
    11  H   -0.010296  -0.013195   0.075948   0.321781  -0.003040  -0.023180
    12  F    0.009553   0.295393  -0.000911  -0.059327  -0.002288   0.002616
    13  C    0.299038   0.001221   0.011095  -0.001256  -0.042900   0.000011
    14  H   -0.008716   0.000192  -0.000249   0.000238   0.004148  -0.000003
    15  H   -0.003431  -0.001539  -0.000361  -0.000676  -0.008093  -0.000026
    16  H   -0.010457  -0.000001  -0.000212   0.000013  -0.004651   0.000000
    17  C   -0.086885  -0.000049  -0.037529  -0.001040   0.307249   0.000004
    18  H    0.005898   0.000000  -0.000512   0.000019  -0.022693  -0.000000
    19  H   -0.009968  -0.000021   0.006281   0.000206  -0.013014  -0.000000
    20  H    0.000345  -0.000034  -0.001115  -0.000042  -0.022095  -0.000007
               7          8          9         10         11         12
     1  C   -0.000076   0.000268   0.004177   0.383855  -0.010296   0.009553
     2  C   -0.000120   0.421843   0.000007  -0.000317  -0.013195   0.295393
     3  C    0.363140  -0.000045   0.359124   0.033091   0.075948  -0.000911
     4  C    0.002383  -0.062146   0.000734  -0.003828   0.321781  -0.059327
     5  N   -0.033979  -0.000028  -0.031895  -0.026633  -0.003040  -0.002288
     6  H    0.000099  -0.006744  -0.000007   0.000120  -0.023180   0.002616
     7  H    0.734226   0.000029  -0.039624  -0.001568  -0.006541   0.001232
     8  H    0.000029   0.616714   0.000001  -0.000031   0.004919  -0.030975
     9  H   -0.039624   0.000001   0.743778  -0.000474  -0.002586   0.000002
    10  H   -0.001568  -0.000031  -0.000474   0.555624   0.007978  -0.000106
    11  H   -0.006541   0.004919  -0.002586   0.007978   0.570484  -0.001709
    12  F    0.001232  -0.030975   0.000002  -0.000106  -0.001709   9.005891
    13  C   -0.000974  -0.000139  -0.000859  -0.034298   0.002264  -0.006458
    14  H    0.000026   0.000004   0.000018  -0.008479  -0.000126  -0.000098
    15  H    0.000177   0.000015  -0.000016   0.002532  -0.000210   0.011233
    16  H   -0.000039   0.000001   0.000087   0.002855  -0.000009   0.000085
    17  C   -0.003289  -0.000010  -0.009508   0.009303   0.002039  -0.000055
    18  H   -0.001887   0.000001   0.008925  -0.000352  -0.000086   0.000092
    19  H    0.000962   0.000001   0.000923  -0.000907  -0.000399  -0.000333
    20  H    0.005312   0.000074  -0.001472  -0.000324  -0.000040   0.007033
              13         14         15         16         17         18
     1  C    0.299038  -0.008716  -0.003431  -0.010457  -0.086885   0.005898
     2  C    0.001221   0.000192  -0.001539  -0.000001  -0.000049   0.000000
     3  C    0.011095  -0.000249  -0.000361  -0.000212  -0.037529  -0.000512
     4  C   -0.001256   0.000238  -0.000676   0.000013  -0.001040   0.000019
     5  N   -0.042900   0.004148  -0.008093  -0.004651   0.307249  -0.022693
     6  H    0.000011  -0.000003  -0.000026   0.000000   0.000004  -0.000000
     7  H   -0.000974   0.000026   0.000177  -0.000039  -0.003289  -0.001887
     8  H   -0.000139   0.000004   0.000015   0.000001  -0.000010   0.000001
     9  H   -0.000859   0.000018  -0.000016   0.000087  -0.009508   0.008925
    10  H   -0.034298  -0.008479   0.002532   0.002855   0.009303  -0.000352
    11  H    0.002264  -0.000126  -0.000210  -0.000009   0.002039  -0.000086
    12  F   -0.006458  -0.000098   0.011233   0.000085  -0.000055   0.000092
    13  C    4.680463   0.387137   0.374040   0.386253   0.009505  -0.000487
    14  H    0.387137   0.577740  -0.015005  -0.014087   0.000425  -0.000016
    15  H    0.374040  -0.015005   0.565252  -0.013770   0.000067  -0.000020
    16  H    0.386253  -0.014087  -0.013770   0.558889  -0.002162   0.000352
    17  C    0.009505   0.000425   0.000067  -0.002162   4.607163   0.394702
    18  H   -0.000487  -0.000016  -0.000020   0.000352   0.394702   0.578321
    19  H    0.004389   0.000375  -0.000259   0.002418   0.360382  -0.018173
    20  H   -0.000566  -0.000008   0.000721  -0.000318   0.397568  -0.014962
              19         20
     1  C   -0.009968   0.000345
     2  C   -0.000021  -0.000034
     3  C    0.006281  -0.001115
     4  C    0.000206  -0.000042
     5  N   -0.013014  -0.022095
     6  H   -0.000000  -0.000007
     7  H    0.000962   0.005312
     8  H    0.000001   0.000074
     9  H    0.000923  -0.001472
    10  H   -0.000907  -0.000324
    11  H   -0.000399  -0.000040
    12  F   -0.000333   0.007033
    13  C    0.004389  -0.000566
    14  H    0.000375  -0.000008
    15  H   -0.000259   0.000721
    16  H    0.002418  -0.000318
    17  C    0.360382   0.397568
    18  H   -0.018173  -0.014962
    19  H    0.635247  -0.018055
    20  H   -0.018055   0.566358
 Mulliken charges:
               1
     1  C    0.047689
     2  C    0.148536
     3  C   -0.303408
     4  C   -0.155141
     5  N   -0.188981
     6  H    0.071089
     7  H   -0.019489
     8  H    0.056247
     9  H   -0.031336
    10  H    0.081960
    11  H    0.076003
    12  F   -0.230872
    13  C   -0.067477
    14  H    0.076486
    15  H    0.089369
    16  H    0.094754
    17  C    0.052120
    18  H    0.070879
    19  H    0.049944
    20  H    0.081627
 Sum of Mulliken charges =  -0.00000
 Mulliken charges with hydrogens summed into heavy atoms:
               1
     1  C    0.129650
     2  C    0.204783
     3  C   -0.354233
     4  C   -0.008048
     5  N   -0.188981
    12  F   -0.230872
    13  C    0.193132
    17  C    0.254570
 APT charges:
               1
     1  C   -0.240964
     2  C   -0.510786
     3  C   -0.927845
     4  C   -0.514536
     5  N   -0.242069
     6  H    0.674301
     7  H    0.132739
     8  H    0.654871
     9  H    0.398788
    10  H    0.304040
    11  H   -0.062106
    12  F   -0.285345
    13  C   -0.785518
    14  H    0.461476
    15  H    0.136302
    16  H    0.506979
    17  C   -0.725136
    18  H    0.555530
    19  H    0.298530
    20  H    0.170748
 Sum of APT charges =  -0.00000
 APT charges with hydrogens summed into heavy atoms:
               1
     1  C    0.063076
     2  C    0.144085
     3  C   -0.396318
     4  C    0.097659
     5  N   -0.242069
    12  F   -0.285345
    13  C    0.319240
    17  C    0.299673
 Electronic spatial extent (au):  <R**2>=           1206.9838
 Charge=             -0.0000 electrons
 Dipole moment (field-independent basis, Debye):
    X=             -0.2442    Y=             -5.9371    Z=              1.6054  Tot=              6.1552
 Quadrupole moment (field-independent basis, Debye-Ang):
   XX=            -41.8486   YY=            -56.6005   ZZ=            -50.9548
   XY=              3.7036   XZ=             -4.1559   YZ=              6.6368
 Traceless Quadrupole moment (field-independent basis, Debye-Ang):
   XX=              7.9527   YY=             -6.7992   ZZ=             -1.1535
   XY=              3.7036   XZ=             -4.1559   YZ=              6.6368
 Octapole moment (field-independent basis, Debye-Ang**2):
  XXX=             19.6366  YYY=            -38.8761  ZZZ=             13.9289  XYY=              5.7100
  XXY=            -13.0266  XXZ=              6.6789  XZZ=              2.4969  YZZ=            -12.3944
  YYZ=             13.7179  XYZ=             -8.5802
 Hexadecapole moment (field-independent basis, Debye-Ang**3):
 XXXX=           -777.3819 YYYY=           -503.8934 ZZZZ=           -268.1033 XXXY=            -11.4364
 XXXZ=             -9.7294 YYYX=             19.2424 YYYZ=             32.3733 ZZZX=             -0.3019
 ZZZY=             19.0684 XXYY=           -221.0994 XXZZ=           -183.1874 YYZZ=           -136.9852
 XXYZ=             -1.5589 YYXZ=             -5.4936 ZZXY=              9.7324
 N-N= 3.847469046019D+02 E-N=-1.677917895074D+03  KE= 3.859553015622D+02
  Exact polarizability:       0.000       0.000       0.000       0.000       0.000       0.000
 Approx polarizability:      71.338      -3.895      90.085      -6.173      -3.160      81.965
   1 Symmetry operations used in ECPInt.
 ECPInt:  NShTT=    3570 NPrTT=   12386 LenC2=    3545 LenP2D=    9908.
 LDataN:  DoStor=T MaxTD1= 6 Len=  172
 D2PCM: PCM CHGder 2nd derivatives, FixD1E=F FixD2E=F DoIter=F DoCFld=F I1PDM=0
 Calling FoFJK, ICntrl=    100127 FMM=F ISym2X=0 I1Cent= 0 IOpClX= 0 NMat=1 NMatS=1 NMatT=0.
 ***** Axes restored to original set *****
 -------------------------------------------------------------------
 Center     Atomic                   Forces (Hartrees/Bohr)
 Number     Number              X              Y              Z
 -------------------------------------------------------------------
      1        6           0.000044538   -0.000440755   -0.000021246
      2        6           0.000344324    0.000480110    0.000180275
      3        6          -0.000052230    0.000144557   -0.000211013
      4        6          -0.000576640   -0.000238522   -0.000886353
      5        7           0.000325445   -0.000439315    0.000392481
      6        1           0.000072963   -0.000040913    0.000068244
      7        1          -0.000422878    0.000351925   -0.000076146
      8        1           0.000097467   -0.000118082   -0.000002211
      9        1          -0.000101790    0.000117915   -0.000134397
     10        1          -0.000172217    0.000065395    0.000032499
     11        1           0.000712033    0.000104330    0.000417159
     12        9          -0.000163042   -0.000217049    0.000122908
     13        6           0.000010133   -0.000170964    0.000225627
     14        1           0.000035746   -0.000000259    0.000002080
     15        1          -0.000060509    0.000023280    0.000047809
     16        1           0.000029333   -0.000032839   -0.000001158
     17        6           0.000281617    0.000136911   -0.000118369
     18        1          -0.000040462    0.000038694    0.000029302
     19        1          -0.000220230    0.000247889   -0.000093654
     20        1          -0.000143598   -0.000012308    0.000026164
 -------------------------------------------------------------------
 Cartesian Forces:  Max     0.000886353 RMS     0.000252394
 FormGI is forming the generalized inverse of G from B-inverse, IUseBI=4.

 GradGradGradGradGradGradGradGradGradGradGradGradGradGradGradGradGradGrad
 Berny optimization.
 Internal  Forces:  Max     0.001168669 RMS     0.000283589
 Search for a saddle point.
 Step number   1 out of a maximum of   50
 All quantities printed in internal units (Hartrees-Bohrs-Radians)
 Swapping is turned off.
 Second derivative matrix not updated -- analytic derivatives used.
 ITU=  0
     Eigenvalues ---   -0.01014   0.00091   0.00099   0.00146   0.00504
     Eigenvalues ---    0.00845   0.01890   0.02358   0.02520   0.02711
     Eigenvalues ---    0.03095   0.03750   0.04838   0.05385   0.05408
     Eigenvalues ---    0.05652   0.05827   0.06006   0.06444   0.09525
     Eigenvalues ---    0.09721   0.11481   0.12264   0.12576   0.12934
     Eigenvalues ---    0.13726   0.14334   0.14765   0.16509   0.16676
     Eigenvalues ---    0.17479   0.19303   0.22140   0.23628   0.26970
     Eigenvalues ---    0.30744   0.31812   0.32589   0.34218   0.34475
     Eigenvalues ---    0.34728   0.34915   0.35279   0.35306   0.35518
     Eigenvalues ---    0.35686   0.36440   0.36904   0.37140   0.39558
     Eigenvalues ---    0.41793   0.58143   0.68857   0.76383
 Eigenvectors required to have negative eigenvalues:
                          D15       D17       D16       D18       A16
   1                    0.47284   0.46367   0.43091   0.42174   0.29333
                          A17       R13       D3        D1        D4
   1                   -0.15854  -0.14900  -0.13171  -0.10670  -0.08953
 RFO step:  Lambda0=1.066785372D-07 Lambda=-7.51150391D-05.
 Linear search not attempted -- option 19 set.
 Iteration  1 RMS(Cart)=  0.02203236 RMS(Int)=  0.00056872
 Iteration  2 RMS(Cart)=  0.00184133 RMS(Int)=  0.00000269
 Iteration  3 RMS(Cart)=  0.00000199 RMS(Int)=  0.00000231
 Iteration  4 RMS(Cart)=  0.00000000 RMS(Int)=  0.00000231
 Variable       Old X    -DE/DX   Delta X   Delta X   Delta X     New X
                                 (Linear)    (Quad)   (Total)
    R1        2.42188   0.00053   0.00000   0.00035   0.00035   2.42223
    R2        2.06717   0.00007   0.00000   0.00039   0.00039   2.06755
    R3        2.81477   0.00017   0.00000   0.00011   0.00011   2.81488
    R4        2.50243  -0.00031   0.00000  -0.00065  -0.00065   2.50178
    R5        2.06615   0.00002   0.00000   0.00012   0.00012   2.06627
    R6        2.54343  -0.00013   0.00000   0.00026   0.00026   2.54368
    R7        2.80400   0.00051   0.00000   0.00194   0.00194   2.80594
    R8        2.10080   0.00006   0.00000   0.00101   0.00101   2.10182
    R9        2.09896   0.00009   0.00000   0.00007   0.00007   2.09903
   R10        2.06170   0.00001   0.00000   0.00034   0.00034   2.06204
   R11        2.07652   0.00005   0.00000   0.00163   0.00163   2.07814
   R12        2.76195  -0.00002   0.00000  -0.00052  -0.00052   2.76143
   R13        4.34923  -0.00027   0.00000  -0.03950  -0.03950   4.30973
   R14        2.07097   0.00001   0.00000  -0.00007  -0.00007   2.07090
   R15        2.07968   0.00001   0.00000   0.00044   0.00044   2.08012
   R16        2.08121   0.00003   0.00000  -0.00036  -0.00036   2.08085
   R17        2.07273  -0.00001   0.00000   0.00000   0.00000   2.07273
   R18        2.07489  -0.00031   0.00000  -0.00075  -0.00075   2.07414
   R19        2.07549   0.00012   0.00000   0.00024   0.00024   2.07573
    A1        1.97223  -0.00041   0.00000  -0.00162  -0.00162   1.97061
    A2        2.19867   0.00065   0.00000   0.00238   0.00238   2.20105
    A3        2.11208  -0.00024   0.00000  -0.00083  -0.00083   2.11125
    A4        2.20143  -0.00010   0.00000  -0.00111  -0.00111   2.20032
    A5        2.13493   0.00039   0.00000   0.00313   0.00313   2.13806
    A6        1.94682  -0.00029   0.00000  -0.00202  -0.00202   1.94480
    A7        1.79240  -0.00003   0.00000   0.00288   0.00288   1.79528
    A8        1.81564   0.00042   0.00000   0.00041   0.00041   1.81606
    A9        1.81043  -0.00003   0.00000  -0.00094  -0.00094   1.80949
   A10        2.06455  -0.00016   0.00000  -0.00414  -0.00415   2.06039
   A11        2.13276   0.00033   0.00000   0.00732   0.00731   2.14007
   A12        2.08581  -0.00016   0.00000  -0.00309  -0.00310   2.08272
   A13        2.07916   0.00012   0.00000   0.00128   0.00128   2.08044
   A14        2.11745   0.00069   0.00000   0.00267   0.00267   2.12012
   A15        2.08441  -0.00082   0.00000  -0.00406  -0.00406   2.08035
   A16        1.49986  -0.00117   0.00000  -0.01172  -0.01172   1.48814
   A17        2.46637  -0.00049   0.00000  -0.02695  -0.02695   2.43942
   A18        1.91992  -0.00001   0.00000   0.00012   0.00012   1.92003
   A19        1.92530  -0.00006   0.00000  -0.00375  -0.00375   1.92155
   A20        1.94481   0.00006   0.00000   0.00276   0.00276   1.94757
   A21        1.89671   0.00001   0.00000  -0.00020  -0.00020   1.89651
   A22        1.89062  -0.00003   0.00000   0.00110   0.00109   1.89171
   A23        1.88529   0.00004   0.00000  -0.00001  -0.00001   1.88528
   A24        1.88305  -0.00007   0.00000   0.00035   0.00035   1.88340
   A25        1.97354   0.00021   0.00000   0.00137   0.00136   1.97490
   A26        1.88293  -0.00014   0.00000  -0.00176  -0.00176   1.88116
   A27        1.91522   0.00000   0.00000   0.00106   0.00106   1.91627
   A28        1.89587   0.00004   0.00000   0.00009   0.00009   1.89596
   A29        1.91149  -0.00005   0.00000  -0.00116  -0.00116   1.91033
    D1       -0.06984  -0.00004   0.00000   0.00311   0.00311  -0.06673
    D2       -3.14032   0.00011   0.00000   0.00504   0.00504  -3.13528
    D3        3.05022  -0.00012   0.00000  -0.00039  -0.00040   3.04982
    D4       -0.02026   0.00003   0.00000   0.00153   0.00153  -0.01873
    D5       -3.09096   0.00003   0.00000  -0.02969  -0.02969  -3.12065
    D6       -0.99880  -0.00001   0.00000  -0.03223  -0.03223  -1.03103
    D7        1.09516   0.00003   0.00000  -0.03294  -0.03294   1.06222
    D8        0.02750  -0.00006   0.00000  -0.03346  -0.03346  -0.00596
    D9        2.11967  -0.00010   0.00000  -0.03600  -0.03600   2.08367
   D10       -2.06956  -0.00005   0.00000  -0.03671  -0.03671  -2.10627
   D11       -0.00102   0.00006   0.00000   0.00162   0.00162   0.00060
   D12       -3.12979  -0.00027   0.00000  -0.00682  -0.00682  -3.13660
   D13       -3.14095   0.00021   0.00000   0.00172   0.00172  -3.13923
   D14        0.01347  -0.00013   0.00000  -0.00672  -0.00672   0.00675
   D15       -2.12599   0.00024   0.00000   0.00316   0.00316  -2.12283
   D16        0.94586   0.00016   0.00000   0.00154   0.00154   0.94740
   D17        2.27429   0.00015   0.00000   0.00307   0.00307   2.27736
   D18       -0.93705   0.00007   0.00000   0.00146   0.00146  -0.93559
   D19        1.44425  -0.00064   0.00000  -0.00314  -0.00314   1.44111
   D20       -2.95207  -0.00021   0.00000  -0.00204  -0.00204  -2.95411
   D21        0.53503   0.00043   0.00000   0.07972   0.07972   0.61474
   D22       -2.59359   0.00009   0.00000   0.07119   0.07118  -2.52241
   D23       -2.37046  -0.00011   0.00000   0.01002   0.01002  -2.36044
   D24       -0.24907  -0.00002   0.00000   0.01248   0.01248  -0.23659
   D25        1.86753  -0.00005   0.00000   0.01066   0.01066   1.87819
   D26        0.84246  -0.00000   0.00000   0.01174   0.01174   0.85420
   D27        2.96385   0.00009   0.00000   0.01419   0.01420   2.97804
   D28       -1.20274   0.00006   0.00000   0.01238   0.01238  -1.19036
   D29       -2.39774   0.00051   0.00000  -0.06510  -0.06510  -2.46284
         Item               Value     Threshold  Converged?
 Maximum Force            0.001169     0.000450     NO 
 RMS     Force            0.000284     0.000300     YES
 Maximum Displacement     0.083305     0.001800     NO 
 RMS     Displacement     0.022370     0.001200     NO 
 Predicted change in Energy=-3.848206D-05
 GradGradGradGradGradGradGradGradGradGradGradGradGradGradGradGradGradGrad

                          Input orientation:                          
 ---------------------------------------------------------------------
 Center     Atomic      Atomic             Coordinates (Angstroms)
 Number     Number       Type             X           Y           Z
 ---------------------------------------------------------------------
      1          6           0        1.417825    0.030529    0.631244
      2          6           0       -2.048902   -0.561126    1.029190
      3          6           0        0.691709    2.152967   -0.188991
      4          6           0       -1.785778    0.564928    1.673741
      5          7           0        1.130729    0.748935   -0.390737
      6          1           0       -2.317307    0.758301    2.606891
      7          1           0       -0.311374    2.170150   -0.669191
      8          1           0       -2.758666   -1.331556    1.342630
      9          1           0        1.327397    2.737355   -0.887685
     10          1           0        1.362397    0.586612    1.571861
     11          1           0       -1.061566    1.304812    1.303012
     12          9           0       -1.443885   -0.890980   -0.127108
     13          6           0        1.765465   -1.417832    0.616501
     14          1           0        1.942291   -1.771447    1.638570
     15          1           0        0.939857   -2.000546    0.180070
     16          1           0        2.671010   -1.611076    0.020558
     17          6           0        1.138769    0.191735   -1.741597
     18          1           0        1.651873    0.905326   -2.397776
     19          1           0        1.630111   -0.787906   -1.801436
     20          1           0        0.095446    0.098519   -2.072248
 ---------------------------------------------------------------------
                    Distance matrix (angstroms):
                    1          2          3          4          5
     1  C    0.000000
     2  C    3.539296   0.000000
     3  C    2.388466   4.044900   0.000000
     4  C    3.411078   1.323887   3.482755   0.000000
     5  N    1.281786   3.720552   1.484838   3.577980   0.000000
     6  H    4.287662   2.074143   4.337768   1.091185   4.568897
     7  H    3.042899   3.655595   1.112233   3.199990   2.043783
     8  H    4.450216   1.093422   5.137397   2.157034   4.739240
     9  H    3.105194   5.094486   1.110757   4.579541   2.058992
    10  H    1.094103   3.639884   2.450283   3.149897   1.982879
    11  H    2.867481   2.128740   2.453450   1.099705   2.825587
    12  F    3.100590   1.346059   3.718898   2.340858   3.063896
    13  C    1.489571   3.931114   3.814757   4.202430   2.472306
    14  H    2.129998   4.214955   4.506103   4.399816   3.336023
    15  H    2.134778   3.424268   4.177254   4.030111   2.814587
    16  H    2.153666   4.939363   4.257882   5.227903   2.848031
    17  C    2.394626   4.290141   2.541038   4.511849   1.461287
    18  H    3.161488   5.252648   2.712426   5.339529   2.079484
    19  H    2.575429   4.647474   3.482716   5.057205   2.145073
    20  H    3.010345   3.827829   2.850078   4.217698   2.079022
                    6          7          8          9         10
     6  H    0.000000
     7  H    4.092653   0.000000
     8  H    2.482067   4.722140   0.000000
     9  H    5.423337   1.747865   6.182738   0.000000
    10  H    3.826354   3.214251   4.551382   3.267458   0.000000
    11  H    1.890942   2.280610   3.135626   3.543794   2.542378
    12  F    3.310248   3.308618   2.020615   4.628530   3.597915
    13  C    5.036491   4.340493   4.582845   4.440727   2.256762
    14  H    5.047915   5.093226   4.730759   5.204743   2.429233
    15  H    4.910174   4.436386   3.934230   4.872165   2.967997
    16  H    6.098063   4.864980   5.595300   4.641018   2.991462
    17  C    5.583440   2.677143   5.198352   2.691640   3.344389
    18  H    6.389264   2.905533   6.200575   2.396245   3.992917
    19  H    6.116063   3.715029   5.426055   3.654319   3.652411
    20  H    5.305754   2.534901   4.674661   3.143939   3.888821
                   11         12         13         14         15
    11  H    0.000000
    12  F    2.648190   0.000000
    13  C    3.984494   3.336233   0.000000
    14  H    4.312671   3.919060   1.095873   0.000000
    15  H    4.023938   2.647210   1.100752   1.784540   0.000000
    16  H    4.907058   4.180036   1.101137   1.781773   1.781578
    17  C    3.917915   3.232483   2.923025   3.990647   2.922065
    18  H    4.606318   4.238674   3.807338   4.851963   3.949220
    19  H    4.611095   3.501921   2.502308   3.591442   2.423492
    20  H    3.766457   2.670621   3.509651   4.547283   3.192497
                   16         17         18         19         20
    16  H    0.000000
    17  C    2.950098   0.000000
    18  H    3.635829   1.096840   0.000000
    19  H    2.254050   1.097586   1.795307   0.000000
    20  H    3.733106   1.098428   1.783079   1.792843   0.000000
 Stoichiometry    C6H12FN
 Framework group  C1[X(C6H12FN)]
 Deg. of freedom    54
 Full point group                 C1      NOp   1
 Largest Abelian subgroup         C1      NOp   1
 Largest concise Abelian subgroup C1      NOp   1
                         Standard orientation:                         
 ---------------------------------------------------------------------
 Center     Atomic      Atomic             Coordinates (Angstroms)
 Number     Number       Type             X           Y           Z
 ---------------------------------------------------------------------
      1          6           0       -0.922545   -0.459680   -0.939929
      2          6           0        2.395195   -0.199021    0.264759
      3          6           0       -0.974544    1.892684   -0.529497
      4          6           0        2.284837    0.680182   -0.718857
      5          7           0       -1.239836    0.486016   -0.134968
      6          1           0        3.144369    0.826812   -1.374897
      7          1           0       -0.311760    2.257669    0.285712
      8          1           0        3.277159   -0.804364    0.491191
      9          1           0       -1.937206    2.412653   -0.337935
     10          1           0       -0.533083   -0.093642   -1.894600
     11          1           0        1.368914    1.263520   -0.892502
     12          9           0        1.390892   -0.452398    1.124440
     13          6           0       -1.016362   -1.919625   -0.659608
     14          1           0       -0.657104   -2.491069   -1.522930
     15          1           0       -0.399369   -2.177285    0.214798
     16          1           0       -2.052612   -2.225640   -0.447373
     17          6           0       -1.772653    0.207657    1.196940
     18          1           0       -2.627813    0.873839    1.364153
     19          1           0       -2.083941   -0.836716    1.327633
     20          1           0       -0.990307    0.450509    1.928719
 ---------------------------------------------------------------------
 Rotational constants (GHZ):           2.3072915           1.2972736           1.1458435
 Standard basis: def2SVP (5D, 7F)
 There are   180 symmetry adapted cartesian basis functions of A   symmetry.
 There are   172 symmetry adapted basis functions of A   symmetry.
   172 basis functions,   284 primitive gaussians,   180 cartesian basis functions
    32 alpha electrons       32 beta electrons
       nuclear repulsion energy       384.9327891717 Hartrees.
 NAtoms=   20 NActive=   20 NUniq=   20 SFac= 1.00D+00 NAtFMM=   60 NAOKFM=F Big=F
 Integral buffers will be    131072 words long.
 Raffenetti 2 integral format.
 Two-electron integral symmetry is turned on.
 Nuclear repulsion after empirical dispersion term =      384.9204402107 Hartrees.
 ------------------------------------------------------------------------------
 Polarizable Continuum Model (PCM)
 =================================
 Model                : PCM.
 Atomic radii         : UFF (Universal Force Field).
 Polarization charges : Total charges.
 Charge compensation  : None.
 Solution method      : Matrix inversion.
 Cavity type          : Scaled VdW (van der Waals Surface) (Alpha=1.100).
 Cavity algorithm     : GePol (No added spheres)
                        Default sphere list used, NSphG=   20.
                        Lebedev-Laikov grids with approx.  5.0 points / Ang**2.
                        Smoothing algorithm: York/Karplus (Gamma=1.0000).
                        Polarization charges: spherical gaussians, with
                                              point-specific exponents (IZeta= 3).
                        Self-potential: point-specific (ISelfS= 7).
                        Self-field    : sphere-specific E.n sum rule (ISelfD= 2).
 1st derivatives      : Analytical E(r).r(x)/FMM algorithm (CHGder, D1EAlg=3).
                        Cavity 1st derivative terms included.
 Solvent              : Toluene, Eps=   2.374100 Eps(inf)=   2.238315
 ------------------------------------------------------------------------------
 Spheres list:
 ISph  on   Nord     Re0    Alpha      Xe            Ye            Ze
    1   C      1    1.9255  1.100     -0.922545     -0.459680     -0.939929
    2   C      2    1.9255  1.100      2.395195     -0.199021      0.264759
    3   C      3    1.9255  1.100     -0.974544      1.892684     -0.529497
    4   C      4    1.9255  1.100      2.284837      0.680182     -0.718857
    5   N      5    1.8300  1.100     -1.239836      0.486016     -0.134968
    6   H      6    1.4430  1.100      3.144369      0.826812     -1.374897
    7   H      7    1.4430  1.100     -0.311760      2.257669      0.285712
    8   H      8    1.4430  1.100      3.277159     -0.804364      0.491191
    9   H      9    1.4430  1.100     -1.937206      2.412653     -0.337935
   10   H     10    1.4430  1.100     -0.533083     -0.093642     -1.894600
   11   H     11    1.4430  1.100      1.368914      1.263520     -0.892502
   12   F     12    1.6820  1.100      1.390892     -0.452398      1.124440
   13   C     13    1.9255  1.100     -1.016362     -1.919625     -0.659608
   14   H     14    1.4430  1.100     -0.657104     -2.491069     -1.522930
   15   H     15    1.4430  1.100     -0.399369     -2.177285      0.214798
   16   H     16    1.4430  1.100     -2.052612     -2.225640     -0.447373
   17   C     17    1.9255  1.100     -1.772653      0.207657      1.196940
   18   H     18    1.4430  1.100     -2.627813      0.873839      1.364153
   19   H     19    1.4430  1.100     -2.083941     -0.836716      1.327633
   20   H     20    1.4430  1.100     -0.990307      0.450509      1.928719
 ------------------------------------------------------------------------------
 One-electron integrals computed using PRISM.
   1 Symmetry operations used in ECPInt.
 ECPInt:  NShTT=    3570 NPrTT=   12386 LenC2=    3546 LenP2D=    9916.
 LDataN:  DoStor=T MaxTD1= 4 Len=   56
 NBasis=   172 RedAO= T EigKep=  2.98D-03  NBF=   172
 NBsUse=   172 1.00D-06 EigRej= -1.00D+00 NBFU=   172
 Initial guess from the checkpoint file:  "allylic-1_1_opt_dft_re.chk"
 B after Tr=    -0.000000   -0.000000   -0.000000
         Rot=    0.999993   -0.002381   -0.001349    0.002471 Ang=  -0.42 deg.
 ExpMin= 1.22D-01 ExpMax= 2.89D+03 ExpMxC= 4.35D+02 IAcc=3 IRadAn=         5 AccDes= 0.00D+00
 Harris functional with IExCor= 4639 and IRadAn=       5 diagonalized for initial guess.
 HarFok:  IExCor= 4639 AccDes= 0.00D+00 IRadAn=         5 IDoV= 1 UseB2=F ITyADJ=14
 ICtDFT=  3500011 ScaDFX=  1.000000  1.000000  1.000000  1.000000
 FoFCou: FMM=F IPFlag=           0 FMFlag=      100000 FMFlg1=           0
         NFxFlg=           0 DoJE=T BraDBF=F KetDBF=T FulRan=T
         wScrn=  0.000000 ICntrl=       500 IOpCl=  0 I1Cent=   200000004 NGrid=           0
         NMat0=    1 NMatS0=      1 NMatT0=    0 NMatD0=    1 NMtDS0=    0 NMtDT0=    0
 Petite list used in FoFCou.
 Requested convergence on RMS density matrix=1.00D-08 within 128 cycles.
 Requested convergence on MAX density matrix=1.00D-06.
 Requested convergence on             energy=1.00D-06.
 No special actions if energy rises.
 Inv3:  Mode=1 IEnd=     7004352.
 Iteration    1 A*A^-1 deviation from unit magnitude is 3.11D-15 for   1086.
 Iteration    1 A*A^-1 deviation from orthogonality  is 1.44D-15 for   1199    230.
 Iteration    1 A^-1*A deviation from unit magnitude is 3.33D-15 for   1086.
 Iteration    1 A^-1*A deviation from orthogonality  is 2.22D-15 for   1349    618.
 Error on total polarization charges =  0.00602
 SCF Done:  E(RwB97XD) =  -389.899487263     A.U. after   13 cycles
            NFock= 13  Conv=0.36D-08     -V/T= 2.0102
   1 Symmetry operations used in ECPInt.
 ECPInt:  NShTT=    3570 NPrTT=   12386 LenC2=    3546 LenP2D=    9916.
 LDataN:  DoStor=T MaxTD1= 5 Len=  102
 D1PCM: PCM CHGder 1st derivatives, ID1Alg=3 FixD1E=F DoIter=F DoCFld=F I1PDM=0.
 Calling FoFJK, ICntrl=      2127 FMM=F ISym2X=0 I1Cent= 0 IOpClX= 0 NMat=1 NMatS=1 NMatT=0.
 ***** Axes restored to original set *****
 -------------------------------------------------------------------
 Center     Atomic                   Forces (Hartrees/Bohr)
 Number     Number              X              Y              Z
 -------------------------------------------------------------------
      1        6           0.000006032   -0.000022669   -0.000014261
      2        6           0.000016659   -0.000001827   -0.000000068
      3        6           0.000014913    0.000029583   -0.000002280
      4        6          -0.000006829   -0.000010437   -0.000002358
      5        7          -0.000010378   -0.000007609    0.000002265
      6        1           0.000010513    0.000009321    0.000010044
      7        1          -0.000006239    0.000008597    0.000013858
      8        1          -0.000000336    0.000003146    0.000009785
      9        1           0.000007366   -0.000001919   -0.000003128
     10        1           0.000016509   -0.000021765   -0.000003741
     11        1          -0.000045981   -0.000000256    0.000025453
     12        9           0.000063303    0.000022880    0.000015964
     13        6          -0.000010284    0.000003205   -0.000029974
     14        1          -0.000000485   -0.000006955   -0.000004770
     15        1          -0.000009243   -0.000000490    0.000023542
     16        1          -0.000002999   -0.000010733    0.000002273
     17        6          -0.000007185   -0.000003018   -0.000018432
     18        1          -0.000011112    0.000000837   -0.000005801
     19        1          -0.000010087    0.000008233   -0.000013720
     20        1          -0.000014137    0.000001878   -0.000004653
 -------------------------------------------------------------------
 Cartesian Forces:  Max     0.000063303 RMS     0.000015572

 GradGradGradGradGradGradGradGradGradGradGradGradGradGradGradGradGradGrad
 Berny optimization.
 FormGI is forming the generalized inverse of G from B-inverse, IUseBI=4.
 Internal  Forces:  Max     0.000313504 RMS     0.000060278
 Search for a saddle point.
 Step number   2 out of a maximum of   50
 All quantities printed in internal units (Hartrees-Bohrs-Radians)
 Swapping is turned off.
 Update second derivatives using D2CorX and points    1    2
 ITU=  0  0
     Eigenvalues ---   -0.01013   0.00078   0.00099   0.00153   0.00504
     Eigenvalues ---    0.00850   0.01890   0.02360   0.02520   0.02710
     Eigenvalues ---    0.03100   0.03756   0.04839   0.05385   0.05407
     Eigenvalues ---    0.05651   0.05826   0.06006   0.06447   0.09533
     Eigenvalues ---    0.09721   0.11482   0.12264   0.12576   0.12933
     Eigenvalues ---    0.13726   0.14334   0.14765   0.16509   0.16676
     Eigenvalues ---    0.17479   0.19303   0.22140   0.23627   0.26968
     Eigenvalues ---    0.30744   0.31812   0.32589   0.34218   0.34475
     Eigenvalues ---    0.34728   0.34915   0.35279   0.35306   0.35519
     Eigenvalues ---    0.35686   0.36440   0.36904   0.37140   0.39558
     Eigenvalues ---    0.41793   0.58149   0.68857   0.76383
 Eigenvectors required to have negative eigenvalues:
                          D15       D17       D16       D18       A16
   1                    0.47295   0.46374   0.43106   0.42184   0.29305
                          A17       R13       D3        D1        D4
   1                   -0.15924  -0.15016  -0.13174  -0.10666  -0.08944
 RFO step:  Lambda0=7.717787253D-09 Lambda=-2.22541424D-06.
 Linear search not attempted -- option 19 set.
 Iteration  1 RMS(Cart)=  0.00641408 RMS(Int)=  0.00002466
 Iteration  2 RMS(Cart)=  0.00003064 RMS(Int)=  0.00000006
 Iteration  3 RMS(Cart)=  0.00000000 RMS(Int)=  0.00000006
 Variable       Old X    -DE/DX   Delta X   Delta X   Delta X     New X
                                 (Linear)    (Quad)   (Total)
    R1        2.42223   0.00003   0.00000   0.00002   0.00002   2.42225
    R2        2.06755  -0.00001   0.00000   0.00002   0.00002   2.06757
    R3        2.81488  -0.00000   0.00000   0.00000   0.00000   2.81488
    R4        2.50178  -0.00003   0.00000  -0.00005  -0.00005   2.50173
    R5        2.06627   0.00000   0.00000  -0.00002  -0.00002   2.06625
    R6        2.54368   0.00001   0.00000   0.00003   0.00003   2.54371
    R7        2.80594   0.00004   0.00000   0.00020   0.00020   2.80614
    R8        2.10182  -0.00002   0.00000   0.00003   0.00003   2.10185
    R9        2.09903   0.00001   0.00000   0.00003   0.00003   2.09906
   R10        2.06204   0.00000   0.00000  -0.00002  -0.00002   2.06202
   R11        2.07814  -0.00005   0.00000  -0.00031  -0.00031   2.07784
   R12        2.76143   0.00003   0.00000  -0.00001  -0.00001   2.76142
   R13        4.30973   0.00000   0.00000  -0.00103  -0.00103   4.30870
   R14        2.07090   0.00000   0.00000   0.00001   0.00001   2.07091
   R15        2.08012  -0.00001   0.00000   0.00008   0.00008   2.08020
   R16        2.08085  -0.00001   0.00000  -0.00014  -0.00014   2.08070
   R17        2.07273  -0.00000   0.00000   0.00004   0.00004   2.07277
   R18        2.07414  -0.00001   0.00000  -0.00004  -0.00004   2.07410
   R19        2.07573   0.00001   0.00000  -0.00002  -0.00002   2.07571
    A1        1.97061  -0.00001   0.00000  -0.00020  -0.00020   1.97042
    A2        2.20105   0.00005   0.00000   0.00041   0.00041   2.20146
    A3        2.11125  -0.00004   0.00000  -0.00023  -0.00023   2.11102
    A4        2.20032   0.00004   0.00000   0.00002   0.00002   2.20034
    A5        2.13806  -0.00009   0.00000  -0.00010  -0.00010   2.13796
    A6        1.94480   0.00005   0.00000   0.00008   0.00008   1.94488
    A7        1.79528  -0.00023   0.00000   0.00005   0.00005   1.79532
    A8        1.81606   0.00004   0.00000  -0.00018  -0.00018   1.81588
    A9        1.80949   0.00003   0.00000  -0.00012  -0.00012   1.80937
   A10        2.06039   0.00009   0.00000   0.00029   0.00029   2.06068
   A11        2.14007  -0.00016   0.00000  -0.00012  -0.00012   2.13995
   A12        2.08272   0.00007   0.00000  -0.00017  -0.00017   2.08255
   A13        2.08044   0.00002   0.00000  -0.00002  -0.00002   2.08042
   A14        2.12012   0.00002   0.00000   0.00021   0.00021   2.12033
   A15        2.08035  -0.00004   0.00000  -0.00017  -0.00017   2.08018
   A16        1.48814   0.00000   0.00000   0.00540   0.00540   1.49354
   A17        2.43942  -0.00014   0.00000   0.00241   0.00241   2.44183
   A18        1.92003  -0.00001   0.00000  -0.00005  -0.00005   1.91998
   A19        1.92155  -0.00000   0.00000  -0.00079  -0.00079   1.92077
   A20        1.94757   0.00002   0.00000   0.00084   0.00084   1.94842
   A21        1.89651  -0.00001   0.00000  -0.00028  -0.00028   1.89623
   A22        1.89171  -0.00001   0.00000   0.00019   0.00019   1.89190
   A23        1.88528   0.00001   0.00000   0.00007   0.00007   1.88535
   A24        1.88340   0.00000   0.00000   0.00015   0.00015   1.88355
   A25        1.97490   0.00001   0.00000   0.00010   0.00010   1.97500
   A26        1.88116   0.00000   0.00000  -0.00012  -0.00012   1.88105
   A27        1.91627  -0.00001   0.00000   0.00012   0.00012   1.91640
   A28        1.89596  -0.00000   0.00000  -0.00008  -0.00008   1.89587
   A29        1.91033  -0.00001   0.00000  -0.00018  -0.00018   1.91015
    D1       -0.06673  -0.00003   0.00000   0.00110   0.00110  -0.06564
    D2       -3.13528  -0.00001   0.00000   0.00083   0.00083  -3.13445
    D3        3.04982  -0.00004   0.00000   0.00046   0.00046   3.05028
    D4       -0.01873  -0.00002   0.00000   0.00020   0.00020  -0.01853
    D5       -3.12065   0.00001   0.00000  -0.00825  -0.00825  -3.12890
    D6       -1.03103  -0.00002   0.00000  -0.00912  -0.00912  -1.04014
    D7        1.06222   0.00001   0.00000  -0.00901  -0.00901   1.05321
    D8       -0.00596  -0.00000   0.00000  -0.00893  -0.00893  -0.01489
    D9        2.08367  -0.00002   0.00000  -0.00980  -0.00980   2.07387
   D10       -2.10627  -0.00000   0.00000  -0.00969  -0.00969  -2.11596
   D11        0.00060   0.00002   0.00000  -0.00005  -0.00005   0.00054
   D12       -3.13660  -0.00002   0.00000  -0.00020  -0.00020  -3.13680
   D13       -3.13923   0.00007   0.00000  -0.00018  -0.00018  -3.13942
   D14        0.00675   0.00003   0.00000  -0.00033  -0.00033   0.00642
   D15       -2.12283  -0.00002   0.00000  -0.00006  -0.00006  -2.12290
   D16        0.94740  -0.00003   0.00000   0.00021   0.00021   0.94761
   D17        2.27736   0.00002   0.00000   0.00011   0.00011   2.27747
   D18       -0.93559  -0.00000   0.00000   0.00038   0.00038  -0.93521
   D19        1.44111  -0.00002   0.00000  -0.00171  -0.00171   1.43939
   D20       -2.95411  -0.00004   0.00000  -0.00193  -0.00193  -2.95603
   D21        0.61474   0.00013   0.00000   0.00403   0.00403   0.61878
   D22       -2.52241   0.00009   0.00000   0.00388   0.00388  -2.51852
   D23       -2.36044  -0.00001   0.00000   0.00362   0.00362  -2.35682
   D24       -0.23659  -0.00001   0.00000   0.00395   0.00395  -0.23265
   D25        1.87819  -0.00001   0.00000   0.00370   0.00370   1.88189
   D26        0.85420   0.00000   0.00000   0.00335   0.00335   0.85755
   D27        2.97804   0.00001   0.00000   0.00368   0.00368   2.98172
   D28       -1.19036   0.00001   0.00000   0.00343   0.00343  -1.18693
   D29       -2.46284   0.00031   0.00000   0.00402   0.00402  -2.45882
         Item               Value     Threshold  Converged?
 Maximum Force            0.000314     0.000450     YES
 RMS     Force            0.000060     0.000300     YES
 Maximum Displacement     0.020503     0.001800     NO 
 RMS     Displacement     0.006412     0.001200     NO 
 Predicted change in Energy=-1.108846D-06
 GradGradGradGradGradGradGradGradGradGradGradGradGradGradGradGradGradGrad

                          Input orientation:                          
 ---------------------------------------------------------------------
 Center     Atomic      Atomic             Coordinates (Angstroms)
 Number     Number       Type             X           Y           Z
 ---------------------------------------------------------------------
      1          6           0        1.420528    0.030735    0.631215
      2          6           0       -2.047794   -0.563525    1.029062
      3          6           0        0.695738    2.154251   -0.187655
      4          6           0       -1.790743    0.565235    1.671270
      5          7           0        1.132228    0.749439   -0.390231
      6          1           0       -2.327499    0.760679    2.600975
      7          1           0       -0.308381    2.172953   -0.665663
      8          1           0       -2.757343   -1.334632    1.341286
      9          1           0        1.330756    2.737434   -0.887990
     10          1           0        1.366913    0.586932    1.571881
     11          1           0       -1.066307    1.305368    1.301958
     12          9           0       -1.435961   -0.895525   -0.123047
     13          6           0        1.766565   -1.418010    0.616443
     14          1           0        1.953141   -1.769361    1.637567
     15          1           0        0.935257   -2.000292    0.190268
     16          1           0        2.665396   -1.614565    0.011625
     17          6           0        1.136652    0.192402   -1.741167
     18          1           0        1.652563    0.903601   -2.397776
     19          1           0        1.623063   -0.789640   -1.801562
     20          1           0        0.092630    0.104220   -2.070960
 ---------------------------------------------------------------------
                    Distance matrix (angstroms):
                    1          2          3          4          5
     1  C    0.000000
     2  C    3.541283   0.000000
     3  C    2.388554   4.048910   0.000000
     4  C    3.417553   1.323860   3.487573   0.000000
     5  N    1.281797   3.721667   1.484943   3.581547   0.000000
     6  H    4.296566   2.074287   4.342633   1.091172   4.573527
     7  H    3.043044   3.658683   1.112249   3.200533   2.043920
     8  H    4.452307   1.093412   5.141375   2.157012   4.740281
     9  H    3.105199   5.097648   1.110774   4.583886   2.058956
    10  H    1.094112   3.643957   2.450088   3.159294   1.982767
    11  H    2.873837   2.128509   2.458527   1.099543   2.829508
    12  F    3.096191   1.346075   3.721485   2.340783   3.061517
    13  C    1.489571   3.930614   3.815009   4.207179   2.472572
    14  H    2.129968   4.222771   4.506354   4.412271   3.336198
    15  H    2.134242   3.415621   4.178567   4.025714   2.817232
    16  H    2.154205   4.934979   4.257140   5.230977   2.846157
    17  C    2.394769   4.287924   2.540996   4.511471   1.461280
    18  H    3.160779   5.252458   2.713720   5.341159   2.079604
    19  H    2.575352   4.640985   3.482976   5.054732   2.145120
    20  H    3.011721   3.825890   2.848369   4.214726   2.078923
                    6          7          8          9         10
     6  H    0.000000
     7  H    4.091733   0.000000
     8  H    2.482320   4.725295   0.000000
     9  H    5.428007   1.747809   6.185786   0.000000
    10  H    3.838997   3.213826   4.555773   3.267557   0.000000
    11  H    1.890697   2.280064   3.135403   3.548605   2.551385
    12  F    3.310310   3.313823   2.020678   4.630145   3.595352
    13  C    5.044443   4.340992   4.582368   4.440829   2.256629
    14  H    5.064892   5.095212   4.739771   5.203556   2.429011
    15  H    4.907142   4.437930   3.924697   4.874946   2.964609
    16  H    6.105368   4.862856   5.590390   4.640093   2.994503
    17  C    5.583680   2.677202   5.195820   2.691241   3.344392
    18  H    6.391309   2.908052   6.199802   2.397073   3.992499
    19  H    6.114962   3.714525   5.418715   3.655175   3.652489
    20  H    5.302352   2.532849   4.672908   3.141049   3.889356
                   11         12         13         14         15
    11  H    0.000000
    12  F    2.647870   0.000000
    13  C    3.988970   3.328063   0.000000
    14  H    4.322460   3.917826   1.095879   0.000000
    15  H    4.021132   2.634645   1.100795   1.784402   0.000000
    16  H    4.910863   4.166087   1.101062   1.781841   1.781594
    17  C    3.918206   3.228038   2.923789   3.991367   2.928977
    18  H    4.608872   4.236770   3.806362   4.849646   3.955388
    19  H    4.610163   3.490881   2.502437   3.591158   2.430256
    20  H    3.763305   2.670289   3.513029   4.552469   3.201897
                   16         17         18         19         20
    16  H    0.000000
    17  C    2.945245   0.000000
    18  H    3.629354   1.096861   0.000000
    19  H    2.248246   1.097565   1.795385   0.000000
    20  H    3.729679   1.098417   1.783034   1.792703   0.000000
 Stoichiometry    C6H12FN
 Framework group  C1[X(C6H12FN)]
 Deg. of freedom    54
 Full point group                 C1      NOp   1
 Largest Abelian subgroup         C1      NOp   1
 Largest concise Abelian subgroup C1      NOp   1
                         Standard orientation:                         
 ---------------------------------------------------------------------
 Center     Atomic      Atomic             Coordinates (Angstroms)
 Number     Number       Type             X           Y           Z
 ---------------------------------------------------------------------
      1          6           0       -0.924136   -0.458042   -0.940856
      2          6           0        2.395634   -0.199122    0.264454
      3          6           0       -0.978722    1.893818   -0.527381
      4          6           0        2.287972    0.686660   -0.713507
      5          7           0       -1.240656    0.486144   -0.133805
      6          1           0        3.149828    0.839393   -1.365069
[...]
      7          1           0       -0.309525    2.171990   -0.666585
      8          1           0       -2.758468   -1.332875    1.341753
      9          1           0        1.329536    2.737329   -0.887555
     10          1           0        1.365459    0.586328    1.571718
     11          1           0       -1.064209    1.305207    1.302888
     12          9           0       -1.437676   -0.894574   -0.123317
     13          6           0        1.766455   -1.418208    0.616140
     14          1           0        1.948642   -1.770517    1.637732
     15          1           0        0.937772   -2.000816    0.185456
     16          1           0        2.668395   -1.613221    0.015409
     17          6           0        1.137208    0.192235   -1.741514
     18          1           0        1.651281    0.904817   -2.398045
     19          1           0        1.626179   -0.788535   -1.802069
     20          1           0        0.093382    0.101455   -2.071251
 ---------------------------------------------------------------------
                    Distance matrix (angstroms):
                    1          2          3          4          5
     1  C    0.000000
     2  C    3.540589   0.000000
     3  C    2.388532   4.047240   0.000000
     4  C    3.415744   1.323869   3.485640   0.000000
     5  N    1.281794   3.721223   1.484934   3.580463   0.000000
     6  H    4.294558   2.074219   4.340752   1.091180   4.572374
     7  H    3.043075   3.657424   1.112246   3.200017   2.043940
     8  H    4.451947   1.093416   5.139736   2.157005   4.740035
     9  H    3.105145   5.096330   1.110771   4.582106   2.058957
    10  H    1.094095   3.642353   2.450129   3.156364   1.982789
    11  H    2.871605   2.128655   2.456513   1.099607   2.828140
    12  F    3.096529   1.346071   3.720339   2.340834   3.061737
    13  C    1.489557   3.931233   3.814982   4.206372   2.472563
    14  H    2.129897   4.219479   4.506138   4.407969   3.336123
    15  H    2.134528   3.420106   4.178293   4.029058   2.816260
    16  H    2.153987   4.937459   4.257665   5.230923   2.847288
    17  C    2.394727   4.288891   2.541075   4.511868   1.461297
    18  H    3.161238   5.252308   2.712978   5.340339   2.079563
    19  H    2.575454   4.644308   3.482876   5.056604   2.145105
    20  H    3.010982   3.826421   2.849488   4.215819   2.079012
                    6          7          8          9         10
     6  H    0.000000
     7  H    4.091485   0.000000
     8  H    2.482179   4.723856   0.000000
     9  H    5.426107   1.747844   6.184508   0.000000
    10  H    3.835758   3.214015   4.554448   3.267433   0.000000
    11  H    1.890752   2.280282   3.135522   3.546693   2.548008
    12  F    3.310295   3.312353   2.020650   4.629497   3.594966
    13  C    5.043294   4.341036   4.583527   4.440775   2.256566
    14  H    5.060007   5.094365   4.736667   5.203945   2.428822
    15  H    4.910742   4.437796   3.930058   4.873895   2.966134
    16  H    6.104447   4.864252   5.593623   4.640601   2.992951
    17  C    5.583997   2.677301   5.196998   2.691420   3.344385
    18  H    6.390404   2.906621   6.199938   2.396498   3.992762
    19  H    6.116634   3.714968   5.422642   3.654593   3.652487
    20  H    5.303534   2.534272   4.673215   3.142776   3.889023
                   11         12         13         14         15
    11  H    0.000000
    12  F    2.648127   0.000000
    13  C    3.987640   3.329781   0.000000
    14  H    4.318503   3.916085   1.095885   0.000000
    15  H    4.023229   2.638535   1.100743   1.784377   0.000000
    16  H    4.909904   4.170793   1.101092   1.781773   1.781628
    17  C    3.918333   3.229512   2.923698   3.991256   2.926169
    18  H    4.607723   4.237198   3.807232   4.851116   3.953008
    19  H    4.611150   3.495234   2.502778   3.591727   2.427712
    20  H    3.764817   2.670329   3.511497   4.550035   3.197697
                   16         17         18         19         20
    16  H    0.000000
    17  C    2.948048   0.000000
    18  H    3.633153   1.096848   0.000000
    19  H    2.251566   1.097574   1.795343   0.000000
    20  H    3.731616   1.098426   1.783040   1.792765   0.000000
 Stoichiometry    C6H12FN
 Framework group  C1[X(C6H12FN)]
 Deg. of freedom    54
 Full point group                 C1      NOp   1
 Largest Abelian subgroup         C1      NOp   1
 Largest concise Abelian subgroup C1      NOp   1
                         Standard orientation:                         
 ---------------------------------------------------------------------
 Center     Atomic      Atomic             Coordinates (Angstroms)
 Number     Number       Type             X           Y           Z
 ---------------------------------------------------------------------
      1          6           0       -0.923504   -0.458298   -0.940462
      2          6           0        2.395528   -0.199345    0.264834
      3          6           0       -0.976550    1.893723   -0.527823
      4          6           0        2.287373    0.684753   -0.714607
      5          7           0       -1.240143    0.486415   -0.134079
      6          1           0        3.149018    0.836340   -1.366728
      7          1           0       -0.312751    2.258601    0.286626
      8          1           0        3.277660   -0.804376    0.491420
      9          1           0       -1.939367    2.412646   -0.334138
     10          1           0       -0.535271   -0.090945   -1.895120
     11          1           0        1.371184    1.267346   -0.888730
     12          9           0        1.388451   -0.458742    1.119478
     13          6           0       -1.016096   -1.918689   -0.662136
     14          1           0       -0.661785   -2.488606   -1.528522
     15          1           0       -0.393695   -2.177761    0.207999
     16          1           0       -2.050949   -2.225306   -0.444265
     17          6           0       -1.770795    0.206598    1.198400
     18          1           0       -2.627054    0.871040    1.366962
     19          1           0       -2.079760   -0.838434    1.329236
     20          1           0       -0.988027    0.450779    1.929282
 ---------------------------------------------------------------------
 Rotational constants (GHZ):           2.3075451           1.2978514           1.1452430

 **********************************************************************

            Population analysis using the SCF Density.

 **********************************************************************

 Orbital symmetries:
       Occupied  (A) (A) (A) (A) (A) (A) (A) (A) (A) (A) (A) (A)
                 (A) (A) (A) (A) (A) (A) (A) (A) (A) (A) (A) (A)
                 (A) (A) (A) (A) (A) (A) (A) (A)
       Virtual   (A) (A) (A) (A) (A) (A) (A) (A) (A) (A) (A) (A)
                 (A) (A) (A) (A) (A) (A) (A) (A) (A) (A) (A) (A)
                 (A) (A) (A) (A) (A) (A) (A) (A) (A) (A) (A) (A)
                 (A) (A) (A) (A) (A) (A) (A) (A) (A) (A) (A) (A)
                 (A) (A) (A) (A) (A) (A) (A) (A) (A) (A) (A) (A)
                 (A) (A) (A) (A) (A) (A) (A) (A) (A) (A) (A) (A)
                 (A) (A) (A) (A) (A) (A) (A) (A) (A) (A) (A) (A)
                 (A) (A) (A) (A) (A) (A) (A) (A) (A) (A) (A) (A)
                 (A) (A) (A) (A) (A) (A) (A) (A) (A) (A) (A) (A)
                 (A) (A) (A) (A) (A) (A) (A) (A) (A) (A) (A) (A)
                 (A) (A) (A) (A) (A) (A) (A) (A) (A) (A) (A) (A)
                 (A) (A) (A) (A) (A) (A) (A) (A)
 The electronic state is 1-A.
 Alpha  occ. eigenvalues --  -24.82785 -14.52797 -10.37909 -10.37702 -10.34000
 Alpha  occ. eigenvalues --  -10.32438 -10.29225 -10.23170  -1.31074  -1.08262
 Alpha  occ. eigenvalues --   -0.87366  -0.85644  -0.82209  -0.74816  -0.69453
 Alpha  occ. eigenvalues --   -0.65607  -0.61754  -0.58437  -0.57670  -0.56363
 Alpha  occ. eigenvalues --   -0.56199  -0.55562  -0.51703  -0.49765  -0.48712
 Alpha  occ. eigenvalues --   -0.48441  -0.46088  -0.45170  -0.44299  -0.37055
 Alpha  occ. eigenvalues --   -0.34609  -0.22340
 Alpha virt. eigenvalues --    0.02601   0.09009   0.13262   0.16438   0.16691
 Alpha virt. eigenvalues --    0.17040   0.19364   0.20794   0.21179   0.21585
 Alpha virt. eigenvalues --    0.22621   0.22912   0.24365   0.25106   0.27207
 Alpha virt. eigenvalues --    0.28948   0.32326   0.36034   0.37479   0.41356
 Alpha virt. eigenvalues --    0.44216   0.48875   0.48884   0.51134   0.53635
 Alpha virt. eigenvalues --    0.54841   0.55843   0.56974   0.58500   0.59906
 Alpha virt. eigenvalues --    0.61947   0.65427   0.66629   0.67968   0.69423
 Alpha virt. eigenvalues --    0.71094   0.71678   0.72160   0.72961   0.74282
 Alpha virt. eigenvalues --    0.74858   0.75000   0.75379   0.76496   0.76722
 Alpha virt. eigenvalues --    0.77662   0.80105   0.82146   0.83467   0.84381
 Alpha virt. eigenvalues --    0.88471   0.88709   0.91741   0.92132   1.00307
 Alpha virt. eigenvalues --    1.08430   1.11064   1.15051   1.19209   1.20735
 Alpha virt. eigenvalues --    1.27921   1.28141   1.30715   1.32780   1.33742
 Alpha virt. eigenvalues --    1.36106   1.39727   1.46058   1.49164   1.55170
 Alpha virt. eigenvalues --    1.58999   1.59656   1.60422   1.61824   1.64839
 Alpha virt. eigenvalues --    1.66953   1.68410   1.71483   1.73679   1.76469
 Alpha virt. eigenvalues --    1.77569   1.79568   1.81603   1.82644   1.84932
 Alpha virt. eigenvalues --    1.85227   1.85503   1.88300   1.91246   1.91685
 Alpha virt. eigenvalues --    1.93104   1.96491   1.97550   1.98393   2.02669
 Alpha virt. eigenvalues --    2.04532   2.05144   2.05591   2.10414   2.13689
 Alpha virt. eigenvalues --    2.17332   2.18298   2.18576   2.21406   2.24060
 Alpha virt. eigenvalues --    2.31820   2.34485   2.35625   2.38055   2.40209
 Alpha virt. eigenvalues --    2.41887   2.49956   2.51755   2.52353   2.55012
 Alpha virt. eigenvalues --    2.58119   2.63203   2.72238   2.73715   2.76715
 Alpha virt. eigenvalues --    2.78918   2.81522   2.84346   2.88206   2.91705
 Alpha virt. eigenvalues --    2.94355   2.98839   3.01743   3.02465   3.05640
 Alpha virt. eigenvalues --    3.08107   3.10348   3.14706   3.17346   3.29379
 Alpha virt. eigenvalues --    3.31487   3.39556   3.44920   3.61269   3.94561
          Condensed to atoms (all electrons):
               1          2          3          4          5          6
     1  C    4.922896  -0.000983  -0.090099   0.007564   0.539430  -0.000026
     2  C   -0.000983   4.545358  -0.000167   0.611098  -0.000848  -0.005774
     3  C   -0.090099  -0.000167   5.349353  -0.031780   0.264217   0.000241
     4  C    0.007564   0.611098  -0.031780   5.002898   0.000282   0.370470
     5  N    0.539430  -0.000848   0.264217   0.000282   6.285764   0.000057
     6  H   -0.000026  -0.005774   0.000241   0.370470   0.000057   0.591409
     7  H   -0.000040  -0.000114   0.363486   0.002742  -0.033861   0.000108
     8  H    0.000274   0.421858  -0.000048  -0.061823  -0.000029  -0.006868
     9  H    0.004248   0.000009   0.358746   0.000790  -0.031876  -0.000008
    10  H    0.383957  -0.000288   0.032402  -0.004012  -0.026539   0.000117
    11  H   -0.010793  -0.013952   0.079212   0.319694  -0.003098  -0.023061
    12  F    0.009871   0.295214  -0.000878  -0.059384  -0.002403   0.002615
    13  C    0.299531   0.001246   0.011000  -0.001281  -0.042364   0.000012
    14  H   -0.008801   0.000138  -0.000244   0.000200   0.004130  -0.000003
    15  H   -0.003176  -0.001533  -0.000361  -0.000683  -0.007910  -0.000027
    16  H   -0.010479  -0.000004  -0.000212   0.000012  -0.004747   0.000000
    17  C   -0.086753  -0.000023  -0.037537  -0.001108   0.307602   0.000004
    18  H    0.005758   0.000001  -0.000651   0.000020  -0.022714  -0.000000
    19  H   -0.009605  -0.000024   0.006346   0.000222  -0.013231  -0.000000
    20  H    0.000456  -0.000038  -0.001096  -0.000059  -0.022182  -0.000007
               7          8          9         10         11         12
     1  C   -0.000040   0.000274   0.004248   0.383957  -0.010793   0.009871
     2  C   -0.000114   0.421858   0.000009  -0.000288  -0.013952   0.295214
     3  C    0.363486  -0.000048   0.358746   0.032402   0.079212  -0.000878
     4  C    0.002742  -0.061823   0.000790  -0.004012   0.319694  -0.059384
     5  N   -0.033861  -0.000029  -0.031876  -0.026539  -0.003098  -0.002403
     6  H    0.000108  -0.006868  -0.000008   0.000117  -0.023061   0.002615
     7  H    0.733619   0.000029  -0.039518  -0.001559  -0.007276   0.001152
     8  H    0.000029   0.616747   0.000001  -0.000031   0.004837  -0.031046
     9  H   -0.039518   0.000001   0.743811  -0.000462  -0.002735   0.000002
    10  H   -0.001559  -0.000031  -0.000462   0.555343   0.008464  -0.000122
    11  H   -0.007276   0.004837  -0.002735   0.008464   0.572140  -0.001797
    12  F    0.001152  -0.031046   0.000002  -0.000122  -0.001797   9.005916
    13  C   -0.000969  -0.000139  -0.000850  -0.034324   0.002363  -0.006934
    14  H    0.000023   0.000004   0.000019  -0.008475  -0.000124  -0.000077
    15  H    0.000182   0.000029  -0.000015   0.002417  -0.000232   0.011949
    16  H   -0.000038   0.000001   0.000082   0.002948  -0.000009   0.000091
    17  C   -0.003395  -0.000008  -0.009253   0.009250   0.002197   0.000142
    18  H   -0.001927   0.000001   0.008794  -0.000351  -0.000086   0.000096
    19  H    0.000967   0.000001   0.000939  -0.000894  -0.000433  -0.000334
    20  H    0.005436   0.000072  -0.001525  -0.000318  -0.000062   0.006920
              13         14         15         16         17         18
     1  C    0.299531  -0.008801  -0.003176  -0.010479  -0.086753   0.005758
     2  C    0.001246   0.000138  -0.001533  -0.000004  -0.000023   0.000001
     3  C    0.011000  -0.000244  -0.000361  -0.000212  -0.037537  -0.000651
     4  C   -0.001281   0.000200  -0.000683   0.000012  -0.001108   0.000020
     5  N   -0.042364   0.004130  -0.007910  -0.004747   0.307602  -0.022714
     6  H    0.000012  -0.000003  -0.000027   0.000000   0.000004  -0.000000
     7  H   -0.000969   0.000023   0.000182  -0.000038  -0.003395  -0.001927
     8  H   -0.000139   0.000004   0.000029   0.000001  -0.000008   0.000001
     9  H   -0.000850   0.000019  -0.000015   0.000082  -0.009253   0.008794
    10  H   -0.034324  -0.008475   0.002417   0.002948   0.009250  -0.000351
    11  H    0.002363  -0.000124  -0.000232  -0.000009   0.002197  -0.000086
    12  F   -0.006934  -0.000077   0.011949   0.000091   0.000142   0.000096
    13  C    4.679544   0.387242   0.373119   0.386587   0.009289  -0.000477
    14  H    0.387242   0.577702  -0.014623  -0.014363   0.000429  -0.000014
    15  H    0.373119  -0.014623   0.564072  -0.013561  -0.000041  -0.000032
    16  H    0.386587  -0.014363  -0.013561   0.559253  -0.002152   0.000351
    17  C    0.009289   0.000429  -0.000041  -0.002152   4.605766   0.395040
    18  H   -0.000477  -0.000014  -0.000032   0.000351   0.395040   0.578358
    19  H    0.004183   0.000353  -0.000142   0.002485   0.360161  -0.018340
    20  H   -0.000495  -0.000013   0.000668  -0.000320   0.397522  -0.014973
              19         20
     1  C   -0.009605   0.000456
     2  C   -0.000024  -0.000038
     3  C    0.006346  -0.001096
     4  C    0.000222  -0.000059
     5  N   -0.013231  -0.022182
     6  H   -0.000000  -0.000007
     7  H    0.000967   0.005436
     8  H    0.000001   0.000072
     9  H    0.000939  -0.001525
    10  H   -0.000894  -0.000318
    11  H   -0.000433  -0.000062
    12  F   -0.000334   0.006920
    13  C    0.004183  -0.000495
    14  H    0.000353  -0.000013
    15  H   -0.000142   0.000668
    16  H    0.002485  -0.000320
    17  C    0.360161   0.397522
    18  H   -0.018340  -0.014973
    19  H    0.635834  -0.017998
    20  H   -0.017998   0.566726
 Mulliken charges:
               1
     1  C    0.046771
     2  C    0.148828
     3  C   -0.301926
     4  C   -0.155864
     5  N   -0.189680
     6  H    0.070741
     7  H   -0.019046
     8  H    0.056140
     9  H   -0.031198
    10  H    0.082479
    11  H    0.074750
    12  F   -0.230993
    13  C   -0.066282
    14  H    0.076497
    15  H    0.089899
    16  H    0.094073
    17  C    0.052868
    18  H    0.071148
    19  H    0.049509
    20  H    0.081286
 Sum of Mulliken charges =  -0.00000
 Mulliken charges with hydrogens summed into heavy atoms:
               1
     1  C    0.129251
     2  C    0.204967
     3  C   -0.352170
     4  C   -0.010373
     5  N   -0.189680
    12  F   -0.230993
    13  C    0.194188
    17  C    0.254811
 Electronic spatial extent (au):  <R**2>=           1205.1320
 Charge=             -0.0000 electrons
 Dipole moment (field-independent basis, Debye):
    X=             -0.2827    Y=             -5.8881    Z=              1.6044  Tot=              6.1093
 Quadrupole moment (field-independent basis, Debye-Ang):
   XX=            -41.7906   YY=            -56.7087   ZZ=            -50.8910
   XY=              3.7474   XZ=             -4.0328   YZ=              6.6459
 Traceless Quadrupole moment (field-independent basis, Debye-Ang):
   XX=              8.0062   YY=             -6.9119   ZZ=             -1.0942
   XY=              3.7474   XZ=             -4.0328   YZ=              6.6459
 Octapole moment (field-independent basis, Debye-Ang**2):
  XXX=             19.9329  YYY=            -39.3052  ZZZ=             13.7494  XYY=              5.4992
  XXY=            -12.6906  XXZ=              6.8390  XZZ=              2.2247  YZZ=            -12.3938
  YYZ=             13.5937  XYZ=             -8.5645
 Hexadecapole moment (field-independent basis, Debye-Ang**3):
 XXXX=           -772.2655 YYYY=           -506.4657 ZZZZ=           -266.9291 XXXY=            -11.0028
 XXXZ=             -9.2279 YYYX=             18.7156 YYYZ=             32.1532 ZZZX=              0.2305
 ZZZY=             18.8486 XXYY=           -220.7741 XXZZ=           -182.8015 YYZZ=           -137.0162
 XXYZ=             -2.0480 YYXZ=             -5.6235 ZZXY=              9.6074
 N-N= 3.849278261947D+02 E-N=-1.678277625175D+03  KE= 3.859528260988D+02
 Unable to Open any file for archive entry.
 1\1\GINC-NODE-006\FTS\RwB97XD\def2SVP\C6H12F1N1\JP2658\22-Dec-2023\0\\
 # wb97xd def2svp geom=allchk scrf=(iefpcm,solvent=toluene) opt=(calcfc
 ,ts,noeigen,maxcycles=50,maxstep=10)\\allyl_ts_46_reopt.out\\0,1\C,1.4
 196081332,0.0303288239,0.6309853663\C,-2.0481841471,-0.562466533,1.029
 4583866\C,0.6942661874,2.1536339077,-0.1878806133\C,-1.7892365881,0.56
 55622773,1.6722083656\N,1.1316014639,0.7490995929,-0.3904924685\H,-2.3
 250861172,0.7609269114,2.6024614072\H,-0.3095253396,2.1719902386,-0.66
 65846237\H,-2.758467602,-1.3328746558,1.3417528877\H,1.3295358198,2.73
 7329053,-0.8875545952\H,1.3654589547,0.5863278462,1.5717175772\H,-1.06
 42092802,1.3052067383,1.3028882467\F,-1.4376759836,-0.8945742499,-0.12
 33172092\C,1.7664549179,-1.4182076465,0.6161395048\H,1.948642388,-1.77
 05169483,1.6377315881\H,0.9377723597,-2.0008160801,0.1854561805\H,2.66
 83947797,-1.6132214753,0.01540917\C,1.1372081522,0.1922352203,-1.74151
 43573\H,1.6512811339,0.904816576,-2.3980450782\H,1.626178715,-0.788534
 9915,-1.8020691384\H,0.0933820526,0.1014553948,-2.0712505969\\Version=
 ES64L-G16RevC.01\State=1-A\HF=-389.8994875\RMSD=1.892e-09\RMSF=4.510e-
 06\Dipole=0.4429184,-2.3560901,-0.1730596\Quadrupole=4.304906,-8.21544
 85,3.9105425,-2.6927965,-3.0457226,-2.2868456\PG=C01 [X(C6H12F1N1)]\\@
 The archive entry for this job was punched.


 You don't have to suffer to be a poet.
 Adolescence is enough suffering for anyone.
                             -- John Ciardi
 Job cpu time:       0 days  0 hours 49 minutes 32.0 seconds.
 Elapsed time:       0 days  0 hours  4 minutes 13.1 seconds.
 File lengths (MBytes):  RWF=    114 Int=      0 D2E=      0 Chk=     13 Scr=      1
 Normal termination of Gaussian 16 at Fri Dec 22 23:10:22 2023.
