Unloading slurm/anatra/current
  ERROR: No such file or directory on
    '/cm/local/modulefiles/slurm/anatra/current'
environment: line 0: unalias: gv: not found
environment: line 0: unalias: sl: not found
 Entering Gaussian System, Link 0=g16
 Initial command:
 /apps/gaussian/g16/C.01/g16/l1.exe "/local/jobs/1151641/Gau-1967199.inp" -scrdir="/local/jobs/1151641/"
 Entering Link 1 = /apps/gaussian/g16/C.01/g16/l1.exe PID=   1967201.
  
 Copyright (c) 1988-2019, Gaussian, Inc.  All Rights Reserved.
  
 This is part of the Gaussian(R) 16 program.  It is based on
 the Gaussian(R) 09 system (copyright 2009, Gaussian, Inc.),
 the Gaussian(R) 03 system (copyright 2003, Gaussian, Inc.),
 the Gaussian(R) 98 system (copyright 1998, Gaussian, Inc.),
 the Gaussian(R) 94 system (copyright 1995, Gaussian, Inc.),
 the Gaussian 92(TM) system (copyright 1992, Gaussian, Inc.),
 the Gaussian 90(TM) system (copyright 1990, Gaussian, Inc.),
 the Gaussian 88(TM) system (copyright 1988, Gaussian, Inc.),
 the Gaussian 86(TM) system (copyright 1986, Carnegie Mellon
 University), and the Gaussian 82(TM) system (copyright 1983,
 Carnegie Mellon University). Gaussian is a federally registered
 trademark of Gaussian, Inc.
  
 This software contains proprietary and confidential information,
 including trade secrets, belonging to Gaussian, Inc.
  
 This software is provided under written license and may be
 used, copied, transmitted, or stored only in accord with that
 written license.
  
 The following legend is applicable only to US Government
 contracts under FAR:
  
                    RESTRICTED RIGHTS LEGEND
  
 Use, reproduction and disclosure by the US Government is
 subject to restrictions as set forth in subparagraphs (a)
 and (c) of the Commercial Computer Software - Restricted
 Rights clause in FAR 52.227-19.
  
 Gaussian, Inc.
 340 Quinnipiac St., Bldg. 40, Wallingford CT 06492
  
  
 ---------------------------------------------------------------
 Warning -- This program may not be used in any manner that
 competes with the business of Gaussian, Inc. or will provide
 assistance to any competitor of Gaussian, Inc.  The licensee
 of this program is prohibited from giving any competitor of
 Gaussian, Inc. access to this program.  By using this program,
 the user acknowledges that Gaussian, Inc. is engaged in the
 business of creating and licensing software in the field of
 computational chemistry and represents and warrants to the
 licensee that it is not a competitor of Gaussian, Inc. and that
 it will not use this program in any manner prohibited above.
 ---------------------------------------------------------------
  

 Cite this work as:
 Gaussian 16, Revision C.01,
 M. J. Frisch, G. W. Trucks, H. B. Schlegel, G. E. Scuseria, 
 M. A. Robb, J. R. Cheeseman, G. Scalmani, V. Barone, 
 G. A. Petersson, H. Nakatsuji, X. Li, M. Caricato, A. V. Marenich, 
 J. Bloino, B. G. Janesko, R. Gomperts, B. Mennucci, H. P. Hratchian, 
 J. V. Ortiz, A. F. Izmaylov, J. L. Sonnenberg, D. Williams-Young, 
 F. Ding, F. Lipparini, F. Egidi, J. Goings, B. Peng, A. Petrone, 
 T. Henderson, D. Ranasinghe, V. G. Zakrzewski, J. Gao, N. Rega, 
 G. Zheng, W. Liang, M. Hada, M. Ehara, K. Toyota, R. Fukuda, 
 J. Hasegawa, M. Ishida, T. Nakajima, Y. Honda, O. Kitao, H. Nakai, 
 T. Vreven, K. Throssell, J. A. Montgomery, Jr., J. E. Peralta, 
 F. Ogliaro, M. J. Bearpark, J. J. Heyd, E. N. Brothers, K. N. Kudin, 
 V. N. Staroverov, T. A. Keith, R. Kobayashi, J. Normand, 
 K. Raghavachari, A. P. Rendell, J. C. Burant, S. S. Iyengar, 
 J. Tomasi, M. Cossi, J. M. Millam, M. Klene, C. Adamo, R. Cammi, 
 J. W. Ochterski, R. L. Martin, K. Morokuma, O. Farkas, 
 J. B. Foresman, and D. J. Fox, Gaussian, Inc., Wallingford CT, 2019.
 
 ******************************************
 Gaussian 16:  ES64L-G16RevC.01  3-Jul-2019
                21-Dec-2023 
 ******************************************
 %chk=BPA_TS_1_opt_dft_re.chk
 %nprocshared=12
 Will use up to   12 processors via shared memory.
 %mem=48GB
 ----------------------------------------------------------------------
 # wb97xd def2svp geom=allchk scrf=(iefpcm,solvent=toluene) opt=(calcfc
 ,ts,noeigen,maxcycles=50,maxstep=10)
 ----------------------------------------------------------------------
 1/5=1,6=50,8=10,10=4,11=1,18=20,26=3,29=7,38=1/1,3;
 2/9=110,12=2,40=1/2;
 3/5=43,7=101,11=2,14=-4,25=1,30=1,70=2201,71=2,72=13,74=-58,140=1/1,2,3;
 4//1;
 5/5=2,38=5,53=13/2;
 8/6=4,10=90,11=11/1;
 11/6=1,8=1,9=11,15=111,16=1/1,2,10;
 10/6=1,13=1/2;
 6/7=2,8=2,9=2,10=2,28=1/1;
 7/10=1,25=1/1,2,3,16;
 1/5=1,6=50,8=10,10=4,11=1,18=20,26=3/3(2);
 2/9=110/2;
 99//99;
 2/9=110/2;
 3/5=43,7=101,11=2,14=-2,25=1,30=1,70=2205,71=1,72=13,74=-58/1,2,3;
 4/5=5,16=3,69=1/1;
 5/5=2,38=5,53=13/2;
 7//1,2,3,16;
 1/5=1,6=50,8=10,11=1,18=20,26=3/3(-5);
 2/9=110/2;
 6/7=2,8=2,9=2,10=2,19=2,28=1/1;
 99/9=1/99;
 Structure from the checkpoint file:  "BPA_TS_1_opt_dft_re.chk"
 --------------------
 BPA_TS_1_opt_dft.out
 --------------------
 Charge =  0 Multiplicity = 1
 Redundant internal coordinates found in file.  (old form).
 C,0,-1.0971597301,0.6022795587,-2.2132744195
 C,0,-0.8740028741,1.7557132383,-1.4833522258
 C,0,0.4413457025,3.7859452305,-0.7825391172
 C,0,2.889398833,2.4783649114,-1.6201074706
 O,0,-1.6721867994,2.1091257547,-0.511715031
 H,0,1.3335138642,4.3856651862,-1.0071083637
 H,0,0.4655215691,3.5113556026,0.2815075443
 H,0,-0.4335667168,4.4284851092,-0.9501576006
 O,0,3.6883784461,2.7010516673,-0.7476282033
 O,0,2.9895075147,2.9590490664,-2.85512864
 C,0,4.1398464226,3.7430146325,-3.144444407
 H,0,5.0536584706,3.1461700045,-3.0176122009
 H,0,4.0393878487,4.0611735306,-4.1872384294
 H,0,4.1906683895,4.617994025,-2.4812177735
 Si,0,-3.2380100852,2.8541399977,-0.4832369815
 C,0,-3.1821017235,4.029639579,0.9582893259
 H,0,-4.0269148149,4.7332515724,0.897243863
 H,0,-3.2582329162,3.492369753,1.9146802553
 H,0,-2.2468126441,4.6081332913,0.959171017
 C,0,-3.3829248584,3.7436044333,-2.1198353289
 H,0,-4.3806397651,4.1995721701,-2.2178372519
 H,0,-3.2442247347,3.0538484006,-2.9665156414
 H,0,-2.6367103625,4.5488447678,-2.2021307379
 C,0,-4.5495577917,1.5110112304,-0.2478603971
 C,0,-4.035101328,0.4853711801,0.7735062292
 H,0,-4.7823809628,-0.310741859,0.9330129892
 H,0,-3.1034203384,0.0025799443,0.4420748706
 H,0,-3.8378885241,0.9417725709,1.757371761
 C,0,-5.8338723598,2.1741286846,0.2828121764
 H,0,-5.6852623281,2.6326242588,1.2725831526
 H,0,-6.6300566069,1.4176645266,0.3884362531
 H,0,-6.2148339785,2.9531320883,-0.3985649484
 C,0,-4.8627490135,0.8210436196,-1.5846246033
 H,0,-5.6085941314,0.0215551123,-1.4329382789
 H,0,-5.2844357731,1.5246243926,-2.3194338298
 H,0,-3.9749124291,0.3561650173,-2.0394198575
 C,0,1.6350229423,1.6180667771,-1.4617361663
 C,0,0.3814282318,2.5480788974,-1.6686462044
 C,0,-0.265008448,0.2529336819,-3.2777185878
 O,0,1.6717136425,0.6028384202,-2.399930579
 H,0,1.6297347934,1.233356779,-0.4303203744
 C,0,-0.2235344139,-1.1187375836,-3.8331554819
 H,0,-1.8260362554,-0.1204955217,-1.8386940064
 H,0,0.4377460742,2.8449373436,-2.7306305582
 C,0,1.9456654449,3.0520393452,2.7688111522
 C,0,0.7667496641,3.669537595,3.1028502196
 C,0,-0.454688731,2.9710802002,2.9545411318
 C,0,-0.4750818912,1.6785444669,2.488708987
 H,0,2.8968713721,3.5824668113,2.8543271325
 H,0,0.7655976963,4.6980101481,3.4697349002
 H,0,-1.3908594843,3.470454268,3.2079745146
 H,0,-1.4268844222,1.1643965085,2.3563357515
 C,0,1.958950655,1.7080593603,2.304364778
 C,0,0.7329558602,0.9921728838,2.1790015802
 C,0,0.7718908232,-0.3750497236,1.7393474885
 C,0,1.9917719338,-0.9234188997,1.3772860179
 C,0,3.2238645769,-0.2089868434,1.4734229571
 C,0,3.1787822701,1.0796659761,1.9496484394
 O,0,2.0196466454,-2.2004676177,0.9060979158
 H,0,4.1050392141,1.649108011,2.0443858966
 C,0,-2.8394134329,-2.6786388285,1.2760157299
 C,0,-1.9742210531,-2.5455089303,0.2165473182
 C,0,-0.7577251836,-1.8277200873,0.4231618651
 C,0,-0.4565079016,-1.2134106084,1.6296002364
 H,0,-3.7809173709,-3.2150797033,1.1337324467
 O,0,0.0931732598,-1.6931931343,-0.6300786489
 C,0,-1.3260377229,-1.431772788,2.75055352
 C,0,-2.5363744946,-2.1572940319,2.5590002822
 C,0,-3.4175449029,-2.3539451296,3.6577460698
 C,0,-3.1038708763,-1.8787917743,4.9066174738
 C,0,-1.8798312675,-1.1978272272,5.111128652
 C,0,-1.0154290878,-0.982249659,4.065290021
 H,0,-4.3475688924,-2.9028358506,3.4896959026
 H,0,-3.7848549795,-2.0391782752,5.7450774038
 H,0,-1.6155869307,-0.8480770937,6.1114323207
 H,0,-0.0706383886,-0.4678354849,4.2433579262
 C,0,6.9936611484,-1.8828527392,0.2748407216
 C,0,6.1124555976,-2.6395028084,1.0474192968
 C,0,4.881212961,-2.1128344441,1.4291004
 C,0,4.5133052915,-0.8150988674,1.0473243835
 C,0,5.4043990252,-0.0624613235,0.2698763755
 C,0,6.634793438,-0.5930109469,-0.113053669
 H,0,7.9562477234,-2.3010590842,-0.0282528558
 H,0,6.3840248533,-3.6518125495,1.3547817929
 H,0,4.1970444466,-2.7149465967,2.0278398721
 H,0,5.1151389123,0.94052466,-0.0517032631
 H,0,7.3138552159,0.0042032003,-0.7260342065
 P,0,1.5686831004,-2.4804044442,-0.6588372918
 O,0,1.4368804235,-3.9446670895,-0.8305609632
 O,0,2.3820781445,-1.6137503466,-1.5943433751
 H,0,1.9881821231,-0.3052943509,-2.0042231585
 C,0,-3.138970001,-3.9420950815,-3.6759723563
 C,0,-1.949270588,-4.3966836174,-3.104598047
 C,0,-1.5499562079,-3.9537642132,-1.8447391918
 C,0,-2.3506803584,-3.0505137746,-1.1327195882
 C,0,-3.5517732089,-2.611529432,-1.705485809
 C,0,-3.9420220501,-3.0462434216,-2.971807439
 H,0,-3.4401839119,-4.2881192878,-4.6673774752
 H,0,-1.3157439731,-5.1010921668,-3.6482946994
 H,0,-0.6014155463,-4.2920206322,-1.4204376512
 H,0,-4.1801608227,-1.9107658681,-1.152273526
 H,0,-4.8768336737,-2.6839444643,-3.4060728291
 H,0,0.1639776399,1.0423572398,-3.8939888168
 H,0,0.7479469644,-1.5630428846,-3.5571163012
 H,0,-1.0071520142,-1.7599151386,-3.411241567
 H,0,-0.274604937,-1.1044427353,-4.9305979615
 Recover connectivity data from disk.

 GradGradGradGradGradGradGradGradGradGradGradGradGradGradGradGradGradGrad
 Berny optimization.
 Initialization pass.
                           ----------------------------
                           !    Initial Parameters    !
                           ! (Angstroms and Degrees)  !
 --------------------------                            --------------------------
 ! Name  Definition              Value          Derivative Info.                !
 --------------------------------------------------------------------------------
 ! R1    R(1,2)                  1.3831         calculate D2E/DX2 analytically  !
 ! R2    R(1,39)                 1.3955         calculate D2E/DX2 analytically  !
 ! R3    R(1,43)                 1.0927         calculate D2E/DX2 analytically  !
 ! R4    R(2,5)                  1.3062         calculate D2E/DX2 analytically  !
 ! R5    R(2,38)                 1.4961         calculate D2E/DX2 analytically  !
 ! R6    R(3,6)                  1.0982         calculate D2E/DX2 analytically  !
 ! R7    R(3,7)                  1.0992         calculate D2E/DX2 analytically  !
 ! R8    R(3,8)                  1.0984         calculate D2E/DX2 analytically  !
 ! R9    R(3,38)                 1.5235         calculate D2E/DX2 analytically  !
 ! R10   R(4,9)                  1.2038         calculate D2E/DX2 analytically  !
 ! R11   R(4,10)                 1.329          calculate D2E/DX2 analytically  !
 ! R12   R(4,37)                 1.5293         calculate D2E/DX2 analytically  !
 ! R13   R(5,15)                 1.7343         calculate D2E/DX2 analytically  !
 ! R14   R(10,11)                1.4218         calculate D2E/DX2 analytically  !
 ! R15   R(11,12)                1.0988         calculate D2E/DX2 analytically  !
 ! R16   R(11,13)                1.0949         calculate D2E/DX2 analytically  !
 ! R17   R(11,14)                1.0991         calculate D2E/DX2 analytically  !
 ! R18   R(15,16)                1.8609         calculate D2E/DX2 analytically  !
 ! R19   R(15,20)                1.8683         calculate D2E/DX2 analytically  !
 ! R20   R(15,24)                1.892          calculate D2E/DX2 analytically  !
 ! R21   R(16,17)                1.1011         calculate D2E/DX2 analytically  !
 ! R22   R(16,18)                1.0996         calculate D2E/DX2 analytically  !
 ! R23   R(16,19)                1.0997         calculate D2E/DX2 analytically  !
 ! R24   R(18,51)                2.2716         calculate D2E/DX2 analytically  !
 ! R25   R(20,21)                1.1013         calculate D2E/DX2 analytically  !
 ! R26   R(20,22)                1.1008         calculate D2E/DX2 analytically  !
 ! R27   R(20,23)                1.1009         calculate D2E/DX2 analytically  !
 ! R28   R(24,25)                1.5362         calculate D2E/DX2 analytically  !
 ! R29   R(24,29)                1.5397         calculate D2E/DX2 analytically  !
 ! R30   R(24,33)                1.5366         calculate D2E/DX2 analytically  !
 ! R31   R(25,26)                1.1035         calculate D2E/DX2 analytically  !
 ! R32   R(25,27)                1.1004         calculate D2E/DX2 analytically  !
 ! R33   R(25,28)                1.1024         calculate D2E/DX2 analytically  !
 ! R34   R(29,30)                1.1009         calculate D2E/DX2 analytically  !
 ! R35   R(29,31)                1.1033         calculate D2E/DX2 analytically  !
 ! R36   R(29,32)                1.1028         calculate D2E/DX2 analytically  !
 ! R37   R(33,34)                1.1038         calculate D2E/DX2 analytically  !
 ! R38   R(33,35)                1.1013         calculate D2E/DX2 analytically  !
 ! R39   R(33,36)                1.1005         calculate D2E/DX2 analytically  !
 ! R40   R(37,38)                1.5746         calculate D2E/DX2 analytically  !
 ! R41   R(37,40)                1.3828         calculate D2E/DX2 analytically  !
 ! R42   R(37,41)                1.1008         calculate D2E/DX2 analytically  !
 ! R43   R(37,44)                2.1328         calculate D2E/DX2 analytically  !
 ! R44   R(38,44)                1.1041         calculate D2E/DX2 analytically  !
 ! R45   R(39,42)                1.4804         calculate D2E/DX2 analytically  !
 ! R46   R(39,103)               1.0895         calculate D2E/DX2 analytically  !
 ! R47   R(40,91)                1.0399         calculate D2E/DX2 analytically  !
 ! R48   R(40,103)               2.1676         calculate D2E/DX2 analytically  !
 ! R49   R(42,104)               1.1033         calculate D2E/DX2 analytically  !
 ! R50   R(42,105)               1.0969         calculate D2E/DX2 analytically  !
 ! R51   R(42,106)               1.0987         calculate D2E/DX2 analytically  !
 ! R52   R(45,46)                1.3721         calculate D2E/DX2 analytically  !
 ! R53   R(45,49)                1.0925         calculate D2E/DX2 analytically  !
 ! R54   R(45,53)                1.422          calculate D2E/DX2 analytically  !
 ! R55   R(46,47)                1.4148         calculate D2E/DX2 analytically  !
 ! R56   R(46,50)                1.092          calculate D2E/DX2 analytically  !
 ! R57   R(47,48)                1.3741         calculate D2E/DX2 analytically  !
 ! R58   R(47,51)                1.0909         calculate D2E/DX2 analytically  !
 ! R59   R(48,52)                1.0899         calculate D2E/DX2 analytically  !
 ! R60   R(48,54)                1.4235         calculate D2E/DX2 analytically  !
 ! R61   R(53,54)                1.4252         calculate D2E/DX2 analytically  !
 ! R62   R(53,58)                1.4173         calculate D2E/DX2 analytically  !
 ! R63   R(54,55)                1.4367         calculate D2E/DX2 analytically  !
 ! R64   R(55,56)                1.3856         calculate D2E/DX2 analytically  !
 ! R65   R(55,64)                1.4913         calculate D2E/DX2 analytically  !
 ! R66   R(56,57)                1.4275         calculate D2E/DX2 analytically  !
 ! R67   R(56,59)                1.3615         calculate D2E/DX2 analytically  !
 ! R68   R(57,58)                1.3746         calculate D2E/DX2 analytically  !
 ! R69   R(57,80)                1.4871         calculate D2E/DX2 analytically  !
 ! R70   R(58,60)                1.0914         calculate D2E/DX2 analytically  !
 ! R71   R(59,88)                1.6525         calculate D2E/DX2 analytically  !
 ! R72   R(61,62)                1.3743         calculate D2E/DX2 analytically  !
 ! R73   R(61,65)                1.0929         calculate D2E/DX2 analytically  !
 ! R74   R(61,68)                1.4176         calculate D2E/DX2 analytically  !
 ! R75   R(62,63)                1.4275         calculate D2E/DX2 analytically  !
 ! R76   R(62,95)                1.4891         calculate D2E/DX2 analytically  !
 ! R77   R(63,64)                1.3869         calculate D2E/DX2 analytically  !
 ! R78   R(63,66)                1.3607         calculate D2E/DX2 analytically  !
 ! R79   R(64,67)                1.4354         calculate D2E/DX2 analytically  !
 ! R80   R(66,88)                1.6726         calculate D2E/DX2 analytically  !
 ! R81   R(67,68)                1.4241         calculate D2E/DX2 analytically  !
 ! R82   R(67,72)                1.4238         calculate D2E/DX2 analytically  !
 ! R83   R(68,69)                1.4221         calculate D2E/DX2 analytically  !
 ! R84   R(69,70)                1.3725         calculate D2E/DX2 analytically  !
 ! R85   R(69,73)                1.0929         calculate D2E/DX2 analytically  !
 ! R86   R(70,71)                1.4156         calculate D2E/DX2 analytically  !
 ! R87   R(70,74)                1.092          calculate D2E/DX2 analytically  !
 ! R88   R(71,72)                1.3738         calculate D2E/DX2 analytically  !
 ! R89   R(71,75)                1.0921         calculate D2E/DX2 analytically  !
 ! R90   R(72,76)                1.0904         calculate D2E/DX2 analytically  !
 ! R91   R(77,78)                1.395          calculate D2E/DX2 analytically  !
 ! R92   R(77,82)                1.3939         calculate D2E/DX2 analytically  !
 ! R93   R(77,83)                1.0924         calculate D2E/DX2 analytically  !
 ! R94   R(78,79)                1.3925         calculate D2E/DX2 analytically  !
 ! R95   R(78,84)                1.0922         calculate D2E/DX2 analytically  !
 ! R96   R(79,80)                1.4019         calculate D2E/DX2 analytically  !
 ! R97   R(79,85)                1.0905         calculate D2E/DX2 analytically  !
 ! R98   R(80,81)                1.4018         calculate D2E/DX2 analytically  !
 ! R99   R(81,82)                1.3936         calculate D2E/DX2 analytically  !
 ! R100  R(81,86)                1.0923         calculate D2E/DX2 analytically  !
 ! R101  R(82,87)                1.0925         calculate D2E/DX2 analytically  !
 ! R102  R(88,89)                1.4802         calculate D2E/DX2 analytically  !
 ! R103  R(88,90)                1.5126         calculate D2E/DX2 analytically  !
 ! R104  R(90,91)                1.4266         calculate D2E/DX2 analytically  !
 ! R105  R(92,93)                1.3959         calculate D2E/DX2 analytically  !
 ! R106  R(92,97)                1.394          calculate D2E/DX2 analytically  !
 ! R107  R(92,98)                1.0924         calculate D2E/DX2 analytically  !
 ! R108  R(93,94)                1.3939         calculate D2E/DX2 analytically  !
 ! R109  R(93,99)                1.0923         calculate D2E/DX2 analytically  !
 ! R110  R(94,95)                1.4014         calculate D2E/DX2 analytically  !
 ! R111  R(94,100)               1.0928         calculate D2E/DX2 analytically  !
 ! R112  R(95,96)                1.4012         calculate D2E/DX2 analytically  !
 ! R113  R(96,97)                1.3946         calculate D2E/DX2 analytically  !
 ! R114  R(96,101)               1.0918         calculate D2E/DX2 analytically  !
 ! R115  R(97,102)               1.0926         calculate D2E/DX2 analytically  !
 ! A1    A(2,1,39)             121.0028         calculate D2E/DX2 analytically  !
 ! A2    A(2,1,43)             118.5766         calculate D2E/DX2 analytically  !
 ! A3    A(39,1,43)            119.5802         calculate D2E/DX2 analytically  !
 ! A4    A(1,2,5)              121.3069         calculate D2E/DX2 analytically  !
 ! A5    A(1,2,38)             120.7775         calculate D2E/DX2 analytically  !
 ! A6    A(5,2,38)             117.4917         calculate D2E/DX2 analytically  !
 ! A7    A(6,3,7)              108.4517         calculate D2E/DX2 analytically  !
 ! A8    A(6,3,8)              107.2441         calculate D2E/DX2 analytically  !
 ! A9    A(6,3,38)             110.8988         calculate D2E/DX2 analytically  !
 ! A10   A(7,3,8)              108.143          calculate D2E/DX2 analytically  !
 ! A11   A(7,3,38)             111.1569         calculate D2E/DX2 analytically  !
 ! A12   A(8,3,38)             110.8072         calculate D2E/DX2 analytically  !
 ! A13   A(9,4,10)             123.8203         calculate D2E/DX2 analytically  !
 ! A14   A(9,4,37)             124.9883         calculate D2E/DX2 analytically  !
 ! A15   A(10,4,37)            111.1912         calculate D2E/DX2 analytically  !
 ! A16   A(2,5,15)             132.8582         calculate D2E/DX2 analytically  !
 ! A17   A(4,10,11)            116.7084         calculate D2E/DX2 analytically  !
 ! A18   A(10,11,12)           110.479          calculate D2E/DX2 analytically  !
 ! A19   A(10,11,13)           106.248          calculate D2E/DX2 analytically  !
 ! A20   A(10,11,14)           110.7057         calculate D2E/DX2 analytically  !
 ! A21   A(12,11,13)           110.1261         calculate D2E/DX2 analytically  !
 ! A22   A(12,11,14)           108.9236         calculate D2E/DX2 analytically  !
 ! A23   A(13,11,14)           110.3425         calculate D2E/DX2 analytically  !
 ! A24   A(5,15,16)            104.8896         calculate D2E/DX2 analytically  !
 ! A25   A(5,15,20)            105.0798         calculate D2E/DX2 analytically  !
 ! A26   A(5,15,24)            108.8424         calculate D2E/DX2 analytically  !
 ! A27   A(16,15,20)           112.344          calculate D2E/DX2 analytically  !
 ! A28   A(16,15,24)           111.8943         calculate D2E/DX2 analytically  !
 ! A29   A(20,15,24)           113.1526         calculate D2E/DX2 analytically  !
 ! A30   A(15,16,17)           109.7333         calculate D2E/DX2 analytically  !
 ! A31   A(15,16,18)           111.2862         calculate D2E/DX2 analytically  !
 ! A32   A(15,16,19)           111.0055         calculate D2E/DX2 analytically  !
 ! A33   A(17,16,18)           107.8971         calculate D2E/DX2 analytically  !
 ! A34   A(17,16,19)           108.4461         calculate D2E/DX2 analytically  !
 ! A35   A(18,16,19)           108.3731         calculate D2E/DX2 analytically  !
 ! A36   A(16,18,51)           116.2941         calculate D2E/DX2 analytically  !
 ! A37   A(15,20,21)           110.2011         calculate D2E/DX2 analytically  !
 ! A38   A(15,20,22)           111.4481         calculate D2E/DX2 analytically  !
 ! A39   A(15,20,23)           111.1692         calculate D2E/DX2 analytically  !
 ! A40   A(21,20,22)           107.7646         calculate D2E/DX2 analytically  !
 ! A41   A(21,20,23)           107.732          calculate D2E/DX2 analytically  !
 ! A42   A(22,20,23)           108.3847         calculate D2E/DX2 analytically  !
 ! A43   A(15,24,25)           108.9378         calculate D2E/DX2 analytically  !
 ! A44   A(15,24,29)           108.3827         calculate D2E/DX2 analytically  !
 ! A45   A(15,24,33)           110.5995         calculate D2E/DX2 analytically  !
 ! A46   A(25,24,29)           109.7387         calculate D2E/DX2 analytically  !
 ! A47   A(25,24,33)           110.2967         calculate D2E/DX2 analytically  !
 ! A48   A(29,24,33)           108.8567         calculate D2E/DX2 analytically  !
 ! A49   A(24,25,26)           110.5488         calculate D2E/DX2 analytically  !
 ! A50   A(24,25,27)           112.0992         calculate D2E/DX2 analytically  !
 ! A51   A(24,25,28)           112.1418         calculate D2E/DX2 analytically  !
 ! A52   A(26,25,27)           107.4795         calculate D2E/DX2 analytically  !
 ! A53   A(26,25,28)           106.9083         calculate D2E/DX2 analytically  !
 ! A54   A(27,25,28)           107.3967         calculate D2E/DX2 analytically  !
 ! A55   A(24,29,30)           112.1251         calculate D2E/DX2 analytically  !
 ! A56   A(24,29,31)           109.8546         calculate D2E/DX2 analytically  !
 ! A57   A(24,29,32)           112.2966         calculate D2E/DX2 analytically  !
 ! A58   A(30,29,31)           107.2711         calculate D2E/DX2 analytically  !
 ! A59   A(30,29,32)           107.9343         calculate D2E/DX2 analytically  !
 ! A60   A(31,29,32)           107.1079         calculate D2E/DX2 analytically  !
 ! A61   A(24,33,34)           110.0837         calculate D2E/DX2 analytically  !
 ! A62   A(24,33,35)           111.8169         calculate D2E/DX2 analytically  !
 ! A63   A(24,33,36)           112.6282         calculate D2E/DX2 analytically  !
 ! A64   A(34,33,35)           107.1991         calculate D2E/DX2 analytically  !
 ! A65   A(34,33,36)           107.2135         calculate D2E/DX2 analytically  !
 ! A66   A(35,33,36)           107.6401         calculate D2E/DX2 analytically  !
 ! A67   A(4,37,38)            107.8883         calculate D2E/DX2 analytically  !
 ! A68   A(4,37,40)            108.7224         calculate D2E/DX2 analytically  !
 ! A69   A(4,37,41)            107.3115         calculate D2E/DX2 analytically  !
 ! A70   A(4,37,44)             94.315          calculate D2E/DX2 analytically  !
 ! A71   A(38,37,40)           111.4447         calculate D2E/DX2 analytically  !
 ! A72   A(38,37,41)           109.0086         calculate D2E/DX2 analytically  !
 ! A73   A(40,37,41)           112.2859         calculate D2E/DX2 analytically  !
 ! A74   A(40,37,44)            91.9239         calculate D2E/DX2 analytically  !
 ! A75   A(41,37,44)           139.0918         calculate D2E/DX2 analytically  !
 ! A76   A(2,38,3)             113.0349         calculate D2E/DX2 analytically  !
 ! A77   A(2,38,37)            109.8154         calculate D2E/DX2 analytically  !
 ! A78   A(2,38,44)            107.7174         calculate D2E/DX2 analytically  !
 ! A79   A(3,38,37)            111.8493         calculate D2E/DX2 analytically  !
 ! A80   A(3,38,44)            109.8136         calculate D2E/DX2 analytically  !
 ! A81   A(1,39,42)            122.3309         calculate D2E/DX2 analytically  !
 ! A82   A(1,39,103)           119.0024         calculate D2E/DX2 analytically  !
 ! A83   A(42,39,103)          116.621          calculate D2E/DX2 analytically  !
 ! A84   A(37,40,91)           113.0188         calculate D2E/DX2 analytically  !
 ! A85   A(37,40,103)          107.4764         calculate D2E/DX2 analytically  !
 ! A86   A(91,40,103)          130.6181         calculate D2E/DX2 analytically  !
 ! A87   A(39,42,104)          107.6922         calculate D2E/DX2 analytically  !
 ! A88   A(39,42,105)          112.1644         calculate D2E/DX2 analytically  !
 ! A89   A(39,42,106)          111.1855         calculate D2E/DX2 analytically  !
 ! A90   A(104,42,105)         107.3013         calculate D2E/DX2 analytically  !
 ! A91   A(104,42,106)         107.2209         calculate D2E/DX2 analytically  !
 ! A92   A(105,42,106)         111.0139         calculate D2E/DX2 analytically  !
 ! A93   A(46,45,49)           120.6996         calculate D2E/DX2 analytically  !
 ! A94   A(46,45,53)           120.8551         calculate D2E/DX2 analytically  !
 ! A95   A(49,45,53)           118.4453         calculate D2E/DX2 analytically  !
 ! A96   A(45,46,47)           119.6079         calculate D2E/DX2 analytically  !
 ! A97   A(45,46,50)           120.4356         calculate D2E/DX2 analytically  !
 ! A98   A(47,46,50)           119.9522         calculate D2E/DX2 analytically  !
 ! A99   A(46,47,48)           120.8455         calculate D2E/DX2 analytically  !
 ! A100  A(46,47,51)           119.3757         calculate D2E/DX2 analytically  !
 ! A101  A(48,47,51)           119.7775         calculate D2E/DX2 analytically  !
 ! A102  A(47,48,52)           119.8612         calculate D2E/DX2 analytically  !
 ! A103  A(47,48,54)           120.9789         calculate D2E/DX2 analytically  !
 ! A104  A(52,48,54)           119.1594         calculate D2E/DX2 analytically  !
 ! A105  A(18,51,47)           125.2831         calculate D2E/DX2 analytically  !
 ! A106  A(45,53,54)           119.6974         calculate D2E/DX2 analytically  !
 ! A107  A(45,53,58)           120.5858         calculate D2E/DX2 analytically  !
 ! A108  A(54,53,58)           119.7124         calculate D2E/DX2 analytically  !
 ! A109  A(48,54,53)           117.9483         calculate D2E/DX2 analytically  !
 ! A110  A(48,54,55)           123.2592         calculate D2E/DX2 analytically  !
 ! A111  A(53,54,55)           118.7907         calculate D2E/DX2 analytically  !
 ! A112  A(54,55,56)           118.7144         calculate D2E/DX2 analytically  !
 ! A113  A(54,55,64)           122.357          calculate D2E/DX2 analytically  !
 ! A114  A(56,55,64)           118.9135         calculate D2E/DX2 analytically  !
 ! A115  A(55,56,57)           122.9713         calculate D2E/DX2 analytically  !
 ! A116  A(55,56,59)           118.6641         calculate D2E/DX2 analytically  !
 ! A117  A(57,56,59)           118.3646         calculate D2E/DX2 analytically  !
 ! A118  A(56,57,58)           117.6601         calculate D2E/DX2 analytically  !
 ! A119  A(56,57,80)           121.675          calculate D2E/DX2 analytically  !
 ! A120  A(58,57,80)           120.6503         calculate D2E/DX2 analytically  !
 ! A121  A(53,58,57)           122.0462         calculate D2E/DX2 analytically  !
 ! A122  A(53,58,60)           118.5146         calculate D2E/DX2 analytically  !
 ! A123  A(57,58,60)           119.4308         calculate D2E/DX2 analytically  !
 ! A124  A(56,59,88)           118.7542         calculate D2E/DX2 analytically  !
 ! A125  A(62,61,65)           119.3088         calculate D2E/DX2 analytically  !
 ! A126  A(62,61,68)           121.8357         calculate D2E/DX2 analytically  !
 ! A127  A(65,61,68)           118.8477         calculate D2E/DX2 analytically  !
 ! A128  A(61,62,63)           118.2692         calculate D2E/DX2 analytically  !
 ! A129  A(61,62,95)           120.4325         calculate D2E/DX2 analytically  !
 ! A130  A(63,62,95)           121.1399         calculate D2E/DX2 analytically  !
 ! A131  A(62,63,64)           122.2554         calculate D2E/DX2 analytically  !
 ! A132  A(62,63,66)           118.0726         calculate D2E/DX2 analytically  !
 ! A133  A(64,63,66)           119.5849         calculate D2E/DX2 analytically  !
 ! A134  A(55,64,63)           119.4668         calculate D2E/DX2 analytically  !
 ! A135  A(55,64,67)           121.8068         calculate D2E/DX2 analytically  !
 ! A136  A(63,64,67)           118.7093         calculate D2E/DX2 analytically  !
 ! A137  A(63,66,88)           121.2272         calculate D2E/DX2 analytically  !
 ! A138  A(64,67,68)           119.1648         calculate D2E/DX2 analytically  !
 ! A139  A(64,67,72)           122.7489         calculate D2E/DX2 analytically  !
 ! A140  A(68,67,72)           118.0657         calculate D2E/DX2 analytically  !
 ! A141  A(61,68,67)           119.3916         calculate D2E/DX2 analytically  !
 ! A142  A(61,68,69)           121.0595         calculate D2E/DX2 analytically  !
 ! A143  A(67,68,69)           119.5479         calculate D2E/DX2 analytically  !
 ! A144  A(68,69,70)           120.8994         calculate D2E/DX2 analytically  !
 ! A145  A(68,69,73)           118.5498         calculate D2E/DX2 analytically  !
 ! A146  A(70,69,73)           120.5473         calculate D2E/DX2 analytically  !
 ! A147  A(69,70,71)           119.71           calculate D2E/DX2 analytically  !
 ! A148  A(69,70,74)           120.3496         calculate D2E/DX2 analytically  !
 ! A149  A(71,70,74)           119.9313         calculate D2E/DX2 analytically  !
 ! A150  A(70,71,72)           120.6348         calculate D2E/DX2 analytically  !
 ! A151  A(70,71,75)           119.7092         calculate D2E/DX2 analytically  !
 ! A152  A(72,71,75)           119.6538         calculate D2E/DX2 analytically  !
 ! A153  A(67,72,71)           121.0746         calculate D2E/DX2 analytically  !
 ! A154  A(67,72,76)           119.2606         calculate D2E/DX2 analytically  !
 ! A155  A(71,72,76)           119.6618         calculate D2E/DX2 analytically  !
 ! A156  A(78,77,82)           119.565          calculate D2E/DX2 analytically  !
 ! A157  A(78,77,83)           120.1754         calculate D2E/DX2 analytically  !
 ! A158  A(82,77,83)           120.2588         calculate D2E/DX2 analytically  !
 ! A159  A(77,78,79)           120.3453         calculate D2E/DX2 analytically  !
 ! A160  A(77,78,84)           120.0999         calculate D2E/DX2 analytically  !
 ! A161  A(79,78,84)           119.5546         calculate D2E/DX2 analytically  !
 ! A162  A(78,79,80)           120.4996         calculate D2E/DX2 analytically  !
 ! A163  A(78,79,85)           119.7634         calculate D2E/DX2 analytically  !
 ! A164  A(80,79,85)           119.7369         calculate D2E/DX2 analytically  !
 ! A165  A(57,80,79)           121.7907         calculate D2E/DX2 analytically  !
 ! A166  A(57,80,81)           119.4237         calculate D2E/DX2 analytically  !
 ! A167  A(79,80,81)           118.7671         calculate D2E/DX2 analytically  !
 ! A168  A(80,81,82)           120.6142         calculate D2E/DX2 analytically  !
 ! A169  A(80,81,86)           119.2074         calculate D2E/DX2 analytically  !
 ! A170  A(82,81,86)           120.1663         calculate D2E/DX2 analytically  !
 ! A171  A(77,82,81)           120.2082         calculate D2E/DX2 analytically  !
 ! A172  A(77,82,87)           120.1297         calculate D2E/DX2 analytically  !
 ! A173  A(81,82,87)           119.6603         calculate D2E/DX2 analytically  !
 ! A174  A(59,88,66)            98.3215         calculate D2E/DX2 analytically  !
 ! A175  A(59,88,89)           107.5627         calculate D2E/DX2 analytically  !
 ! A176  A(59,88,90)           109.9927         calculate D2E/DX2 analytically  !
 ! A177  A(66,88,89)           112.8941         calculate D2E/DX2 analytically  !
 ! A178  A(66,88,90)           102.4363         calculate D2E/DX2 analytically  !
 ! A179  A(89,88,90)           122.8838         calculate D2E/DX2 analytically  !
 ! A180  A(88,90,91)           123.6924         calculate D2E/DX2 analytically  !
 ! A181  A(93,92,97)           119.5707         calculate D2E/DX2 analytically  !
 ! A182  A(93,92,98)           120.2207         calculate D2E/DX2 analytically  !
 ! A183  A(97,92,98)           120.2084         calculate D2E/DX2 analytically  !
 ! A184  A(92,93,94)           120.7073         calculate D2E/DX2 analytically  !
 ! A185  A(92,93,99)           120.0387         calculate D2E/DX2 analytically  !
 ! A186  A(94,93,99)           119.2523         calculate D2E/DX2 analytically  !
 ! A187  A(93,94,95)           120.0226         calculate D2E/DX2 analytically  !
 ! A188  A(93,94,100)          120.0828         calculate D2E/DX2 analytically  !
 ! A189  A(95,94,100)          119.8796         calculate D2E/DX2 analytically  !
 ! A190  A(62,95,94)           122.3106         calculate D2E/DX2 analytically  !
 ! A191  A(62,95,96)           118.7411         calculate D2E/DX2 analytically  !
 ! A192  A(94,95,96)           118.9473         calculate D2E/DX2 analytically  !
 ! A193  A(95,96,97)           120.8894         calculate D2E/DX2 analytically  !
 ! A194  A(95,96,101)          119.1648         calculate D2E/DX2 analytically  !
 ! A195  A(97,96,101)          119.942          calculate D2E/DX2 analytically  !
 ! A196  A(92,97,96)           119.8543         calculate D2E/DX2 analytically  !
 ! A197  A(92,97,102)          120.3454         calculate D2E/DX2 analytically  !
 ! A198  A(96,97,102)          119.8002         calculate D2E/DX2 analytically  !
 ! A199  A(39,103,40)           74.7569         calculate D2E/DX2 analytically  !
 ! A200  L(40,91,90,26,-1)     180.6463         calculate D2E/DX2 analytically  !
 ! A201  L(40,91,90,26,-2)     173.8563         calculate D2E/DX2 analytically  !
 ! D1    D(39,1,2,5)           177.9295         calculate D2E/DX2 analytically  !
 ! D2    D(39,1,2,38)           -9.731          calculate D2E/DX2 analytically  !
 ! D3    D(43,1,2,5)           -12.6108         calculate D2E/DX2 analytically  !
 ! D4    D(43,1,2,38)          159.7287         calculate D2E/DX2 analytically  !
 ! D5    D(2,1,39,42)          162.4838         calculate D2E/DX2 analytically  !
 ! D6    D(2,1,39,103)         -34.3387         calculate D2E/DX2 analytically  !
 ! D7    D(43,1,39,42)          -6.8715         calculate D2E/DX2 analytically  !
 ! D8    D(43,1,39,103)        156.3059         calculate D2E/DX2 analytically  !
 ! D9    D(1,2,5,15)           -77.8146         calculate D2E/DX2 analytically  !
 ! D10   D(38,2,5,15)          109.6034         calculate D2E/DX2 analytically  !
 ! D11   D(1,2,38,3)           179.733          calculate D2E/DX2 analytically  !
 ! D12   D(1,2,38,37)          -54.6001         calculate D2E/DX2 analytically  !
 ! D13   D(1,2,38,44)           58.2324         calculate D2E/DX2 analytically  !
 ! D14   D(5,2,38,3)            -7.6437         calculate D2E/DX2 analytically  !
 ! D15   D(5,2,38,37)          118.0232         calculate D2E/DX2 analytically  !
 ! D16   D(5,2,38,44)         -129.1443         calculate D2E/DX2 analytically  !
 ! D17   D(6,3,38,2)          -175.1727         calculate D2E/DX2 analytically  !
 ! D18   D(6,3,38,37)           60.2611         calculate D2E/DX2 analytically  !
 ! D19   D(6,3,38,44)          -54.8619         calculate D2E/DX2 analytically  !
 ! D20   D(7,3,38,2)            64.0931         calculate D2E/DX2 analytically  !
 ! D21   D(7,3,38,37)          -60.4731         calculate D2E/DX2 analytically  !
 ! D22   D(7,3,38,44)         -175.5961         calculate D2E/DX2 analytically  !
 ! D23   D(8,3,38,2)           -56.1889         calculate D2E/DX2 analytically  !
 ! D24   D(8,3,38,37)          179.2448         calculate D2E/DX2 analytically  !
 ! D25   D(8,3,38,44)           64.1218         calculate D2E/DX2 analytically  !
 ! D26   D(9,4,10,11)            2.0847         calculate D2E/DX2 analytically  !
 ! D27   D(37,4,10,11)        -178.0452         calculate D2E/DX2 analytically  !
 ! D28   D(9,4,37,38)          115.7125         calculate D2E/DX2 analytically  !
 ! D29   D(9,4,37,40)         -123.288          calculate D2E/DX2 analytically  !
 ! D30   D(9,4,37,41)           -1.6163         calculate D2E/DX2 analytically  !
 ! D31   D(9,4,37,44)          143.2078         calculate D2E/DX2 analytically  !
 ! D32   D(10,4,37,38)         -64.1557         calculate D2E/DX2 analytically  !
 ! D33   D(10,4,37,40)          56.8437         calculate D2E/DX2 analytically  !
 ! D34   D(10,4,37,41)         178.5154         calculate D2E/DX2 analytically  !
 ! D35   D(10,4,37,44)         -36.6604         calculate D2E/DX2 analytically  !
 ! D36   D(2,5,15,16)         -141.4482         calculate D2E/DX2 analytically  !
 ! D37   D(2,5,15,20)          -22.8252         calculate D2E/DX2 analytically  !
 ! D38   D(2,5,15,24)           98.6554         calculate D2E/DX2 analytically  !
 ! D39   D(4,10,11,12)          61.577          calculate D2E/DX2 analytically  !
 ! D40   D(4,10,11,13)        -178.9888         calculate D2E/DX2 analytically  !
 ! D41   D(4,10,11,14)         -59.1704         calculate D2E/DX2 analytically  !
 ! D42   D(5,15,16,17)         165.2107         calculate D2E/DX2 analytically  !
 ! D43   D(5,15,16,18)         -75.4395         calculate D2E/DX2 analytically  !
 ! D44   D(5,15,16,19)          45.355          calculate D2E/DX2 analytically  !
 ! D45   D(20,15,16,17)         51.6112         calculate D2E/DX2 analytically  !
 ! D46   D(20,15,16,18)        170.961          calculate D2E/DX2 analytically  !
 ! D47   D(20,15,16,19)        -68.2445         calculate D2E/DX2 analytically  !
 ! D48   D(24,15,16,17)        -76.9484         calculate D2E/DX2 analytically  !
 ! D49   D(24,15,16,18)         42.4015         calculate D2E/DX2 analytically  !
 ! D50   D(24,15,16,19)        163.196          calculate D2E/DX2 analytically  !
 ! D51   D(5,15,20,21)         176.5014         calculate D2E/DX2 analytically  !
 ! D52   D(5,15,20,22)          56.9075         calculate D2E/DX2 analytically  !
 ! D53   D(5,15,20,23)         -64.1249         calculate D2E/DX2 analytically  !
 ! D54   D(16,15,20,21)        -70.0159         calculate D2E/DX2 analytically  !
 ! D55   D(16,15,20,22)        170.3902         calculate D2E/DX2 analytically  !
 ! D56   D(16,15,20,23)         49.3579         calculate D2E/DX2 analytically  !
 ! D57   D(24,15,20,21)         57.8812         calculate D2E/DX2 analytically  !
 ! D58   D(24,15,20,22)        -61.7127         calculate D2E/DX2 analytically  !
 ! D59   D(24,15,20,23)        177.2549         calculate D2E/DX2 analytically  !
 ! D60   D(5,15,24,25)          40.2643         calculate D2E/DX2 analytically  !
 ! D61   D(5,15,24,29)         159.6234         calculate D2E/DX2 analytically  !
 ! D62   D(5,15,24,33)         -81.1179         calculate D2E/DX2 analytically  !
 ! D63   D(16,15,24,25)        -75.1877         calculate D2E/DX2 analytically  !
 ! D64   D(16,15,24,29)         44.1714         calculate D2E/DX2 analytically  !
 ! D65   D(16,15,24,33)        163.43           calculate D2E/DX2 analytically  !
 ! D66   D(20,15,24,25)        156.6814         calculate D2E/DX2 analytically  !
 ! D67   D(20,15,24,29)        -83.9595         calculate D2E/DX2 analytically  !
 ! D68   D(20,15,24,33)         35.2991         calculate D2E/DX2 analytically  !
 ! D69   D(15,16,18,51)        110.9595         calculate D2E/DX2 analytically  !
 ! D70   D(17,16,18,51)       -128.6023         calculate D2E/DX2 analytically  !
 ! D71   D(19,16,18,51)        -11.3687         calculate D2E/DX2 analytically  !
 ! D72   D(16,18,51,47)        -66.3412         calculate D2E/DX2 analytically  !
 ! D73   D(15,24,25,26)        179.8656         calculate D2E/DX2 analytically  !
 ! D74   D(15,24,25,27)        -60.2392         calculate D2E/DX2 analytically  !
 ! D75   D(15,24,25,28)         60.6651         calculate D2E/DX2 analytically  !
 ! D76   D(29,24,25,26)         61.354          calculate D2E/DX2 analytically  !
 ! D77   D(29,24,25,27)       -178.7507         calculate D2E/DX2 analytically  !
 ! D78   D(29,24,25,28)        -57.8464         calculate D2E/DX2 analytically  !
 ! D79   D(33,24,25,26)        -58.5678         calculate D2E/DX2 analytically  !
 ! D80   D(33,24,25,27)         61.3275         calculate D2E/DX2 analytically  !
 ! D81   D(33,24,25,28)       -177.7682         calculate D2E/DX2 analytically  !
 ! D82   D(15,24,29,30)        -63.2145         calculate D2E/DX2 analytically  !
 ! D83   D(15,24,29,31)        177.6052         calculate D2E/DX2 analytically  !
 ! D84   D(15,24,29,32)         58.5199         calculate D2E/DX2 analytically  !
 ! D85   D(25,24,29,30)         55.6397         calculate D2E/DX2 analytically  !
 ! D86   D(25,24,29,31)        -63.5406         calculate D2E/DX2 analytically  !
 ! D87   D(25,24,29,32)        177.3741         calculate D2E/DX2 analytically  !
 ! D88   D(33,24,29,30)        176.4357         calculate D2E/DX2 analytically  !
 ! D89   D(33,24,29,31)         57.2555         calculate D2E/DX2 analytically  !
 ! D90   D(33,24,29,32)        -61.8298         calculate D2E/DX2 analytically  !
 ! D91   D(15,24,33,34)        178.5004         calculate D2E/DX2 analytically  !
 ! D92   D(15,24,33,35)        -62.4549         calculate D2E/DX2 analytically  !
 ! D93   D(15,24,33,36)         58.9113         calculate D2E/DX2 analytically  !
 ! D94   D(25,24,33,34)         57.925          calculate D2E/DX2 analytically  !
 ! D95   D(25,24,33,35)        176.9696         calculate D2E/DX2 analytically  !
 ! D96   D(25,24,33,36)        -61.6642         calculate D2E/DX2 analytically  !
 ! D97   D(29,24,33,34)        -62.5277         calculate D2E/DX2 analytically  !
 ! D98   D(29,24,33,35)         56.517          calculate D2E/DX2 analytically  !
 ! D99   D(29,24,33,36)        177.8831         calculate D2E/DX2 analytically  !
 ! D100  D(4,37,38,2)         -178.3727         calculate D2E/DX2 analytically  !
 ! D101  D(4,37,38,3)          -52.0319         calculate D2E/DX2 analytically  !
 ! D102  D(40,37,38,2)          62.3422         calculate D2E/DX2 analytically  !
 ! D103  D(40,37,38,3)        -171.3171         calculate D2E/DX2 analytically  !
 ! D104  D(41,37,38,2)         -62.147          calculate D2E/DX2 analytically  !
 ! D105  D(41,37,38,3)          64.1938         calculate D2E/DX2 analytically  !
 ! D106  D(4,37,40,91)         100.2786         calculate D2E/DX2 analytically  !
 ! D107  D(4,37,40,103)       -108.6373         calculate D2E/DX2 analytically  !
 ! D108  D(38,37,40,91)       -140.9333         calculate D2E/DX2 analytically  !
 ! D109  D(38,37,40,103)        10.1508         calculate D2E/DX2 analytically  !
 ! D110  D(41,37,40,91)        -18.3061         calculate D2E/DX2 analytically  !
 ! D111  D(41,37,40,103)       132.7779         calculate D2E/DX2 analytically  !
 ! D112  D(44,37,40,91)       -164.5075         calculate D2E/DX2 analytically  !
 ! D113  D(44,37,40,103)       -13.4234         calculate D2E/DX2 analytically  !
 ! D114  D(1,39,42,104)       -109.7837         calculate D2E/DX2 analytically  !
 ! D115  D(1,39,42,105)          8.057          calculate D2E/DX2 analytically  !
 ! D116  D(1,39,42,106)        133.0281         calculate D2E/DX2 analytically  !
 ! D117  D(103,39,42,104)       86.6634         calculate D2E/DX2 analytically  !
 ! D118  D(103,39,42,105)     -155.4958         calculate D2E/DX2 analytically  !
 ! D119  D(103,39,42,106)      -30.5247         calculate D2E/DX2 analytically  !
 ! D120  D(1,39,103,40)         94.5722         calculate D2E/DX2 analytically  !
 ! D121  D(42,39,103,40)      -101.3029         calculate D2E/DX2 analytically  !
 ! D122  D(37,40,90,88)         69.0467         calculate D2E/DX2 analytically  !
 ! D123  D(103,40,90,88)       -74.6125         calculate D2E/DX2 analytically  !
 ! D124  D(37,40,103,39)      -103.6194         calculate D2E/DX2 analytically  !
 ! D125  D(91,40,103,39)        40.487          calculate D2E/DX2 analytically  !
 ! D126  D(49,45,46,47)        178.5749         calculate D2E/DX2 analytically  !
 ! D127  D(49,45,46,50)         -0.6754         calculate D2E/DX2 analytically  !
 ! D128  D(53,45,46,47)         -1.4597         calculate D2E/DX2 analytically  !
 ! D129  D(53,45,46,50)        179.29           calculate D2E/DX2 analytically  !
 ! D130  D(46,45,53,54)          0.2097         calculate D2E/DX2 analytically  !
 ! D131  D(46,45,53,58)        179.4381         calculate D2E/DX2 analytically  !
 ! D132  D(49,45,53,54)       -179.8241         calculate D2E/DX2 analytically  !
 ! D133  D(49,45,53,58)         -0.5957         calculate D2E/DX2 analytically  !
 ! D134  D(45,46,47,48)          0.4472         calculate D2E/DX2 analytically  !
 ! D135  D(45,46,47,51)       -179.146          calculate D2E/DX2 analytically  !
 ! D136  D(50,46,47,48)        179.7012         calculate D2E/DX2 analytically  !
 ! D137  D(50,46,47,51)          0.108          calculate D2E/DX2 analytically  !
 ! D138  D(46,47,48,52)       -178.4258         calculate D2E/DX2 analytically  !
 ! D139  D(46,47,48,54)          1.8397         calculate D2E/DX2 analytically  !
 ! D140  D(51,47,48,52)          1.1658         calculate D2E/DX2 analytically  !
 ! D141  D(51,47,48,54)       -178.5687         calculate D2E/DX2 analytically  !
 ! D142  D(46,47,51,18)        132.5744         calculate D2E/DX2 analytically  !
 ! D143  D(48,47,51,18)        -47.0232         calculate D2E/DX2 analytically  !
 ! D144  D(47,48,54,53)         -3.0163         calculate D2E/DX2 analytically  !
 ! D145  D(47,48,54,55)        177.4817         calculate D2E/DX2 analytically  !
 ! D146  D(52,48,54,53)        177.2474         calculate D2E/DX2 analytically  !
 ! D147  D(52,48,54,55)         -2.2547         calculate D2E/DX2 analytically  !
 ! D148  D(45,53,54,48)          1.9891         calculate D2E/DX2 analytically  !
 ! D149  D(45,53,54,55)       -178.486          calculate D2E/DX2 analytically  !
 ! D150  D(58,53,54,48)       -177.2461         calculate D2E/DX2 analytically  !
 ! D151  D(58,53,54,55)          2.2788         calculate D2E/DX2 analytically  !
 ! D152  D(45,53,58,57)       -178.7409         calculate D2E/DX2 analytically  !
 ! D153  D(45,53,58,60)          0.201          calculate D2E/DX2 analytically  !
 ! D154  D(54,53,58,57)          0.4874         calculate D2E/DX2 analytically  !
 ! D155  D(54,53,58,60)        179.4292         calculate D2E/DX2 analytically  !
 ! D156  D(48,54,55,56)        175.7154         calculate D2E/DX2 analytically  !
 ! D157  D(48,54,55,64)         -2.8567         calculate D2E/DX2 analytically  !
 ! D158  D(53,54,55,56)         -3.7827         calculate D2E/DX2 analytically  !
 ! D159  D(53,54,55,64)        177.6452         calculate D2E/DX2 analytically  !
 ! D160  D(54,55,56,57)          2.6879         calculate D2E/DX2 analytically  !
 ! D161  D(54,55,56,59)       -177.2018         calculate D2E/DX2 analytically  !
 ! D162  D(64,55,56,57)       -178.69           calculate D2E/DX2 analytically  !
 ! D163  D(64,55,56,59)          1.4203         calculate D2E/DX2 analytically  !
 ! D164  D(54,55,64,63)        124.6865         calculate D2E/DX2 analytically  !
 ! D165  D(54,55,64,67)        -56.836          calculate D2E/DX2 analytically  !
 ! D166  D(56,55,64,63)        -53.8829         calculate D2E/DX2 analytically  !
 ! D167  D(56,55,64,67)        124.5946         calculate D2E/DX2 analytically  !
 ! D168  D(55,56,57,58)          0.0433         calculate D2E/DX2 analytically  !
 ! D169  D(55,56,57,80)       -178.5752         calculate D2E/DX2 analytically  !
 ! D170  D(59,56,57,58)        179.9334         calculate D2E/DX2 analytically  !
 ! D171  D(59,56,57,80)          1.3149         calculate D2E/DX2 analytically  !
 ! D172  D(55,56,59,88)         78.2609         calculate D2E/DX2 analytically  !
 ! D173  D(57,56,59,88)       -101.6339         calculate D2E/DX2 analytically  !
 ! D174  D(56,57,58,53)         -1.6665         calculate D2E/DX2 analytically  !
 ! D175  D(56,57,58,60)        179.4011         calculate D2E/DX2 analytically  !
 ! D176  D(80,57,58,53)        176.9669         calculate D2E/DX2 analytically  !
 ! D177  D(80,57,58,60)         -1.9656         calculate D2E/DX2 analytically  !
 ! D178  D(56,57,80,79)        -46.8106         calculate D2E/DX2 analytically  !
 ! D179  D(56,57,80,81)        134.7747         calculate D2E/DX2 analytically  !
 ! D180  D(58,57,80,79)        134.6117         calculate D2E/DX2 analytically  !
 ! D181  D(58,57,80,81)        -43.803          calculate D2E/DX2 analytically  !
 ! D182  D(56,59,88,66)        -51.9139         calculate D2E/DX2 analytically  !
 ! D183  D(56,59,88,89)       -169.2161         calculate D2E/DX2 analytically  !
 ! D184  D(56,59,88,90)         54.6341         calculate D2E/DX2 analytically  !
 ! D185  D(65,61,62,63)        179.3067         calculate D2E/DX2 analytically  !
 ! D186  D(65,61,62,95)          3.8289         calculate D2E/DX2 analytically  !
 ! D187  D(68,61,62,63)         -1.7251         calculate D2E/DX2 analytically  !
 ! D188  D(68,61,62,95)       -177.2029         calculate D2E/DX2 analytically  !
 ! D189  D(62,61,68,67)          2.354          calculate D2E/DX2 analytically  !
 ! D190  D(62,61,68,69)       -177.2859         calculate D2E/DX2 analytically  !
 ! D191  D(65,61,68,67)       -178.6732         calculate D2E/DX2 analytically  !
 ! D192  D(65,61,68,69)          1.6869         calculate D2E/DX2 analytically  !
 ! D193  D(61,62,63,64)         -3.1217         calculate D2E/DX2 analytically  !
 ! D194  D(61,62,63,66)       -179.7112         calculate D2E/DX2 analytically  !
 ! D195  D(95,62,63,64)        172.3227         calculate D2E/DX2 analytically  !
 ! D196  D(95,62,63,66)         -4.2669         calculate D2E/DX2 analytically  !
 ! D197  D(61,62,95,94)       -125.0208         calculate D2E/DX2 analytically  !
 ! D198  D(61,62,95,96)         54.6194         calculate D2E/DX2 analytically  !
 ! D199  D(63,62,95,94)         59.6329         calculate D2E/DX2 analytically  !
 ! D200  D(63,62,95,96)       -120.727          calculate D2E/DX2 analytically  !
 ! D201  D(62,63,64,55)       -174.4009         calculate D2E/DX2 analytically  !
 ! D202  D(62,63,64,67)          7.0744         calculate D2E/DX2 analytically  !
 ! D203  D(66,63,64,55)          2.1387         calculate D2E/DX2 analytically  !
 ! D204  D(66,63,64,67)       -176.3861         calculate D2E/DX2 analytically  !
 ! D205  D(62,63,66,88)       -110.8579         calculate D2E/DX2 analytically  !
 ! D206  D(64,63,66,88)         72.4586         calculate D2E/DX2 analytically  !
 ! D207  D(55,64,67,68)        175.2726         calculate D2E/DX2 analytically  !
 ! D208  D(55,64,67,72)         -6.4109         calculate D2E/DX2 analytically  !
 ! D209  D(63,64,67,68)         -6.2388         calculate D2E/DX2 analytically  !
 ! D210  D(63,64,67,72)        172.0778         calculate D2E/DX2 analytically  !
 ! D211  D(63,66,88,59)        -42.8154         calculate D2E/DX2 analytically  !
 ! D212  D(63,66,88,89)         70.3138         calculate D2E/DX2 analytically  !
 ! D213  D(63,66,88,90)       -155.5272         calculate D2E/DX2 analytically  !
 ! D214  D(64,67,68,61)          1.6824         calculate D2E/DX2 analytically  !
 ! D215  D(64,67,68,69)       -178.6723         calculate D2E/DX2 analytically  !
 ! D216  D(72,67,68,61)       -176.7131         calculate D2E/DX2 analytically  !
 ! D217  D(72,67,68,69)          2.9323         calculate D2E/DX2 analytically  !
 ! D218  D(64,67,72,71)        179.3098         calculate D2E/DX2 analytically  !
 ! D219  D(64,67,72,76)         -1.3195         calculate D2E/DX2 analytically  !
 ! D220  D(68,67,72,71)         -2.3561         calculate D2E/DX2 analytically  !
 ! D221  D(68,67,72,76)        177.0146         calculate D2E/DX2 analytically  !
 ! D222  D(61,68,69,70)        178.2324         calculate D2E/DX2 analytically  !
 ! D223  D(61,68,69,73)         -1.0809         calculate D2E/DX2 analytically  !
 ! D224  D(67,68,69,70)         -1.4069         calculate D2E/DX2 analytically  !
 ! D225  D(67,68,69,73)        179.2798         calculate D2E/DX2 analytically  !
 ! D226  D(68,69,70,71)         -0.7955         calculate D2E/DX2 analytically  !
 ! D227  D(68,69,70,74)       -179.697          calculate D2E/DX2 analytically  !
 ! D228  D(73,69,70,71)        178.5041         calculate D2E/DX2 analytically  !
 ! D229  D(73,69,70,74)         -0.3974         calculate D2E/DX2 analytically  !
 ! D230  D(69,70,71,72)          1.421          calculate D2E/DX2 analytically  !
 ! D231  D(69,70,71,75)       -178.0328         calculate D2E/DX2 analytically  !
 ! D232  D(74,70,71,72)       -179.6728         calculate D2E/DX2 analytically  !
 ! D233  D(74,70,71,75)          0.8733         calculate D2E/DX2 analytically  !
 ! D234  D(70,71,72,67)          0.195          calculate D2E/DX2 analytically  !
 ! D235  D(70,71,72,76)       -179.1732         calculate D2E/DX2 analytically  !
 ! D236  D(75,71,72,67)        179.6491         calculate D2E/DX2 analytically  !
 ! D237  D(75,71,72,76)          0.281          calculate D2E/DX2 analytically  !
 ! D238  D(82,77,78,79)          0.0581         calculate D2E/DX2 analytically  !
 ! D239  D(82,77,78,84)        179.8938         calculate D2E/DX2 analytically  !
 ! D240  D(83,77,78,79)       -179.6191         calculate D2E/DX2 analytically  !
 ! D241  D(83,77,78,84)          0.2166         calculate D2E/DX2 analytically  !
 ! D242  D(78,77,82,81)          0.0759         calculate D2E/DX2 analytically  !
 ! D243  D(78,77,82,87)       -179.4238         calculate D2E/DX2 analytically  !
 ! D244  D(83,77,82,81)        179.7528         calculate D2E/DX2 analytically  !
 ! D245  D(83,77,82,87)          0.2531         calculate D2E/DX2 analytically  !
 ! D246  D(77,78,79,80)         -0.2593         calculate D2E/DX2 analytically  !
 ! D247  D(77,78,79,85)        179.6198         calculate D2E/DX2 analytically  !
 ! D248  D(84,78,79,80)        179.904          calculate D2E/DX2 analytically  !
 ! D249  D(84,78,79,85)         -0.2169         calculate D2E/DX2 analytically  !
 ! D250  D(78,79,80,57)       -178.1042         calculate D2E/DX2 analytically  !
 ! D251  D(78,79,80,81)          0.3206         calculate D2E/DX2 analytically  !
 ! D252  D(85,79,80,57)          2.0167         calculate D2E/DX2 analytically  !
 ! D253  D(85,79,80,81)       -179.5585         calculate D2E/DX2 analytically  !
 ! D254  D(57,80,81,82)        178.2761         calculate D2E/DX2 analytically  !
 ! D255  D(57,80,81,86)         -2.9869         calculate D2E/DX2 analytically  !
 ! D256  D(79,80,81,82)         -0.1867         calculate D2E/DX2 analytically  !
 ! D257  D(79,80,81,86)        178.5503         calculate D2E/DX2 analytically  !
 ! D258  D(80,81,82,77)         -0.0099         calculate D2E/DX2 analytically  !
 ! D259  D(80,81,82,87)        179.4921         calculate D2E/DX2 analytically  !
 ! D260  D(86,81,82,77)       -178.7348         calculate D2E/DX2 analytically  !
 ! D261  D(86,81,82,87)          0.7673         calculate D2E/DX2 analytically  !
 ! D262  D(59,88,90,91)        -90.1759         calculate D2E/DX2 analytically  !
 ! D263  D(66,88,90,91)         13.5893         calculate D2E/DX2 analytically  !
 ! D264  D(89,88,90,91)        141.684          calculate D2E/DX2 analytically  !
 ! D265  D(97,92,93,94)         -0.6688         calculate D2E/DX2 analytically  !
 ! D266  D(97,92,93,99)        179.8116         calculate D2E/DX2 analytically  !
 ! D267  D(98,92,93,94)        179.494          calculate D2E/DX2 analytically  !
 ! D268  D(98,92,93,99)         -0.0256         calculate D2E/DX2 analytically  !
 ! D269  D(93,92,97,96)          0.027          calculate D2E/DX2 analytically  !
 ! D270  D(93,92,97,102)      -179.8679         calculate D2E/DX2 analytically  !
 ! D271  D(98,92,97,96)        179.8642         calculate D2E/DX2 analytically  !
 ! D272  D(98,92,97,102)        -0.0307         calculate D2E/DX2 analytically  !
 ! D273  D(92,93,94,95)          0.5057         calculate D2E/DX2 analytically  !
 ! D274  D(92,93,94,100)      -178.0846         calculate D2E/DX2 analytically  !
 ! D275  D(99,93,94,95)       -179.9709         calculate D2E/DX2 analytically  !
 ! D276  D(99,93,94,100)         1.4388         calculate D2E/DX2 analytically  !
 ! D277  D(93,94,95,62)        179.9334         calculate D2E/DX2 analytically  !
 ! D278  D(93,94,95,96)          0.294          calculate D2E/DX2 analytically  !
 ! D279  D(100,94,95,62)        -1.4734         calculate D2E/DX2 analytically  !
 ! D280  D(100,94,95,96)       178.8871         calculate D2E/DX2 analytically  !
 ! D281  D(62,95,96,97)        179.409          calculate D2E/DX2 analytically  !
 ! D282  D(62,95,96,101)         0.1187         calculate D2E/DX2 analytically  !
 ! D283  D(94,95,96,97)         -0.9385         calculate D2E/DX2 analytically  !
 ! D284  D(94,95,96,101)       179.7712         calculate D2E/DX2 analytically  !
 ! D285  D(95,96,97,92)          0.7816         calculate D2E/DX2 analytically  !
 ! D286  D(95,96,97,102)      -179.3229         calculate D2E/DX2 analytically  !
 ! D287  D(101,96,97,92)      -179.9336         calculate D2E/DX2 analytically  !
 ! D288  D(101,96,97,102)       -0.0381         calculate D2E/DX2 analytically  !
 --------------------------------------------------------------------------------
 Trust Radius=1.00D-01 FncErr=1.00D-07 GrdErr=1.00D-06 EigMax=2.50D+02 EigMin=1.00D-04
 Number of steps in this run=     50 maximum allowed number of steps=    636.
 Search for a saddle point of order  1.
 GradGradGradGradGradGradGradGradGradGradGradGradGradGradGradGradGradGrad

 Stoichiometry    C47H49O8PSi
 Framework group  C1[X(C47H49O8PSi)]
 Deg. of freedom   312
 Full point group                 C1      NOp   1
 Largest Abelian subgroup         C1      NOp   1
 Largest concise Abelian subgroup C1      NOp   1
                         Standard orientation:                         
 ---------------------------------------------------------------------
 Center     Atomic      Atomic             Coordinates (Angstroms)
 Number     Number       Type             X           Y           Z
 ---------------------------------------------------------------------
      1          6           0       -1.097160    0.602280   -2.213274
      2          6           0       -0.874003    1.755713   -1.483352
      3          6           0        0.441346    3.785945   -0.782539
      4          6           0        2.889399    2.478365   -1.620107
      5          8           0       -1.672187    2.109126   -0.511715
      6          1           0        1.333514    4.385665   -1.007108
      7          1           0        0.465522    3.511356    0.281508
      8          1           0       -0.433567    4.428485   -0.950158
      9          8           0        3.688378    2.701052   -0.747628
     10          8           0        2.989508    2.959049   -2.855129
     11          6           0        4.139846    3.743015   -3.144444
     12          1           0        5.053658    3.146170   -3.017612
     13          1           0        4.039388    4.061174   -4.187238
     14          1           0        4.190668    4.617994   -2.481218
     15         14           0       -3.238010    2.854140   -0.483237
     16          6           0       -3.182102    4.029640    0.958289
     17          1           0       -4.026915    4.733252    0.897244
     18          1           0       -3.258233    3.492370    1.914680
     19          1           0       -2.246813    4.608133    0.959171
     20          6           0       -3.382925    3.743604   -2.119835
     21          1           0       -4.380640    4.199572   -2.217837
     22          1           0       -3.244225    3.053848   -2.966516
     23          1           0       -2.636710    4.548845   -2.202131
     24          6           0       -4.549558    1.511011   -0.247860
     25          6           0       -4.035101    0.485371    0.773506
     26          1           0       -4.782381   -0.310742    0.933013
     27          1           0       -3.103420    0.002580    0.442075
     28          1           0       -3.837889    0.941773    1.757372
     29          6           0       -5.833872    2.174129    0.282812
     30          1           0       -5.685262    2.632624    1.272583
     31          1           0       -6.630057    1.417665    0.388436
     32          1           0       -6.214834    2.953132   -0.398565
     33          6           0       -4.862749    0.821044   -1.584625
     34          1           0       -5.608594    0.021555   -1.432938
     35          1           0       -5.284436    1.524624   -2.319434
     36          1           0       -3.974912    0.356165   -2.039420
     37          6           0        1.635023    1.618067   -1.461736
     38          6           0        0.381428    2.548079   -1.668646
     39          6           0       -0.265008    0.252934   -3.277719
     40          8           0        1.671714    0.602838   -2.399931
     41          1           0        1.629735    1.233357   -0.430320
     42          6           0       -0.223534   -1.118738   -3.833155
     43          1           0       -1.826036   -0.120496   -1.838694
     44          1           0        0.437746    2.844937   -2.730631
     45          6           0        1.945665    3.052039    2.768811
     46          6           0        0.766750    3.669538    3.102850
     47          6           0       -0.454689    2.971080    2.954541
     48          6           0       -0.475082    1.678544    2.488709
     49          1           0        2.896871    3.582467    2.854327
     50          1           0        0.765598    4.698010    3.469735
     51          1           0       -1.390859    3.470454    3.207975
     52          1           0       -1.426884    1.164397    2.356336
     53          6           0        1.958951    1.708059    2.304365
     54          6           0        0.732956    0.992173    2.179002
     55          6           0        0.771891   -0.375050    1.739347
     56          6           0        1.991772   -0.923419    1.377286
     57          6           0        3.223865   -0.208987    1.473423
     58          6           0        3.178782    1.079666    1.949648
     59          8           0        2.019647   -2.200468    0.906098
     60          1           0        4.105039    1.649108    2.044386
     61          6           0       -2.839413   -2.678639    1.276016
     62          6           0       -1.974221   -2.545509    0.216547
     63          6           0       -0.757725   -1.827720    0.423162
     64          6           0       -0.456508   -1.213411    1.629600
     65          1           0       -3.780917   -3.215080    1.133732
     66          8           0        0.093173   -1.693193   -0.630079
     67          6           0       -1.326038   -1.431773    2.750554
     68          6           0       -2.536374   -2.157294    2.559000
     69          6           0       -3.417545   -2.353945    3.657746
     70          6           0       -3.103871   -1.878792    4.906617
     71          6           0       -1.879831   -1.197827    5.111129
     72          6           0       -1.015429   -0.982250    4.065290
     73          1           0       -4.347569   -2.902836    3.489696
     74          1           0       -3.784855   -2.039178    5.745077
     75          1           0       -1.615587   -0.848077    6.111432
     76          1           0       -0.070638   -0.467835    4.243358
     77          6           0        6.993661   -1.882853    0.274841
     78          6           0        6.112456   -2.639503    1.047419
     79          6           0        4.881213   -2.112834    1.429100
     80          6           0        4.513305   -0.815099    1.047324
     81          6           0        5.404399   -0.062461    0.269876
     82          6           0        6.634793   -0.593011   -0.113054
     83          1           0        7.956248   -2.301059   -0.028253
     84          1           0        6.384025   -3.651813    1.354782
     85          1           0        4.197044   -2.714947    2.027840
     86          1           0        5.115139    0.940525   -0.051703
     87          1           0        7.313855    0.004203   -0.726034
     88         15           0        1.568683   -2.480404   -0.658837
     89          8           0        1.436880   -3.944667   -0.830561
     90          8           0        2.382078   -1.613750   -1.594343
     91          1           0        1.988182   -0.305294   -2.004223
     92          6           0       -3.138970   -3.942095   -3.675972
     93          6           0       -1.949271   -4.396684   -3.104598
     94          6           0       -1.549956   -3.953764   -1.844739
     95          6           0       -2.350680   -3.050514   -1.132720
     96          6           0       -3.551773   -2.611529   -1.705486
     97          6           0       -3.942022   -3.046243   -2.971807
     98          1           0       -3.440184   -4.288119   -4.667377
     99          1           0       -1.315744   -5.101092   -3.648295
    100          1           0       -0.601416   -4.292021   -1.420438
    101          1           0       -4.180161   -1.910766   -1.152274
    102          1           0       -4.876834   -2.683944   -3.406073
    103          1           0        0.163978    1.042357   -3.893989
    104          1           0        0.747947   -1.563043   -3.557116
    105          1           0       -1.007152   -1.759915   -3.411242
    106          1           0       -0.274605   -1.104443   -4.930598
 ---------------------------------------------------------------------
 Rotational constants (GHZ):           0.0601983           0.0449297           0.0415792
 Standard basis: def2SVP (5D, 7F)
 There are  1108 symmetry adapted cartesian basis functions of A   symmetry.
 There are  1051 symmetry adapted basis functions of A   symmetry.
  1051 basis functions,  1792 primitive gaussians,  1108 cartesian basis functions
   212 alpha electrons      212 beta electrons
       nuclear repulsion energy      9637.2442061577 Hartrees.
 NAtoms=  106 NActive=  106 NUniq=  106 SFac= 1.00D+00 NAtFMM=   60 NAOKFM=T Big=T
 Integral buffers will be    131072 words long.
 Raffenetti 2 integral format.
 Two-electron integral symmetry is turned on.
 Nuclear repulsion after empirical dispersion term =     9637.1088177642 Hartrees.
 Force inversion solution in PCM.
 ------------------------------------------------------------------------------
 Polarizable Continuum Model (PCM)
 =================================
 Model                : PCM.
 Atomic radii         : UFF (Universal Force Field).
 Polarization charges : Total charges.
 Charge compensation  : None.
 Solution method      : Matrix inversion.
 Cavity type          : Scaled VdW (van der Waals Surface) (Alpha=1.100).
 Cavity algorithm     : GePol (No added spheres)
                        Default sphere list used, NSphG=  106.
                        Lebedev-Laikov grids with approx.  5.0 points / Ang**2.
                        Smoothing algorithm: York/Karplus (Gamma=1.0000).
                        Polarization charges: spherical gaussians, with
                                              point-specific exponents (IZeta= 3).
                        Self-potential: point-specific (ISelfS= 7).
                        Self-field    : sphere-specific E.n sum rule (ISelfD= 2).
 1st derivatives      : Analytical E(r).r(x)/FMM algorithm (CHGder, D1EAlg=3).
                        Cavity 1st derivative terms included.
 2nd derivatives      : Analytical E(r).r(xy)/FMM algorithm (CHGder, D2EAlg=3).
                        Cavity 2nd derivative terms included.
 Solvent              : Toluene, Eps=   2.374100 Eps(inf)=   2.238315
 ------------------------------------------------------------------------------
 One-electron integrals computed using PRISM.
   1 Symmetry operations used in ECPInt.
 ECPInt:  NShTT=  121771 NPrTT=  444119 LenC2=   97783 LenP2D=  220949.
 LDataN:  DoStor=T MaxTD1= 4 Len=   56
 NBasis=  1051 RedAO= T EigKep=  1.50D-04  NBF=  1051
 NBsUse=  1051 1.00D-06 EigRej= -1.00D+00 NBFU=  1051
 ExpMin= 7.80D-02 ExpMax= 8.00D+03 ExpMxC= 1.20D+03 IAcc=3 IRadAn=         5 AccDes= 0.00D+00
 Harris functional with IExCor= 4639 and IRadAn=       5 diagonalized for initial guess.
 HarFok:  IExCor= 4639 AccDes= 0.00D+00 IRadAn=         5 IDoV= 1 UseB2=F ITyADJ=14
 ICtDFT=  3500011 ScaDFX=  1.000000  1.000000  1.000000  1.000000
 FoFCou: FMM=F IPFlag=           0 FMFlag=      100000 FMFlg1=        2001
         NFxFlg=           0 DoJE=T BraDBF=F KetDBF=T FulRan=T
         wScrn=  0.000000 ICntrl=       500 IOpCl=  0 I1Cent=   200000004 NGrid=           0
         NMat0=    1 NMatS0=      1 NMatT0=    0 NMatD0=    1 NMtDS0=    0 NMtDT0=    0
 Petite list used in FoFCou.
 Requested convergence on RMS density matrix=1.00D-08 within 128 cycles.
 Requested convergence on MAX density matrix=1.00D-06.
 Requested convergence on             energy=1.00D-06.
 No special actions if energy rises.
 Inv3:  Mode=1 IEnd=   113799843.
 Iteration    1 A*A^-1 deviation from unit magnitude is 3.77D-15 for   5341.
 Iteration    1 A*A^-1 deviation from orthogonality  is 2.55D-15 for   5967   2827.
 Iteration    1 A^-1*A deviation from unit magnitude is 3.77D-15 for   3637.
 Iteration    1 A^-1*A deviation from orthogonality  is 2.34D-15 for   4516     97.
 Error on total polarization charges =  0.01073
 SCF Done:  E(RwB97XD) =  -3050.65530646     A.U. after   14 cycles
            NFock= 14  Conv=0.66D-08     -V/T= 2.0091
 DoSCS=F DFT=T ScalE2(SS,OS)=  1.000000  1.000000
 Range of M.O.s used for correlation:     1  1051
 NBasis=  1051 NAE=   212 NBE=   212 NFC=     0 NFV=     0
 NROrb=   1051 NOA=   212 NOB=   212 NVA=   839 NVB=   839

 **** Warning!!: The largest alpha MO coefficient is  0.10777027D+02

   1 Symmetry operations used in ECPInt.
 ECPInt:  NShTT=  121771 NPrTT=  444119 LenC2=   97783 LenP2D=  220949.
 LDataN:  DoStor=T MaxTD1= 5 Len=  102
 Number of processors reduced to   5 by ecpmxn.
 Symmetrizing basis deriv contribution to polar:
 IMax=3 JMax=2 DiffMx= 0.00D+00
 G2DrvN: will do   107 centers at a time, making    1 passes.
 Calling FoFCou, ICntrl=  3107 FMM=T I1Cent=   0 AccDes= 0.00D+00.
 NEqPCM:  Using equilibrium solvation (IEInf=0, Eps=   2.3741, EpsInf=   2.2383)
 G2PCM: DoFxE=T DoFxN=T DoGrad=T DoDP/DQ/DG/TGxP=FFFF NFrqRd=   0 IEInf=0 SqF1=F DoCFld=F IF1Alg=4.
 End of G2Drv F.D. properties file   721 does not exist.
 End of G2Drv F.D. properties file   722 does not exist.
 End of G2Drv F.D. properties file   788 does not exist.
          IDoAtm=11111111111111111111111111111111111111111111111111
          IDoAtm=11111111111111111111111111111111111111111111111111
          IDoAtm=111111
 NEqPCM:  Using equilibrium solvation (IEInf=0, Eps=   2.3741, EpsInf=   2.2383)
          Differentiating once with respect to nuclear coordinates.
 CalDSu exits because no D1Ps are significant.
          There are   321 degrees of freedom in the 1st order CPHF.  IDoFFX=6 NUNeed=     0.
    318 vectors produced by pass  0 Test12= 1.78D-13 1.00D-09 XBig12= 1.33D-01 8.39D-02.
 AX will form    72 AO Fock derivatives at one time.
    315 vectors produced by pass  1 Test12= 1.78D-13 1.00D-09 XBig12= 2.41D-02 3.44D-02.
    315 vectors produced by pass  2 Test12= 1.78D-13 1.00D-09 XBig12= 7.44D-04 2.23D-03.
    315 vectors produced by pass  3 Test12= 1.78D-13 1.00D-09 XBig12= 8.57D-06 2.97D-04.
    315 vectors produced by pass  4 Test12= 1.78D-13 1.00D-09 XBig12= 8.99D-08 2.94D-05.
    315 vectors produced by pass  5 Test12= 1.78D-13 1.00D-09 XBig12= 6.57D-10 2.27D-06.
    273 vectors produced by pass  6 Test12= 1.78D-13 1.00D-09 XBig12= 3.83D-12 1.91D-07.
     82 vectors produced by pass  7 Test12= 1.78D-13 1.00D-09 XBig12= 2.12D-14 8.22D-09.
     20 vectors produced by pass  8 Test12= 1.78D-13 1.00D-09 XBig12= 1.02D-14 2.90D-09.
      5 vectors produced by pass  9 Test12= 1.78D-13 1.00D-09 XBig12= 5.20D-15 1.92D-09.
      5 vectors produced by pass 10 Test12= 1.78D-13 1.00D-09 XBig12= 9.45D-15 4.17D-09.
      4 vectors produced by pass 11 Test12= 1.78D-13 1.00D-09 XBig12= 4.88D-15 2.08D-09.
      4 vectors produced by pass 12 Test12= 1.78D-13 1.00D-09 XBig12= 6.89D-15 3.12D-09.
      3 vectors produced by pass 13 Test12= 1.78D-13 1.00D-09 XBig12= 4.23D-15 2.39D-09.
 InvSVY:  IOpt=1 It=  1 EMax= 6.11D-16
 Solved reduced A of dimension  2289 with   321 vectors.
 End of Minotr F.D. properties file   721 does not exist.
 End of Minotr F.D. properties file   722 does not exist.
 End of Minotr F.D. properties file   788 does not exist.
 Hyperfine terms turned off by default for NAtoms > 100.

 **********************************************************************

            Population analysis using the SCF Density.

 **********************************************************************

 Orbital symmetries:
       Occupied  (A) (A) (A) (A) (A) (A) (A) (A) (A) (A) (A) (A)
                 (A) (A) (A) (A) (A) (A) (A) (A) (A) (A) (A) (A)
                 (A) (A) (A) (A) (A) (A) (A) (A) (A) (A) (A) (A)
                 (A) (A) (A) (A) (A) (A) (A) (A) (A) (A) (A) (A)
                 (A) (A) (A) (A) (A) (A) (A) (A) (A) (A) (A) (A)
                 (A) (A) (A) (A) (A) (A) (A) (A) (A) (A) (A) (A)
                 (A) (A) (A) (A) (A) (A) (A) (A) (A) (A) (A) (A)
                 (A) (A) (A) (A) (A) (A) (A) (A) (A) (A) (A) (A)
                 (A) (A) (A) (A) (A) (A) (A) (A) (A) (A) (A) (A)
                 (A) (A) (A) (A) (A) (A) (A) (A) (A) (A) (A) (A)
                 (A) (A) (A) (A) (A) (A) (A) (A) (A) (A) (A) (A)
                 (A) (A) (A) (A) (A) (A) (A) (A) (A) (A) (A) (A)
                 (A) (A) (A) (A) (A) (A) (A) (A) (A) (A) (A) (A)
                 (A) (A) (A) (A) (A) (A) (A) (A) (A) (A) (A) (A)
                 (A) (A) (A) (A) (A) (A) (A) (A) (A) (A) (A) (A)
                 (A) (A) (A) (A) (A) (A) (A) (A) (A) (A) (A) (A)
                 (A) (A) (A) (A) (A) (A) (A) (A) (A) (A) (A) (A)
                 (A) (A) (A) (A) (A) (A) (A) (A)
       Virtual   (A) (A) (A) (A) (A) (A) (A) (A) (A) (A) (A) (A)
                 (A) (A) (A) (A) (A) (A) (A) (A) (A) (A) (A) (A)
                 (A) (A) (A) (A) (A) (A) (A) (A) (A) (A) (A) (A)
                 (A) (A) (A) (A) (A) (A) (A) (A) (A) (A) (A) (A)
                 (A) (A) (A) (A) (A) (A) (A) (A) (A) (A) (A) (A)
                 (A) (A) (A) (A) (A) (A) (A) (A) (A) (A) (A) (A)
                 (A) (A) (A) (A) (A) (A) (A) (A) (A) (A) (A) (A)
                 (A) (A) (A) (A) (A) (A) (A) (A) (A) (A) (A) (A)
                 (A) (A) (A) (A) (A) (A) (A) (A) (A) (A) (A) (A)
                 (A) (A) (A) (A) (A) (A) (A) (A) (A) (A) (A) (A)
                 (A) (A) (A) (A) (A) (A) (A) (A) (A) (A) (A) (A)
                 (A) (A) (A) (A) (A) (A) (A) (A) (A) (A) (A) (A)
                 (A) (A) (A) (A) (A) (A) (A) (A) (A) (A) (A) (A)
                 (A) (A) (A) (A) (A) (A) (A) (A) (A) (A) (A) (A)
                 (A) (A) (A) (A) (A) (A) (A) (A) (A) (A) (A) (A)
                 (A) (A) (A) (A) (A) (A) (A) (A) (A) (A) (A) (A)
                 (A) (A) (A) (A) (A) (A) (A) (A) (A) (A) (A) (A)
                 (A) (A) (A) (A) (A) (A) (A) (A) (A) (A) (A) (A)
                 (A) (A) (A) (A) (A) (A) (A) (A) (A) (A) (A) (A)
                 (A) (A) (A) (A) (A) (A) (A) (A) (A) (A) (A) (A)
                 (A) (A) (A) (A) (A) (A) (A) (A) (A) (A) (A) (A)
                 (A) (A) (A) (A) (A) (A) (A) (A) (A) (A) (A) (A)
                 (A) (A) (A) (A) (A) (A) (A) (A) (A) (A) (A) (A)
                 (A) (A) (A) (A) (A) (A) (A) (A) (A) (A) (A) (A)
                 (A) (A) (A) (A) (A) (A) (A) (A) (A) (A) (A) (A)
                 (A) (A) (A) (A) (A) (A) (A) (A) (A) (A) (A) (A)
                 (A) (A) (A) (A) (A) (A) (A) (A) (A) (A) (A) (A)
                 (A) (A) (A) (A) (A) (A) (A) (A) (A) (A) (A) (A)
                 (A) (A) (A) (A) (A) (A) (A) (A) (A) (A) (A) (A)
                 (A) (A) (A) (A) (A) (A) (A) (A) (A) (A) (A) (A)
                 (A) (A) (A) (A) (A) (A) (A) (A) (A) (A) (A) (A)
                 (A) (A) (A) (A) (A) (A) (A) (A) (A) (A) (A) (A)
                 (A) (A) (A) (A) (A) (A) (A) (A) (A) (A) (A) (A)
                 (A) (A) (A) (A) (A) (A) (A) (A) (A) (A) (A) (A)
                 (A) (A) (A) (A) (A) (A) (A) (A) (A) (A) (A) (A)
                 (A) (A) (A) (A) (A) (A) (A) (A) (A) (A) (A) (A)
                 (A) (A) (A) (A) (A) (A) (A) (A) (A) (A) (A) (A)
                 (A) (A) (A) (A) (A) (A) (A) (A) (A) (A) (A) (A)
                 (A) (A) (A) (A) (A) (A) (A) (A) (A) (A) (A) (A)
                 (A) (A) (A) (A) (A) (A) (A) (A) (A) (A) (A) (A)
                 (A) (A) (A) (A) (A) (A) (A) (A) (A) (A) (A) (A)
                 (A) (A) (A) (A) (A) (A) (A) (A) (A) (A) (A) (A)
                 (A) (A) (A) (A) (A) (A) (A) (A) (A) (A) (A) (A)
                 (A) (A) (A) (A) (A) (A) (A) (A) (A) (A) (A) (A)
                 (A) (A) (A) (A) (A) (A) (A) (A) (A) (A) (A) (A)
                 (A) (A) (A) (A) (A) (A) (A) (A) (A) (A) (A) (A)
[...]
 Alpha virt. eigenvalues --    0.80598   0.80943   0.81097   0.81220   0.81442
 Alpha virt. eigenvalues --    0.81538   0.81726   0.82043   0.82540   0.82692
 Alpha virt. eigenvalues --    0.82867   0.83218   0.83364   0.83504   0.83895
 Alpha virt. eigenvalues --    0.84303   0.84534   0.84612   0.84821   0.85122
 Alpha virt. eigenvalues --    0.85287   0.85367   0.86165   0.86249   0.86452
 Alpha virt. eigenvalues --    0.86891   0.87062   0.87318   0.87681   0.87767
 Alpha virt. eigenvalues --    0.88475   0.88692   0.88786   0.89294   0.89387
 Alpha virt. eigenvalues --    0.89552   0.89910   0.90218   0.90379   0.90576
 Alpha virt. eigenvalues --    0.90769   0.91297   0.91647   0.92229   0.92548
 Alpha virt. eigenvalues --    0.93372   0.93754   0.94026   0.94182   0.94537
 Alpha virt. eigenvalues --    0.94697   0.95112   0.95419   0.95924   0.96790
 Alpha virt. eigenvalues --    0.97307   0.97613   0.97820   0.98375   0.99240
 Alpha virt. eigenvalues --    0.99475   0.99919   1.00357   1.01353   1.01854
 Alpha virt. eigenvalues --    1.02145   1.02449   1.02700   1.03217   1.03652
 Alpha virt. eigenvalues --    1.03891   1.04497   1.04797   1.05091   1.05467
 Alpha virt. eigenvalues --    1.06097   1.06649   1.07265   1.07818   1.08524
 Alpha virt. eigenvalues --    1.08606   1.09250   1.09903   1.10731   1.11720
 Alpha virt. eigenvalues --    1.12363   1.13106   1.13196   1.14012   1.14335
 Alpha virt. eigenvalues --    1.15103   1.16096   1.16351   1.16700   1.17983
 Alpha virt. eigenvalues --    1.18286   1.18707   1.18991   1.19982   1.20499
 Alpha virt. eigenvalues --    1.21022   1.21243   1.21786   1.22116   1.22938
 Alpha virt. eigenvalues --    1.23280   1.23975   1.24329   1.25034   1.25105
 Alpha virt. eigenvalues --    1.26045   1.26798   1.26933   1.27327   1.27612
 Alpha virt. eigenvalues --    1.28468   1.28519   1.28741   1.28969   1.29489
 Alpha virt. eigenvalues --    1.29922   1.30036   1.30600   1.31191   1.31906
 Alpha virt. eigenvalues --    1.32210   1.32824   1.33139   1.33296   1.33624
 Alpha virt. eigenvalues --    1.33781   1.33921   1.34558   1.34796   1.35153
 Alpha virt. eigenvalues --    1.35339   1.35706   1.35952   1.36095   1.36239
 Alpha virt. eigenvalues --    1.36394   1.36747   1.37457   1.37978   1.38160
 Alpha virt. eigenvalues --    1.38315   1.38631   1.38976   1.39560   1.39735
 Alpha virt. eigenvalues --    1.40081   1.40239   1.40798   1.41050   1.41493
 Alpha virt. eigenvalues --    1.42124   1.42204   1.42710   1.43033   1.43364
 Alpha virt. eigenvalues --    1.43922   1.44366   1.44947   1.46060   1.46832
 Alpha virt. eigenvalues --    1.47704   1.48522   1.48787   1.49457   1.49683
 Alpha virt. eigenvalues --    1.50220   1.50753   1.51074   1.52514   1.53659
 Alpha virt. eigenvalues --    1.53988   1.55851   1.56329   1.56813   1.57907
 Alpha virt. eigenvalues --    1.58306   1.58926   1.59026   1.59835   1.60353
 Alpha virt. eigenvalues --    1.60687   1.61250   1.61714   1.62277   1.62725
 Alpha virt. eigenvalues --    1.63058   1.63472   1.63752   1.64132   1.64433
 Alpha virt. eigenvalues --    1.64709   1.65469   1.65590   1.66151   1.66930
 Alpha virt. eigenvalues --    1.67623   1.68434   1.68791   1.68975   1.69316
 Alpha virt. eigenvalues --    1.70256   1.71139   1.71384   1.71541   1.72209
 Alpha virt. eigenvalues --    1.72824   1.73437   1.73772   1.74798   1.75262
 Alpha virt. eigenvalues --    1.75555   1.76307   1.77016   1.77131   1.77500
 Alpha virt. eigenvalues --    1.77698   1.78109   1.78618   1.78727   1.79259
 Alpha virt. eigenvalues --    1.79914   1.80249   1.80289   1.80433   1.80796
 Alpha virt. eigenvalues --    1.81229   1.81572   1.81628   1.81837   1.82088
 Alpha virt. eigenvalues --    1.82446   1.82600   1.82912   1.83145   1.83372
 Alpha virt. eigenvalues --    1.83961   1.83991   1.84291   1.84399   1.84778
 Alpha virt. eigenvalues --    1.84927   1.85136   1.85407   1.85643   1.86107
 Alpha virt. eigenvalues --    1.86228   1.86386   1.86514   1.86687   1.86799
 Alpha virt. eigenvalues --    1.87217   1.87327   1.87721   1.88002   1.88113
 Alpha virt. eigenvalues --    1.88355   1.88528   1.88658   1.88761   1.89051
 Alpha virt. eigenvalues --    1.89248   1.89369   1.89932   1.90005   1.90271
 Alpha virt. eigenvalues --    1.90581   1.90847   1.91125   1.91502   1.91676
 Alpha virt. eigenvalues --    1.92151   1.92269   1.92654   1.93020   1.93245
 Alpha virt. eigenvalues --    1.93683   1.93931   1.94674   1.94873   1.95171
 Alpha virt. eigenvalues --    1.95520   1.95847   1.96231   1.96764   1.97212
 Alpha virt. eigenvalues --    1.97533   1.98030   1.98259   1.98641   1.98713
 Alpha virt. eigenvalues --    1.99100   1.99401   1.99619   2.00110   2.00459
 Alpha virt. eigenvalues --    2.01111   2.02083   2.02117   2.02494   2.02959
 Alpha virt. eigenvalues --    2.03120   2.03329   2.03431   2.03930   2.04122
 Alpha virt. eigenvalues --    2.04488   2.04539   2.05021   2.05154   2.05317
 Alpha virt. eigenvalues --    2.05571   2.05697   2.06136   2.06564   2.07088
 Alpha virt. eigenvalues --    2.07328   2.07471   2.07769   2.08200   2.08409
 Alpha virt. eigenvalues --    2.08652   2.09003   2.09363   2.09412   2.09648
 Alpha virt. eigenvalues --    2.09970   2.10156   2.10824   2.11300   2.11460
 Alpha virt. eigenvalues --    2.12177   2.12921   2.13567   2.14098   2.14867
 Alpha virt. eigenvalues --    2.15560   2.15727   2.16527   2.17169   2.17348
 Alpha virt. eigenvalues --    2.18010   2.18851   2.19026   2.19517   2.20404
 Alpha virt. eigenvalues --    2.21433   2.21700   2.21758   2.22301   2.22890
 Alpha virt. eigenvalues --    2.23163   2.23580   2.23790   2.23854   2.24187
 Alpha virt. eigenvalues --    2.24400   2.24742   2.25195   2.25816   2.25894
 Alpha virt. eigenvalues --    2.26282   2.26496   2.26831   2.27447   2.27612
 Alpha virt. eigenvalues --    2.27881   2.28576   2.28760   2.29227   2.29928
 Alpha virt. eigenvalues --    2.30545   2.30916   2.31074   2.32013   2.32819
 Alpha virt. eigenvalues --    2.33469   2.33777   2.34562   2.34812   2.35398
 Alpha virt. eigenvalues --    2.35833   2.36358   2.37029   2.37490   2.38199
 Alpha virt. eigenvalues --    2.38390   2.38514   2.38803   2.39428   2.39862
 Alpha virt. eigenvalues --    2.39955   2.40452   2.40652   2.40848   2.41046
 Alpha virt. eigenvalues --    2.41592   2.42537   2.43204   2.44005   2.44625
 Alpha virt. eigenvalues --    2.44879   2.45251   2.45345   2.45617   2.46040
 Alpha virt. eigenvalues --    2.46390   2.46648   2.47110   2.47438   2.47925
 Alpha virt. eigenvalues --    2.47964   2.48547   2.49077   2.49692   2.50312
 Alpha virt. eigenvalues --    2.50810   2.51073   2.52459   2.52919   2.53754
 Alpha virt. eigenvalues --    2.53950   2.54205   2.54709   2.56163   2.56599
 Alpha virt. eigenvalues --    2.56763   2.56873   2.57105   2.60298   2.61321
 Alpha virt. eigenvalues --    2.61937   2.62458   2.62670   2.63086   2.63663
 Alpha virt. eigenvalues --    2.64061   2.64330   2.65395   2.66270   2.66701
 Alpha virt. eigenvalues --    2.67432   2.68635   2.69022   2.69458   2.69847
 Alpha virt. eigenvalues --    2.70497   2.70735   2.71157   2.71320   2.71446
 Alpha virt. eigenvalues --    2.71728   2.72197   2.72577   2.72685   2.72928
 Alpha virt. eigenvalues --    2.73857   2.74067   2.74220   2.74397   2.75088
 Alpha virt. eigenvalues --    2.75425   2.75631   2.76218   2.76378   2.76690
 Alpha virt. eigenvalues --    2.77714   2.78034   2.78053   2.78499   2.78613
 Alpha virt. eigenvalues --    2.79199   2.79767   2.80148   2.80467   2.80692
 Alpha virt. eigenvalues --    2.81624   2.82005   2.82826   2.83224   2.83316
 Alpha virt. eigenvalues --    2.83471   2.84069   2.84378   2.84805   2.85077
 Alpha virt. eigenvalues --    2.85635   2.87567   2.87763   2.88032   2.89117
 Alpha virt. eigenvalues --    2.89443   2.90842   2.92189   2.92847   2.93823
 Alpha virt. eigenvalues --    2.94300   2.94471   2.95193   2.95427   2.96380
 Alpha virt. eigenvalues --    2.96798   2.97121   2.97461   2.97907   2.98571
 Alpha virt. eigenvalues --    2.99151   2.99671   3.00169   3.00338   3.00567
 Alpha virt. eigenvalues --    3.00804   3.01142   3.01679   3.02260   3.02518
 Alpha virt. eigenvalues --    3.03194   3.03908   3.04115   3.04606   3.05221
 Alpha virt. eigenvalues --    3.05768   3.06084   3.07219   3.07339   3.07924
 Alpha virt. eigenvalues --    3.08301   3.08701   3.08760   3.08968   3.09308
 Alpha virt. eigenvalues --    3.12588   3.13167   3.14316   3.14583   3.15302
 Alpha virt. eigenvalues --    3.15780   3.16024   3.17151   3.17418   3.18399
 Alpha virt. eigenvalues --    3.19309   3.21206   3.22373   3.22498   3.22803
 Alpha virt. eigenvalues --    3.24445   3.25713   3.26974   3.27518   3.28057
 Alpha virt. eigenvalues --    3.30282   3.30710   3.31010   3.33535   3.33789
 Alpha virt. eigenvalues --    3.38824   3.39449   3.42685   3.43351   3.50103
 Alpha virt. eigenvalues --    3.50376   3.52662   3.56237   3.56606   3.64761
 Alpha virt. eigenvalues --    3.66626   3.67632   3.71095   3.72354   3.74853
 Alpha virt. eigenvalues --    3.76315   3.78177   3.78908   4.02213
          Condensed to atoms (all electrons):
 Mulliken charges:
               1
     1  C   -0.084334
     2  C    0.209715
     3  C    0.039879
     4  C    0.211775
     5  O   -0.429045
     6  H    0.055802
     7  H    0.064206
     8  H    0.047673
     9  O   -0.241356
    10  O   -0.328796
    11  C    0.128804
    12  H    0.064723
    13  H    0.063811
    14  H    0.055003
    15  Si   0.689221
    16  C   -0.273304
    17  H    0.080144
    18  H    0.081844
    19  H    0.076897
    20  C   -0.297321
    21  H    0.085660
    22  H    0.075993
    23  H    0.075543
    24  C   -0.524364
    25  C    0.026581
    26  H    0.035576
    27  H    0.044755
    28  H    0.049710
    29  C    0.010947
    30  H    0.040247
    31  H    0.037269
    32  H    0.040932
    33  C    0.021135
    34  H    0.042530
    35  H    0.036550
    36  H    0.023907
    37  C    0.222253
    38  C   -0.188376
    39  C    0.053590
    40  O   -0.361055
    41  H    0.042019
    42  C    0.003585
    43  H    0.051862
    44  H    0.073151
    45  C   -0.042894
    46  C   -0.023024
    47  C   -0.024639
    48  C   -0.015465
    49  H    0.018057
    50  H    0.023843
    51  H    0.015380
    52  H   -0.003581
    53  C    0.013047
    54  C    0.011427
    55  C    0.011329
    56  C    0.077714
    57  C    0.056680
    58  C   -0.063244
    59  O   -0.452533
    60  H    0.008341
    61  C   -0.093562
    62  C    0.039512
    63  C    0.128274
    64  C    0.022877
    65  H    0.005477
    66  O   -0.492477
    67  C    0.020608
    68  C    0.036908
    69  C   -0.046857
    70  C   -0.018251
    71  C   -0.018481
    72  C   -0.041207
    73  H    0.013547
    74  H    0.026438
    75  H    0.026881
    76  H    0.028986
    77  C   -0.020560
    78  C   -0.030274
    79  C   -0.012193
    80  C    0.012956
    81  C   -0.041881
    82  C   -0.025983
    83  H    0.023958
    84  H    0.026204
    85  H    0.026795
    86  H    0.014655
    87  H    0.018248
    88  P    1.124205
    89  O   -0.522347
    90  O   -0.603797
    91  H    0.261153
    92  C   -0.022982
    93  C   -0.036626
    94  C   -0.028246
    95  C   -0.000885
    96  C   -0.027541
    97  C   -0.030856
    98  H    0.027193
    99  H    0.032416
   100  H    0.033178
   101  H   -0.013923
   102  H    0.022087
   103  H    0.074533
   104  H    0.094786
   105  H    0.072407
   106  H    0.068868
 Sum of Mulliken charges =  -0.00000
 Mulliken charges with hydrogens summed into heavy atoms:
               1
     1  C   -0.032473
     2  C    0.209715
     3  C    0.207560
     4  C    0.211775
     5  O   -0.429045
     9  O   -0.241356
    10  O   -0.328796
    11  C    0.312341
    15  Si   0.689221
    16  C   -0.034418
    20  C   -0.060125
    24  C   -0.524364
    25  C    0.156622
    29  C    0.129396
    33  C    0.124122
    37  C    0.264273
    38  C   -0.115226
    39  C    0.128123
    40  O   -0.099903
    42  C    0.239647
    45  C   -0.024837
    46  C    0.000820
    47  C   -0.009260
    48  C   -0.019047
    53  C    0.013047
    54  C    0.011427
    55  C    0.011329
    56  C    0.077714
    57  C    0.056680
    58  C   -0.054904
    59  O   -0.452533
    61  C   -0.088084
    62  C    0.039512
    63  C    0.128274
    64  C    0.022877
    66  O   -0.492477
    67  C    0.020608
    68  C    0.036908
    69  C   -0.033310
    70  C    0.008187
    71  C    0.008400
    72  C   -0.012221
    77  C    0.003399
    78  C   -0.004070
    79  C    0.014602
    80  C    0.012956
    81  C   -0.027226
    82  C   -0.007735
    88  P    1.124205
    89  O   -0.522347
    90  O   -0.603797
    92  C    0.004212
    93  C   -0.004210
    94  C    0.004932
    95  C   -0.000885
    96  C   -0.041464
    97  C   -0.008769
 Electronic spatial extent (au):  <R**2>=          31765.6900
 Charge=              0.0000 electrons
 Dipole moment (field-independent basis, Debye):
    X=             -8.6576    Y=             13.4055    Z=             -4.0340  Tot=             16.4600
 Quadrupole moment (field-independent basis, Debye-Ang):
   XX=           -323.5842   YY=           -344.8105   ZZ=           -320.7951
   XY=              8.9380   XZ=             -3.8353   YZ=            -12.6555
 Traceless Quadrupole moment (field-independent basis, Debye-Ang):
   XX=              6.1458   YY=            -15.0806   ZZ=              8.9348
   XY=              8.9380   XZ=             -3.8353   YZ=            -12.6555
 Octapole moment (field-independent basis, Debye-Ang**2):
  XXX=            -15.9981  YYY=            262.8972  ZZZ=           -130.5303  XYY=             -8.9101
  XXY=             78.8092  XXZ=            -67.0179  XZZ=            -23.1273  YZZ=             31.1066
  YYZ=            -50.0319  XYZ=            -43.0139
 Hexadecapole moment (field-independent basis, Debye-Ang**3):
 XXXX=         -19476.2405 YYYY=         -12591.2403 ZZZZ=          -9667.3294 XXXY=            -87.8154
 XXXZ=           -488.2337 YYYX=             48.5717 YYYZ=           -144.0320 ZZZX=           -295.0323
 ZZZY=            -38.9006 XXYY=          -5109.6649 XXZZ=          -4940.8182 YYZZ=          -3552.4394
 XXYZ=           -315.3398 YYXZ=            -83.2523 ZZXY=            276.8727
 N-N= 9.635332319085D+03 E-N=-2.639567238467D+04  KE= 3.023053744474D+03
 Unable to Open any file for archive entry.
 1\1\GINC-NODE-008\FTS\RwB97XD\def2SVP\C47H49O8P1Si1\JP2658\22-Dec-2023
 \0\\# wb97xd def2svp geom=allchk scrf=(iefpcm,solvent=toluene) opt=(ca
 lcfc,ts,noeigen,maxcycles=50,maxstep=10)\\BPA_TS_1_opt_dft.out\\0,1\C,
 -1.095318619,0.6095896828,-2.211426072\C,-0.8714010724,1.7657058931,-1
 .4844568096\C,0.4448276659,3.7972048697,-0.7899075924\C,2.892473148,2.
 4844557463,-1.6045010262\O,-1.6689233708,2.1250207515,-0.5152677635\H,
 1.3338825792,4.3989119793,-1.0213033673\H,0.4745407658,3.5277166012,0.
 2753387216\H,-0.4333413832,4.4353577055,-0.9568927339\O,3.6816633055,2
 .7117887923,-0.7242883159\O,3.0047599198,2.9610453367,-2.8400499345\C,
 4.1557407528,3.7475469987,-3.1195022261\H,5.0701186323,3.1547240126,-2
 .9786926014\H,4.0667070978,4.0601134752,-4.1650307796\H,4.1954616015,4
 .6260955285,-2.4602127546\Si,-3.2423706573,2.8554081491,-0.4863582966\
 C,-3.1961778334,4.0228111323,0.9620993468\H,-4.0461237238,4.7205029522
 ,0.9043021864\H,-3.268468353,3.4803713986,1.9158728456\H,-2.2652921034
 ,4.6083459459,0.9661686464\C,-3.387587472,3.7541530911,-2.1177914034\H
 ,-4.389968699,4.199068873,-2.2189407925\H,-3.2355497661,3.0719543413,-
 2.968327008\H,-2.6501579077,4.5684398362,-2.1895322608\C,-4.5489899173
 ,1.5054134327,-0.263225798\C,-4.0384335779,0.4774831617,0.7576651085\H
 ,-4.7862735446,-0.3192257641,0.9116206721\H,-3.1051560705,-0.004529441
 1,0.430032523\H,-3.8462496989,0.9313320353,1.7436446322\C,-5.837497938
 7,2.1638395013,0.2637597222\H,-5.6946106131,2.6199236898,1.2554713437\
 H,-6.6318840147,1.4047559307,0.3637645661\H,-6.2176327005,2.9435849855
 ,-0.4172485163\C,-4.854945142,0.8201618785,-1.6041425115\H,-5.60389804
 57,0.0222980718,-1.4597318621\H,-5.2703979221,1.5269685322,-2.33939420
 08\H,-3.9654679886,0.3543771574,-2.0547024138\C,1.6373428628,1.6233699
 441,-1.4561984162\C,0.3857253144,2.5551438616,-1.670133786\C,-0.265381
 5678,0.2570226129,-3.2752488918\O,1.6784250223,0.6103706149,-2.3957855
 042\H,1.6248740661,1.2374321768,-0.4252866795\C,-0.2234524696,-1.11501
 84826,-3.8281177029\H,-1.8211323921,-0.1139897787,-1.8325199191\H,0.44
 55989288,2.8468048279,-2.7333547805\C,1.9491517336,3.0510339056,2.7612
 134718\C,0.7704346719,3.6711092866,3.0913903063\C,-0.451698514,2.97364
 81214,2.9438944932\C,-0.4729486279,1.679433161,2.4826899355\H,2.900830
 8567,3.5806888026,2.845984982\H,0.7700034284,4.7009320356,3.4544900274
 \H,-1.387775233,3.4751282855,3.1936474288\H,-1.4251709203,1.1656607189
 ,2.3512964541\C,1.9613760434,1.7056899689,2.301027032\C,0.734726391,0.
 9910032909,2.1761305471\C,0.7725376527,-0.3768047912,1.738481046\C,1.9
 915018705,-0.9265193042,1.3754860319\C,3.2243710154,-0.2132975625,1.47
 15055794\C,3.1806485794,1.0752659112,1.9480763238\O,2.0171647026,-2.20
 32252798,0.9036391692\H,4.1074181514,1.6437829936,2.0428921921\C,-2.83
 85219624,-2.6825953544,1.286756111\C,-1.9765603408,-2.5495693935,0.224
 6190901\C,-0.7601589602,-1.8302857777,0.4269458527\C,-0.4561555406,-1.
 2149153739,1.6321117649\H,-3.7798611252,-3.2201733807,1.1476866361\O,0
 .087461606,-1.6951943713,-0.6288255478\C,-1.3225754376,-1.4322551876,2
 .7555994542\C,-2.5327498504,-2.159151613,2.5682356941\C,-3.410841322,-
 2.3550817153,3.669588763\C,-3.0943545805,-1.8778154678,4.9169496516\C,
 -1.8704125849,-1.195438001,5.1172884274\C,-1.00891977,-0.9805981272,4.
 0688973341\H,-4.340757133,-2.9051502151,3.5048074372\H,-3.7729800425,-
 2.0376411838,5.7574286218\H,-1.6038307118,-0.8440839355,6.1164121838\H
 ,-0.0639724152,-0.4654913169,4.2440041822\C,6.9919473251,-1.8879257082
 ,0.2666326777\C,6.1104607997,-2.6457551408,1.0377206119\C,4.8800039218
 ,-2.1189278158,1.4217597579\C,4.5130734249,-0.81978845,1.0438118608\C,
 5.4045997473,-0.0659620398,0.2679402406\C,6.6341884487,-0.5966056347,-
 0.1173624229\H,7.9538561338,-2.3063184755,-0.0383474758\H,6.3811787319
 ,-3.6592148594,1.3420363473\H,4.1956529951,-2.7221104923,2.0191772944\
 H,5.1163609714,0.9383192792,-0.0505379862\H,7.3134358368,0.0016429007,
 -0.7291305354\P,1.5644331886,-2.480387449,-0.6619209626\O,1.4325734557
 ,-3.9444907296,-0.835325178\O,2.3770427174,-1.6115988548,-1.5953185315
 \H,1.9899031655,-0.2994340698,-2.0014012655\C,-3.1524964358,-3.9457873
 817,-3.6646684712\C,-1.9598015669,-4.3983703935,-3.0980262058\C,-1.557
 1172577,-3.9561396407,-1.8390078719\C,-2.3571110983,-3.0550769591,-1.1
 232862367\C,-3.5609189874,-2.6177433959,-1.6916143068\C,-3.9548331525,
 -3.0522603578,-2.9568294373\H,-3.4565291549,-4.2914815336,-4.655332363
 \H,-1.3267088503,-5.100900274,-3.6446558852\H,-0.6061549015,-4.2926589
 423,-1.418770179\H,-4.1885792154,-1.9183811025,-1.1358521958\H,-4.8918
 035144,-2.6912472762,-3.3875014186\H,0.168584829,1.0430859339,-3.89234
 50134\H,0.7814279573,-1.5263994005,-3.6352249561\H,-0.9520694824,-1.77
 87156638,-3.3475569995\H,-0.3642566055,-1.1011355254,-4.9184772394\\Ve
 rsion=ES64L-G16RevC.01\State=1-A\HF=-3050.6553487\RMSD=6.633e-09\RMSF=
 9.522e-07\Dipole=-3.4137875,5.258818,-1.6210678\Quadrupole=4.5517826,-
 11.2952638,6.7434812,6.6676824,-2.8751737,-9.3040002\PG=C01 [X(C47H49O
 8P1Si1)]\\@
 The archive entry for this job was punched.


 THERE IS NO SCIENCE WITHOUT FANCY, NOR ART WITHOUT FACTS.
     -- VLADIMIR NABAKOV
 Job cpu time:       2 days  8 hours 17 minutes 43.6 seconds.
 Elapsed time:       0 days  4 hours 46 minutes 20.6 seconds.
 File lengths (MBytes):  RWF=  12728 Int=      0 D2E=      0 Chk=    137 Scr=      1
 Normal termination of Gaussian 16 at Fri Dec 22 01:13:02 2023.
