Unloading slurm/anatra/current
  ERROR: No such file or directory on
    '/cm/local/modulefiles/slurm/anatra/current'
environment: line 0: unalias: gv: not found
environment: line 0: unalias: sl: not found
 Entering Gaussian System, Link 0=g16
 Initial command:
 /apps/gaussian/g16/C.01/g16/l1.exe "/local/jobs/1152774/Gau-3942389.inp" -scrdir="/local/jobs/1152774/"
 Entering Link 1 = /apps/gaussian/g16/C.01/g16/l1.exe PID=   3942390.
  
 Copyright (c) 1988-2019, Gaussian, Inc.  All Rights Reserved.
  
 This is part of the Gaussian(R) 16 program.  It is based on
 the Gaussian(R) 09 system (copyright 2009, Gaussian, Inc.),
 the Gaussian(R) 03 system (copyright 2003, Gaussian, Inc.),
 the Gaussian(R) 98 system (copyright 1998, Gaussian, Inc.),
 the Gaussian(R) 94 system (copyright 1995, Gaussian, Inc.),
 the Gaussian 92(TM) system (copyright 1992, Gaussian, Inc.),
 the Gaussian 90(TM) system (copyright 1990, Gaussian, Inc.),
 the Gaussian 88(TM) system (copyright 1988, Gaussian, Inc.),
 the Gaussian 86(TM) system (copyright 1986, Carnegie Mellon
 University), and the Gaussian 82(TM) system (copyright 1983,
 Carnegie Mellon University). Gaussian is a federally registered
 trademark of Gaussian, Inc.
  
 This software contains proprietary and confidential information,
 including trade secrets, belonging to Gaussian, Inc.
  
 This software is provided under written license and may be
 used, copied, transmitted, or stored only in accord with that
 written license.
  
 The following legend is applicable only to US Government
 contracts under FAR:
  
                    RESTRICTED RIGHTS LEGEND
  
 Use, reproduction and disclosure by the US Government is
 subject to restrictions as set forth in subparagraphs (a)
 and (c) of the Commercial Computer Software - Restricted
 Rights clause in FAR 52.227-19.
  
 Gaussian, Inc.
 340 Quinnipiac St., Bldg. 40, Wallingford CT 06492
  
  
 ---------------------------------------------------------------
 Warning -- This program may not be used in any manner that
 competes with the business of Gaussian, Inc. or will provide
 assistance to any competitor of Gaussian, Inc.  The licensee
 of this program is prohibited from giving any competitor of
 Gaussian, Inc. access to this program.  By using this program,
 the user acknowledges that Gaussian, Inc. is engaged in the
 business of creating and licensing software in the field of
 computational chemistry and represents and warrants to the
 licensee that it is not a competitor of Gaussian, Inc. and that
 it will not use this program in any manner prohibited above.
 ---------------------------------------------------------------
  

 Cite this work as:
 Gaussian 16, Revision C.01,
 M. J. Frisch, G. W. Trucks, H. B. Schlegel, G. E. Scuseria, 
 M. A. Robb, J. R. Cheeseman, G. Scalmani, V. Barone, 
 G. A. Petersson, H. Nakatsuji, X. Li, M. Caricato, A. V. Marenich, 
 J. Bloino, B. G. Janesko, R. Gomperts, B. Mennucci, H. P. Hratchian, 
 J. V. Ortiz, A. F. Izmaylov, J. L. Sonnenberg, D. Williams-Young, 
 F. Ding, F. Lipparini, F. Egidi, J. Goings, B. Peng, A. Petrone, 
 T. Henderson, D. Ranasinghe, V. G. Zakrzewski, J. Gao, N. Rega, 
 G. Zheng, W. Liang, M. Hada, M. Ehara, K. Toyota, R. Fukuda, 
 J. Hasegawa, M. Ishida, T. Nakajima, Y. Honda, O. Kitao, H. Nakai, 
 T. Vreven, K. Throssell, J. A. Montgomery, Jr., J. E. Peralta, 
 F. Ogliaro, M. J. Bearpark, J. J. Heyd, E. N. Brothers, K. N. Kudin, 
 V. N. Staroverov, T. A. Keith, R. Kobayashi, J. Normand, 
 K. Raghavachari, A. P. Rendell, J. C. Burant, S. S. Iyengar, 
 J. Tomasi, M. Cossi, J. M. Millam, M. Klene, C. Adamo, R. Cammi, 
 J. W. Ochterski, R. L. Martin, K. Morokuma, O. Farkas, 
 J. B. Foresman, and D. J. Fox, Gaussian, Inc., Wallingford CT, 2019.
 
 ******************************************
 Gaussian 16:  ES64L-G16RevC.01  3-Jul-2019
                22-Dec-2023 
 ******************************************
 %chk=da-2_1_opt_dft_re.chk
 %nprocshared=12
 Will use up to   12 processors via shared memory.
 %mem=48GB
 ----------------------------------------------------------------------
 # wb97xd def2svp geom=allchk scrf=(iefpcm,solvent=toluene) opt=(calcfc
 ,ts,noeigen,maxcycles=50,maxstep=10)
 ----------------------------------------------------------------------
 1/5=1,6=50,8=10,10=4,11=1,18=20,26=3,29=7,38=1/1,3;
 2/9=110,12=2,40=1/2;
 3/5=43,7=101,11=2,14=-4,25=1,30=1,70=2201,71=2,72=13,74=-58,140=1/1,2,3;
 4//1;
 5/5=2,38=5,53=13/2;
 8/6=4,10=90,11=11/1;
 11/6=1,8=1,9=11,15=111,16=1/1,2,10;
 10/6=1,13=1/2;
 6/7=2,8=2,9=2,10=2,28=1/1;
 7/10=1,25=1/1,2,3,16;
 1/5=1,6=50,8=10,10=4,11=1,18=20,26=3/3(2);
 2/9=110/2;
 99//99;
 2/9=110/2;
 3/5=43,7=101,11=2,14=-2,25=1,30=1,70=2205,71=1,72=13,74=-58/1,2,3;
 4/5=5,16=3,69=1/1;
 5/5=2,38=5,53=13/2;
 7//1,2,3,16;
 1/5=1,6=50,8=10,11=1,18=20,26=3/3(-5);
 2/9=110/2;
 6/7=2,8=2,9=2,10=2,19=2,28=1/1;
 99/9=1/99;
 Structure from the checkpoint file:  "da-2_1_opt_dft_re.chk"
 -----------------------
 1d_2b_endo_2_reopt3.out
 -----------------------
 Charge =  0 Multiplicity = 1
 Redundant internal coordinates found in file.  (old form).
 C,0,-2.2592237775,0.4383570203,-0.0738690544
 C,0,0.0700401929,-0.3830149705,1.9147556702
 C,0,-0.2313992749,2.7484288766,-0.084532737
 C,0,0.9605101854,0.6104691113,1.9434907369
 C,0,-1.2936619283,0.655948501,-0.9833935532
 C,0,-0.3744866172,1.7982282026,-1.0206401686
 H,0,0.501496722,3.5486125001,-0.2075733097
 H,0,-0.8393668366,2.7708127446,0.8244283361
 H,0,-2.429508986,1.1926096833,0.7035405183
 H,0,-0.7679491258,-0.5860938082,2.578532193
 H,0,1.0512915154,1.4442776478,2.6365613812
 O,0,1.5112556761,-0.7293309619,0.141747365
 C,0,0.4145850815,-1.2717834296,0.7700969921
 C,0,1.9147508422,0.4025448738,0.8179610951
 O,0,-0.0891200213,-2.2884908694,0.4080053867
 O,0,2.8792044187,1.0220276967,0.5021513211
 C,0,-3.1416864259,-0.7770732379,-0.0541819134
 H,0,-3.7455687726,-0.8467510652,-0.9727798771
 H,0,-2.5379371744,-1.6965892684,0.0103848759
 H,0,-3.8333364715,-0.7619435432,0.7985740045
 H,0,-1.1463159659,-0.0941813124,-1.7688259669
 H,0,0.2791267439,1.8427356084,-1.8979332956
 Recover connectivity data from disk.

 GradGradGradGradGradGradGradGradGradGradGradGradGradGradGradGradGradGrad
 Berny optimization.
 Initialization pass.
                           ----------------------------
                           !    Initial Parameters    !
                           ! (Angstroms and Degrees)  !
 --------------------------                            --------------------------
 ! Name  Definition              Value          Derivative Info.                !
 --------------------------------------------------------------------------------
 ! R1    R(1,5)                  1.3442         calculate D2E/DX2 analytically  !
 ! R2    R(1,9)                  1.0965         calculate D2E/DX2 analytically  !
 ! R3    R(1,17)                 1.5021         calculate D2E/DX2 analytically  !
 ! R4    R(2,4)                  1.3345         calculate D2E/DX2 analytically  !
 ! R5    R(2,10)                 1.0881         calculate D2E/DX2 analytically  !
 ! R6    R(2,13)                 1.4896         calculate D2E/DX2 analytically  !
 ! R7    R(3,6)                  1.3415         calculate D2E/DX2 analytically  !
 ! R8    R(3,7)                  1.092          calculate D2E/DX2 analytically  !
 ! R9    R(3,8)                  1.0938         calculate D2E/DX2 analytically  !
 ! R10   R(4,11)                 1.088          calculate D2E/DX2 analytically  !
 ! R11   R(4,14)                 1.4902         calculate D2E/DX2 analytically  !
 ! R12   R(5,6)                  1.4667         calculate D2E/DX2 analytically  !
 ! R13   R(5,21)                 1.096          calculate D2E/DX2 analytically  !
 ! R14   R(6,22)                 1.0949         calculate D2E/DX2 analytically  !
 ! R15   R(8,11)                 2.9357         calculate D2E/DX2 analytically  !
 ! R16   R(12,13)                1.3754         calculate D2E/DX2 analytically  !
 ! R17   R(12,14)                1.3788         calculate D2E/DX2 analytically  !
 ! R18   R(13,15)                1.191          calculate D2E/DX2 analytically  !
 ! R19   R(14,16)                1.189          calculate D2E/DX2 analytically  !
 ! R20   R(17,18)                1.1015         calculate D2E/DX2 analytically  !
 ! R21   R(17,19)                1.1019         calculate D2E/DX2 analytically  !
 ! R22   R(17,20)                1.0981         calculate D2E/DX2 analytically  !
 ! A1    A(5,1,9)              118.6813         calculate D2E/DX2 analytically  !
 ! A2    A(5,1,17)             124.1829         calculate D2E/DX2 analytically  !
 ! A3    A(9,1,17)             117.1336         calculate D2E/DX2 analytically  !
 ! A4    A(4,2,10)             129.7688         calculate D2E/DX2 analytically  !
 ! A5    A(4,2,13)             107.8426         calculate D2E/DX2 analytically  !
 ! A6    A(10,2,13)            122.3798         calculate D2E/DX2 analytically  !
 ! A7    A(6,3,7)              120.7947         calculate D2E/DX2 analytically  !
 ! A8    A(6,3,8)              122.351          calculate D2E/DX2 analytically  !
 ! A9    A(7,3,8)              116.8513         calculate D2E/DX2 analytically  !
 ! A10   A(2,4,11)             129.7861         calculate D2E/DX2 analytically  !
 ! A11   A(2,4,14)             107.8882         calculate D2E/DX2 analytically  !
 ! A12   A(11,4,14)            122.3181         calculate D2E/DX2 analytically  !
 ! A13   A(1,5,6)              126.4011         calculate D2E/DX2 analytically  !
 ! A14   A(1,5,21)             118.0768         calculate D2E/DX2 analytically  !
 ! A15   A(6,5,21)             115.5045         calculate D2E/DX2 analytically  !
 ! A16   A(3,6,5)              126.9256         calculate D2E/DX2 analytically  !
 ! A17   A(3,6,22)             117.8167         calculate D2E/DX2 analytically  !
 ! A18   A(5,6,22)             115.2221         calculate D2E/DX2 analytically  !
 ! A19   A(3,8,11)              98.3809         calculate D2E/DX2 analytically  !
 ! A20   A(4,11,8)              84.2232         calculate D2E/DX2 analytically  !
 ! A21   A(13,12,14)           109.453          calculate D2E/DX2 analytically  !
 ! A22   A(2,13,12)            107.4677         calculate D2E/DX2 analytically  !
 ! A23   A(2,13,15)            130.1754         calculate D2E/DX2 analytically  !
 ! A24   A(12,13,15)           122.3434         calculate D2E/DX2 analytically  !
 ! A25   A(4,14,12)            107.3113         calculate D2E/DX2 analytically  !
 ! A26   A(4,14,16)            130.3423         calculate D2E/DX2 analytically  !
 ! A27   A(12,14,16)           122.331          calculate D2E/DX2 analytically  !
 ! A28   A(1,17,18)            111.2428         calculate D2E/DX2 analytically  !
 ! A29   A(1,17,19)            110.7377         calculate D2E/DX2 analytically  !
 ! A30   A(1,17,20)            111.6576         calculate D2E/DX2 analytically  !
 ! A31   A(18,17,19)           107.2451         calculate D2E/DX2 analytically  !
 ! A32   A(18,17,20)           107.6488         calculate D2E/DX2 analytically  !
 ! A33   A(19,17,20)           108.1259         calculate D2E/DX2 analytically  !
 ! D1    D(9,1,5,6)              2.8923         calculate D2E/DX2 analytically  !
 ! D2    D(9,1,5,21)          -178.7072         calculate D2E/DX2 analytically  !
 ! D3    D(17,1,5,6)          -177.6599         calculate D2E/DX2 analytically  !
 ! D4    D(17,1,5,21)            0.7407         calculate D2E/DX2 analytically  !
 ! D5    D(5,1,17,18)          -61.8477         calculate D2E/DX2 analytically  !
 ! D6    D(5,1,17,19)           57.3149         calculate D2E/DX2 analytically  !
 ! D7    D(5,1,17,20)          177.8639         calculate D2E/DX2 analytically  !
 ! D8    D(9,1,17,18)          117.608          calculate D2E/DX2 analytically  !
 ! D9    D(9,1,17,19)         -123.2294         calculate D2E/DX2 analytically  !
 ! D10   D(9,1,17,20)           -2.6805         calculate D2E/DX2 analytically  !
 ! D11   D(10,2,4,11)           -0.0525         calculate D2E/DX2 analytically  !
 ! D12   D(10,2,4,14)          178.9412         calculate D2E/DX2 analytically  !
 ! D13   D(13,2,4,11)         -178.9669         calculate D2E/DX2 analytically  !
 ! D14   D(13,2,4,14)            0.0267         calculate D2E/DX2 analytically  !
 ! D15   D(4,2,13,12)           -1.1894         calculate D2E/DX2 analytically  !
 ! D16   D(4,2,13,15)          177.473          calculate D2E/DX2 analytically  !
 ! D17   D(10,2,13,12)         179.7986         calculate D2E/DX2 analytically  !
 ! D18   D(10,2,13,15)          -1.539          calculate D2E/DX2 analytically  !
 ! D19   D(7,3,6,5)            178.8548         calculate D2E/DX2 analytically  !
 ! D20   D(7,3,6,22)             1.1375         calculate D2E/DX2 analytically  !
 ! D21   D(8,3,6,5)             -1.8009         calculate D2E/DX2 analytically  !
 ! D22   D(8,3,6,22)          -179.5182         calculate D2E/DX2 analytically  !
 ! D23   D(6,3,8,11)            96.9671         calculate D2E/DX2 analytically  !
 ! D24   D(7,3,8,11)           -83.6642         calculate D2E/DX2 analytically  !
 ! D25   D(2,4,11,8)           -86.8338         calculate D2E/DX2 analytically  !
 ! D26   D(14,4,11,8)           94.2995         calculate D2E/DX2 analytically  !
 ! D27   D(2,4,14,12)            1.1405         calculate D2E/DX2 analytically  !
 ! D28   D(2,4,14,16)         -177.4281         calculate D2E/DX2 analytically  !
 ! D29   D(11,4,14,12)        -179.7746         calculate D2E/DX2 analytically  !
 ! D30   D(11,4,14,16)           1.6568         calculate D2E/DX2 analytically  !
 ! D31   D(1,5,6,3)              7.8539         calculate D2E/DX2 analytically  !
 ! D32   D(1,5,6,22)          -174.3778         calculate D2E/DX2 analytically  !
 ! D33   D(21,5,6,3)          -170.5825         calculate D2E/DX2 analytically  !
 ! D34   D(21,5,6,22)            7.1858         calculate D2E/DX2 analytically  !
 ! D35   D(3,8,11,4)           -60.5464         calculate D2E/DX2 analytically  !
 ! D36   D(14,12,13,2)           1.9293         calculate D2E/DX2 analytically  !
 ! D37   D(14,12,13,15)       -176.8611         calculate D2E/DX2 analytically  !
 ! D38   D(13,12,14,4)          -1.9112         calculate D2E/DX2 analytically  !
 ! D39   D(13,12,14,16)        176.7977         calculate D2E/DX2 analytically  !
 --------------------------------------------------------------------------------
 Trust Radius=1.00D-01 FncErr=1.00D-07 GrdErr=1.00D-06 EigMax=2.50D+02 EigMin=1.00D-04
 Number of steps in this run=     50 maximum allowed number of steps=    132.
 Search for a saddle point of order  1.
 GradGradGradGradGradGradGradGradGradGradGradGradGradGradGradGradGradGrad

                          Input orientation:                          
 ---------------------------------------------------------------------
 Center     Atomic      Atomic             Coordinates (Angstroms)
 Number     Number       Type             X           Y           Z
 ---------------------------------------------------------------------
      1          6           0       -2.259224    0.438357   -0.073869
      2          6           0        0.070040   -0.383015    1.914756
      3          6           0       -0.231399    2.748429   -0.084533
      4          6           0        0.960510    0.610469    1.943491
      5          6           0       -1.293662    0.655949   -0.983394
      6          6           0       -0.374487    1.798228   -1.020640
      7          1           0        0.501497    3.548613   -0.207573
      8          1           0       -0.839367    2.770813    0.824428
      9          1           0       -2.429509    1.192610    0.703541
     10          1           0       -0.767949   -0.586094    2.578532
     11          1           0        1.051292    1.444278    2.636561
     12          8           0        1.511256   -0.729331    0.141747
     13          6           0        0.414585   -1.271783    0.770097
     14          6           0        1.914751    0.402545    0.817961
     15          8           0       -0.089120   -2.288491    0.408005
     16          8           0        2.879204    1.022028    0.502151
     17          6           0       -3.141686   -0.777073   -0.054182
     18          1           0       -3.745569   -0.846751   -0.972780
     19          1           0       -2.537937   -1.696589    0.010385
     20          1           0       -3.833336   -0.761944    0.798574
     21          1           0       -1.146316   -0.094181   -1.768826
     22          1           0        0.279127    1.842736   -1.897933
 ---------------------------------------------------------------------
                    Distance matrix (angstroms):
                    1          2          3          4          5
     1  C    0.000000
     2  C    3.170923   0.000000
     3  C    3.073860   3.727460   0.000000
     4  C    3.803426   1.334456   3.178742   0.000000
     5  C    1.344206   3.367254   2.512932   3.694592   0.000000
     6  C    2.509554   3.684016   1.341511   3.461078   1.466654
     7  H    4.160907   4.488667   1.092048   3.670212   3.491704
     8  H    2.874592   3.458680   1.093771   3.026374   2.819088
     9  H    1.096476   3.193334   2.805944   3.656309   2.103307
    10  H    3.210706   1.088148   4.301028   2.196045   3.808721
    11  H    4.395204   2.196100   3.278789   1.088037   4.384557
    12  O    3.953037   2.310973   3.896519   2.311853   3.324531
    13  C    3.284222   1.489585   4.160504   2.284242   3.115925
    14  C    4.268338   2.285393   3.305091   1.490176   3.688225
    15  O    3.518132   2.434434   5.062944   3.444330   3.472267
    16  O    5.203452   3.443980   3.605623   2.434795   4.444510
    17  C    1.502131   3.787768   4.571636   4.769066   2.516382
    18  H    2.160732   4.807472   5.105261   5.724972   2.875772
    19  H    2.154710   3.486209   5.008724   4.615035   2.840819
    20  H    2.163264   4.077474   5.106520   5.116182   3.411125
    21  H    2.096435   3.889951   3.428462   4.326262   1.096043
    22  H    3.426764   4.419760   2.090296   4.091369   2.172213
                    6          7          8          9         10
     6  C    0.000000
     7  H    2.119498   0.000000
     8  H    2.136893   1.862234   0.000000
     9  H    2.750035   3.869325   2.243633   0.000000
    10  H    4.335187   5.144869   3.788245   3.072485   0.000000
    11  H    3.941224   3.580447   2.935662   3.989471   2.726795
    12  O    3.360911   4.409358   4.271122   4.420305   3.339642
    13  C    3.640652   4.919310   4.232958   3.763846   2.266935
    14  C    3.250999   3.598159   3.632341   4.417000   3.357662
    15  O    4.338633   5.899114   5.131553   4.205095   2.840801
    16  O    3.675308   3.541304   4.121879   5.315270   4.494345
    17  C    3.901745   5.657550   4.319737   2.227328   3.549970
    18  H    4.285137   6.159734   4.976217   2.949755   4.641765
    19  H    4.237603   6.066119   4.848246   2.973162   3.310806
    20  H    4.672008   6.195483   4.630863   2.408327   3.549053
    21  H    2.176400   4.292172   3.876516   3.068389   4.391431
    22  H    1.094913   2.411800   3.086034   3.811435   5.199454
                   11         12         13         14         15
    11  H    0.000000
    12  O    3.340694   0.000000
    13  C    3.356497   1.375414   0.000000
    14  C    2.266732   1.378846   2.248591   0.000000
    15  O    4.494503   2.250128   1.191018   3.380124   0.000000
    16  O    2.841701   2.251318   3.377531   1.188977   4.447398
    17  C    5.454866   4.657310   3.683917   5.264949   3.437464
    18  H    6.425420   5.374957   4.530469   6.066854   4.165909
    19  H    5.444668   4.165190   3.078150   4.988484   2.550521
    20  H    5.666145   5.384900   4.278503   5.864888   4.062271
    21  H    5.157884   3.334125   3.204573   4.038358   3.266688
    22  H    4.616996   3.506275   4.103287   3.482169   4.745523
                   16         17         18         19         20
    16  O    0.000000
    17  C    6.308518   0.000000
    18  H    7.039558   1.101522   0.000000
    19  H    6.080965   1.101904   1.774038   0.000000
    20  H    6.951879   1.098090   1.775553   1.781254   0.000000
    21  H    4.754795   2.718060   2.820668   2.769461   3.775914
    22  H    3.632406   4.686660   4.928227   4.909618   5.564877
                   21         22
    21  H    0.000000
    22  H    2.408361   0.000000
 Stoichiometry    C9H10O3
 Framework group  C1[X(C9H10O3)]
 Deg. of freedom    60
 Full point group                 C1      NOp   1
 Largest Abelian subgroup         C1      NOp   1
 Largest concise Abelian subgroup C1      NOp   1
                         Standard orientation:                         
 ---------------------------------------------------------------------
 Center     Atomic      Atomic             Coordinates (Angstroms)
 Number     Number       Type             X           Y           Z
 ---------------------------------------------------------------------
      1          6           0       -2.177116    0.626652    0.274539
      2          6           0        0.331450   -1.042273    1.262737
      3          6           0        0.199106    2.574241    0.369839
      4          6           0        1.378244   -0.217334    1.329599
      5          6           0       -1.410074    1.009861   -0.760684
      6          6           0       -0.322041    1.992549   -0.720891
      7          1           0        1.025333    3.283222    0.284602
      8          1           0       -0.180296    2.376447    1.376451
      9          1           0       -2.027704    1.109828    1.247409
     10          1           0       -0.364353   -1.348454    2.041311
     11          1           0        1.774238    0.337755    2.177474
     12          8           0        1.258663   -0.970505   -0.852853
     13          6           0        0.243248   -1.555548   -0.132839
     14          6           0        2.006768   -0.165028   -0.020529
     15          8           0       -0.510432   -2.340736   -0.616543
     16          8           0        2.978403    0.408540   -0.395510
     17          6           0       -3.247679   -0.423527    0.188413
     18          1           0       -4.039507   -0.129216   -0.518510
     19          1           0       -2.829603   -1.378539   -0.168458
     20          1           0       -3.720836   -0.600809    1.163346
     21          1           0       -1.582418    0.535723   -1.733720
     22          1           0        0.120633    2.238091   -1.691759
 ---------------------------------------------------------------------
 Rotational constants (GHZ):           1.2079405           0.8429596           0.6132918
 Standard basis: def2SVP (5D, 7F)
 There are   230 symmetry adapted cartesian basis functions of A   symmetry.
 There are   218 symmetry adapted basis functions of A   symmetry.
   218 basis functions,   370 primitive gaussians,   230 cartesian basis functions
    44 alpha electrons       44 beta electrons
       nuclear repulsion energy       688.3123336670 Hartrees.
 NAtoms=   22 NActive=   22 NUniq=   22 SFac= 1.00D+00 NAtFMM=   60 NAOKFM=F Big=F
 Integral buffers will be    131072 words long.
 Raffenetti 2 integral format.
 Two-electron integral symmetry is turned on.
 Nuclear repulsion after empirical dispersion term =      688.2968265961 Hartrees.
 Force inversion solution in PCM.
 ------------------------------------------------------------------------------
 Polarizable Continuum Model (PCM)
 =================================
 Model                : PCM.
 Atomic radii         : UFF (Universal Force Field).
 Polarization charges : Total charges.
 Charge compensation  : None.
 Solution method      : Matrix inversion.
 Cavity type          : Scaled VdW (van der Waals Surface) (Alpha=1.100).
 Cavity algorithm     : GePol (No added spheres)
                        Default sphere list used, NSphG=   22.
                        Lebedev-Laikov grids with approx.  5.0 points / Ang**2.
                        Smoothing algorithm: York/Karplus (Gamma=1.0000).
                        Polarization charges: spherical gaussians, with
                                              point-specific exponents (IZeta= 3).
                        Self-potential: point-specific (ISelfS= 7).
                        Self-field    : sphere-specific E.n sum rule (ISelfD= 2).
 1st derivatives      : Analytical E(r).r(x)/FMM algorithm (CHGder, D1EAlg=3).
                        Cavity 1st derivative terms included.
 2nd derivatives      : Analytical E(r).r(xy)/FMM algorithm (CHGder, D2EAlg=3).
                        Cavity 2nd derivative terms included.
 Solvent              : Toluene, Eps=   2.374100 Eps(inf)=   2.238315
 ------------------------------------------------------------------------------
 One-electron integrals computed using PRISM.
   1 Symmetry operations used in ECPInt.
 ECPInt:  NShTT=    5253 NPrTT=   19101 LenC2=    5151 LenP2D=   14297.
 LDataN:  DoStor=T MaxTD1= 4 Len=   56
 NBasis=   218 RedAO= T EigKep=  5.02D-04  NBF=   218
 NBsUse=   218 1.00D-06 EigRej= -1.00D+00 NBFU=   218
 ExpMin= 1.22D-01 ExpMax= 2.27D+03 ExpMxC= 3.41D+02 IAcc=3 IRadAn=         5 AccDes= 0.00D+00
 Harris functional with IExCor= 4639 and IRadAn=       5 diagonalized for initial guess.
 HarFok:  IExCor= 4639 AccDes= 0.00D+00 IRadAn=         5 IDoV= 1 UseB2=F ITyADJ=14
 ICtDFT=  3500011 ScaDFX=  1.000000  1.000000  1.000000  1.000000
 FoFCou: FMM=F IPFlag=           0 FMFlag=      100000 FMFlg1=           0
         NFxFlg=           0 DoJE=T BraDBF=F KetDBF=T FulRan=T
         wScrn=  0.000000 ICntrl=       500 IOpCl=  0 I1Cent=   200000004 NGrid=           0
         NMat0=    1 NMatS0=      1 NMatT0=    0 NMatD0=    1 NMtDS0=    0 NMtDT0=    0
 Petite list used in FoFCou.
 Requested convergence on RMS density matrix=1.00D-08 within 128 cycles.
 Requested convergence on MAX density matrix=1.00D-06.
 Requested convergence on             energy=1.00D-06.
 No special actions if energy rises.
 Inv3:  Mode=1 IEnd=     9806592.
 Iteration    1 A*A^-1 deviation from unit magnitude is 2.78D-15 for    248.
 Iteration    1 A*A^-1 deviation from orthogonality  is 3.33D-15 for   1626    727.
 Iteration    1 A^-1*A deviation from unit magnitude is 3.00D-15 for    248.
 Iteration    1 A^-1*A deviation from orthogonality  is 1.77D-15 for   1729   1645.
 Error on total polarization charges =  0.00604
 SCF Done:  E(RwB97XD) =  -573.998631054     A.U. after   14 cycles
            NFock= 14  Conv=0.65D-08     -V/T= 2.0097
 DoSCS=F DFT=T ScalE2(SS,OS)=  1.000000  1.000000
 Range of M.O.s used for correlation:     1   218
 NBasis=   218 NAE=    44 NBE=    44 NFC=     0 NFV=     0
 NROrb=    218 NOA=    44 NOB=    44 NVA=   174 NVB=   174
   1 Symmetry operations used in ECPInt.
 ECPInt:  NShTT=    5253 NPrTT=   19101 LenC2=    5151 LenP2D=   14297.
 LDataN:  DoStor=T MaxTD1= 5 Len=  102
 Symmetrizing basis deriv contribution to polar:
 IMax=3 JMax=2 DiffMx= 0.00D+00
 G2DrvN: will do    23 centers at a time, making    1 passes.
 Calling FoFCou, ICntrl=  3107 FMM=F I1Cent=   0 AccDes= 0.00D+00.
 NEqPCM:  Using equilibrium solvation (IEInf=0, Eps=   2.3741, EpsInf=   2.2383)
 G2PCM: DoFxE=T DoFxN=T DoGrad=T DoDP/DQ/DG/TGxP=FFFF NFrqRd=   0 IEInf=0 SqF1=F DoCFld=F IF1Alg=4.
 End of G2Drv F.D. properties file   721 does not exist.
 End of G2Drv F.D. properties file   722 does not exist.
 End of G2Drv F.D. properties file   788 does not exist.
          IDoAtm=1111111111111111111111
 NEqPCM:  Using equilibrium solvation (IEInf=0, Eps=   2.3741, EpsInf=   2.2383)
          Differentiating once with respect to nuclear coordinates.
 Keep R1 ints in memory in canonical form, NReq=587803661.
          There are    69 degrees of freedom in the 1st order CPHF.  IDoFFX=6 NUNeed=     0.
     63 vectors produced by pass  0 Test12= 1.11D-14 1.45D-09 XBig12= 8.44D-02 6.34D-02.
 AX will form    63 AO Fock derivatives at one time.
     63 vectors produced by pass  1 Test12= 1.11D-14 1.45D-09 XBig12= 5.59D-03 2.41D-02.
     63 vectors produced by pass  2 Test12= 1.11D-14 1.45D-09 XBig12= 1.80D-04 3.47D-03.
     63 vectors produced by pass  3 Test12= 1.11D-14 1.45D-09 XBig12= 1.93D-06 2.71D-04.
     63 vectors produced by pass  4 Test12= 1.11D-14 1.45D-09 XBig12= 2.41D-08 2.12D-05.
     63 vectors produced by pass  5 Test12= 1.11D-14 1.45D-09 XBig12= 1.92D-10 1.91D-06.
     55 vectors produced by pass  6 Test12= 1.11D-14 1.45D-09 XBig12= 1.10D-12 1.29D-07.
     24 vectors produced by pass  7 Test12= 1.11D-14 1.45D-09 XBig12= 4.84D-15 8.84D-09.
 InvSVY:  IOpt=1 It=  1 EMax= 2.50D-16
 Solved reduced A of dimension   457 with    69 vectors.
 End of Minotr F.D. properties file   721 does not exist.
 End of Minotr F.D. properties file   722 does not exist.
 End of Minotr F.D. properties file   788 does not exist.

 **********************************************************************

            Population analysis using the SCF Density.

 **********************************************************************

 Orbital symmetries:
       Occupied  (A) (A) (A) (A) (A) (A) (A) (A) (A) (A) (A) (A)
                 (A) (A) (A) (A) (A) (A) (A) (A) (A) (A) (A) (A)
                 (A) (A) (A) (A) (A) (A) (A) (A) (A) (A) (A) (A)
                 (A) (A) (A) (A) (A) (A) (A) (A)
       Virtual   (A) (A) (A) (A) (A) (A) (A) (A) (A) (A) (A) (A)
                 (A) (A) (A) (A) (A) (A) (A) (A) (A) (A) (A) (A)
                 (A) (A) (A) (A) (A) (A) (A) (A) (A) (A) (A) (A)
                 (A) (A) (A) (A) (A) (A) (A) (A) (A) (A) (A) (A)
                 (A) (A) (A) (A) (A) (A) (A) (A) (A) (A) (A) (A)
                 (A) (A) (A) (A) (A) (A) (A) (A) (A) (A) (A) (A)
                 (A) (A) (A) (A) (A) (A) (A) (A) (A) (A) (A) (A)
                 (A) (A) (A) (A) (A) (A) (A) (A) (A) (A) (A) (A)
                 (A) (A) (A) (A) (A) (A) (A) (A) (A) (A) (A) (A)
                 (A) (A) (A) (A) (A) (A) (A) (A) (A) (A) (A) (A)
                 (A) (A) (A) (A) (A) (A) (A) (A) (A) (A) (A) (A)
                 (A) (A) (A) (A) (A) (A) (A) (A) (A) (A) (A) (A)
                 (A) (A) (A) (A) (A) (A) (A) (A) (A) (A) (A) (A)
                 (A) (A) (A) (A) (A) (A) (A) (A) (A) (A) (A) (A)
                 (A) (A) (A) (A) (A) (A)
 The electronic state is 1-A.
 Alpha  occ. eigenvalues --  -19.33313 -19.28006 -19.27859 -10.46131 -10.46013
 Alpha  occ. eigenvalues --  -10.35480 -10.35402 -10.31563 -10.31365 -10.30626
 Alpha  occ. eigenvalues --  -10.30593 -10.29897  -1.25211  -1.17959  -1.14137
 Alpha  occ. eigenvalues --   -0.94333  -0.91226  -0.85509  -0.79637  -0.77622
 Alpha  occ. eigenvalues --   -0.73531  -0.69444  -0.68738  -0.62075  -0.60670
 Alpha  occ. eigenvalues --   -0.60452  -0.57624  -0.56916  -0.55625  -0.54403
 Alpha  occ. eigenvalues --   -0.53380  -0.51994  -0.50502  -0.49800  -0.49498
 Alpha  occ. eigenvalues --   -0.47777  -0.43649  -0.43489  -0.42990  -0.42034
 Alpha  occ. eigenvalues --   -0.41093  -0.39122  -0.38143  -0.31113
 Alpha virt. eigenvalues --   -0.03732   0.02284   0.10936   0.12123   0.13696
 Alpha virt. eigenvalues --    0.15349   0.15898   0.16191   0.17118   0.19451
 Alpha virt. eigenvalues --    0.21089   0.21492   0.22504   0.24145   0.25010
 Alpha virt. eigenvalues --    0.27229   0.27865   0.29609   0.31893   0.33584
 Alpha virt. eigenvalues --    0.35274   0.36534   0.39147   0.40206   0.44035
 Alpha virt. eigenvalues --    0.45029   0.45468   0.48046   0.49128   0.49982
 Alpha virt. eigenvalues --    0.50608   0.52712   0.54049   0.54959   0.55697
 Alpha virt. eigenvalues --    0.57862   0.58871   0.60789   0.62538   0.63918
 Alpha virt. eigenvalues --    0.66107   0.69813   0.70384   0.70819   0.71564
 Alpha virt. eigenvalues --    0.72335   0.72707   0.73867   0.74684   0.74933
 Alpha virt. eigenvalues --    0.75380   0.76393   0.76620   0.77594   0.77999
 Alpha virt. eigenvalues --    0.78491   0.80245   0.80542   0.81732   0.86157
 Alpha virt. eigenvalues --    0.87553   0.88475   0.90251   0.91476   0.92907
 Alpha virt. eigenvalues --    0.99161   1.02315   1.05608   1.06254   1.09660
 Alpha virt. eigenvalues --    1.10901   1.12880   1.13286   1.16614   1.18667
 Alpha virt. eigenvalues --    1.19755   1.23238   1.24496   1.25466   1.27526
 Alpha virt. eigenvalues --    1.29750   1.30862   1.33917   1.35198   1.38859
 Alpha virt. eigenvalues --    1.39779   1.44551   1.45641   1.51507   1.56360
 Alpha virt. eigenvalues --    1.58457   1.60877   1.61765   1.62677   1.66436
 Alpha virt. eigenvalues --    1.67310   1.68652   1.70203   1.71814   1.74253
 Alpha virt. eigenvalues --    1.78080   1.78789   1.79822   1.81192   1.83377
 Alpha virt. eigenvalues --    1.86319   1.86957   1.87474   1.88296   1.89197
 Alpha virt. eigenvalues --    1.90341   1.90891   1.93499   1.94494   1.96783
 Alpha virt. eigenvalues --    1.97851   1.98556   2.03281   2.04134   2.06725
 Alpha virt. eigenvalues --    2.09862   2.11210   2.12816   2.13717   2.16504
 Alpha virt. eigenvalues --    2.17194   2.19331   2.21779   2.25966   2.28244
 Alpha virt. eigenvalues --    2.29745   2.31685   2.35239   2.38738   2.42061
 Alpha virt. eigenvalues --    2.42871   2.46486   2.47016   2.48716   2.53507
 Alpha virt. eigenvalues --    2.55893   2.60935   2.64416   2.65576   2.68079
 Alpha virt. eigenvalues --    2.69814   2.71103   2.71303   2.74556   2.77332
 Alpha virt. eigenvalues --    2.80306   2.81330   2.81845   2.86175   2.87113
 Alpha virt. eigenvalues --    2.91492   2.94886   3.00998   3.02263   3.03240
 Alpha virt. eigenvalues --    3.04145   3.10097   3.18367   3.25012   3.27156
 Alpha virt. eigenvalues --    3.28720   3.29117   3.34584   3.42955   3.51186
 Alpha virt. eigenvalues --    3.52468   3.73426   3.76614   3.79185
          Condensed to atoms (all electrons):
               1          2          3          4          5          6
     1  C    4.946472   0.005906  -0.023531  -0.004981   0.559412  -0.035297
     2  C    0.005906   5.394183  -0.006430   0.219789   0.006408  -0.008721
     3  C   -0.023531  -0.006430   4.785232   0.006320  -0.052209   0.626611
     4  C   -0.004981   0.219789   0.006320   5.414476  -0.010900   0.007055
     5  C    0.559412   0.006408  -0.052209  -0.010900   4.942427   0.341326
     6  C   -0.035297  -0.008721   0.626611   0.007055   0.341326   4.791857
     7  H   -0.000275   0.000254   0.392574  -0.001127   0.009877  -0.015292
     8  H    0.011312  -0.002706   0.377651   0.006026  -0.030892  -0.001520
     9  H    0.389689   0.003306   0.009996  -0.001564  -0.013497  -0.025074
    10  H    0.000786   0.429529  -0.000142  -0.045991  -0.000159   0.000007
    11  H   -0.000134  -0.047231   0.000543   0.429469  -0.000019   0.000122
    12  O   -0.001358  -0.107941  -0.001946  -0.109499   0.002352   0.003685
    13  C    0.002749   0.223298   0.000056   0.032672   0.001767   0.000350
    14  C   -0.000167   0.033293   0.003506   0.211386   0.001063  -0.000681
    15  O   -0.000539  -0.077109   0.000036   0.004210  -0.004126   0.000056
    16  O    0.000016   0.004413  -0.000071  -0.077779   0.000066  -0.003075
    17  C    0.391401  -0.001190   0.000039   0.000468  -0.058811   0.008146
    18  H   -0.019204   0.000085   0.000023  -0.000012  -0.009798  -0.000063
    19  H   -0.017667  -0.003196   0.000037   0.000248  -0.014954   0.000299
    20  H   -0.018043  -0.000057   0.000026  -0.000001   0.009299  -0.000375
    21  H   -0.063996   0.000488   0.010767  -0.000189   0.422164  -0.039223
    22  H    0.011442  -0.000105  -0.051968   0.000370  -0.046293   0.420132
               7          8          9         10         11         12
     1  C   -0.000275   0.011312   0.389689   0.000786  -0.000134  -0.001358
     2  C    0.000254  -0.002706   0.003306   0.429529  -0.047231  -0.107941
     3  C    0.392574   0.377651   0.009996  -0.000142   0.000543  -0.001946
     4  C   -0.001127   0.006026  -0.001564  -0.045991   0.429469  -0.109499
     5  C    0.009877  -0.030892  -0.013497  -0.000159  -0.000019   0.002352
     6  C   -0.015292  -0.001520  -0.025074   0.000007   0.000122   0.003685
     7  H    0.599608  -0.041218  -0.000082  -0.000000   0.000129   0.000008
     8  H   -0.041218   0.627999   0.001978  -0.000038   0.000210   0.000024
     9  H   -0.000082   0.001978   0.639228  -0.000069  -0.000051   0.000006
    10  H   -0.000000  -0.000038  -0.000069   0.567089  -0.005317   0.002824
    11  H    0.000129   0.000210  -0.000051  -0.005317   0.564869   0.002952
    12  O    0.000008   0.000024   0.000006   0.002824   0.002952   8.021005
    13  C   -0.000028   0.000329  -0.001149  -0.033827   0.009193   0.306269
    14  C    0.000982  -0.002089   0.000184   0.009035  -0.033510   0.299546
    15  O    0.000000  -0.000001   0.000011   0.001413  -0.000045  -0.063313
    16  O    0.000443  -0.000003   0.000001  -0.000046   0.001822  -0.065828
    17  C   -0.000005   0.000051  -0.044312  -0.000170  -0.000001   0.000008
    18  H    0.000001   0.000006   0.003825  -0.000002  -0.000000   0.000000
    19  H   -0.000000  -0.000001   0.003949   0.000334   0.000000   0.000147
    20  H   -0.000000   0.000009  -0.010403   0.000236   0.000000  -0.000000
    21  H   -0.000190  -0.000065   0.007899  -0.000042   0.000002  -0.000594
    22  H   -0.013550   0.007685  -0.000072   0.000003  -0.000025  -0.000176
              13         14         15         16         17         18
     1  C    0.002749  -0.000167  -0.000539   0.000016   0.391401  -0.019204
     2  C    0.223298   0.033293  -0.077109   0.004413  -0.001190   0.000085
     3  C    0.000056   0.003506   0.000036  -0.000071   0.000039   0.000023
     4  C    0.032672   0.211386   0.004210  -0.077779   0.000468  -0.000012
     5  C    0.001767   0.001063  -0.004126   0.000066  -0.058811  -0.009798
     6  C    0.000350  -0.000681   0.000056  -0.003075   0.008146  -0.000063
     7  H   -0.000028   0.000982   0.000000   0.000443  -0.000005   0.000001
     8  H    0.000329  -0.002089  -0.000001  -0.000003   0.000051   0.000006
     9  H   -0.001149   0.000184   0.000011   0.000001  -0.044312   0.003825
    10  H   -0.033827   0.009035   0.001413  -0.000046  -0.000170  -0.000002
    11  H    0.009193  -0.033510  -0.000045   0.001822  -0.000001  -0.000000
    12  O    0.306269   0.299546  -0.063313  -0.065828   0.000008   0.000000
    13  C    4.514444  -0.082951   0.730097   0.000416  -0.000581   0.000016
    14  C   -0.082951   4.506844   0.000725   0.758858  -0.000042   0.000001
    15  O    0.730097   0.000725   7.573372  -0.000013  -0.005217   0.000026
    16  O    0.000416   0.758858  -0.000013   7.551409  -0.000000   0.000000
    17  C   -0.000581  -0.000042  -0.005217  -0.000000   4.570939   0.395685
    18  H    0.000016   0.000001   0.000026   0.000000   0.395685   0.598915
    19  H    0.000442   0.000009   0.017590   0.000000   0.390661  -0.015342
    20  H    0.000038   0.000000   0.000009  -0.000000   0.388466  -0.020867
    21  H    0.001755  -0.000038   0.000796   0.000004  -0.008922   0.001811
    22  H   -0.000031   0.000349  -0.000002   0.000298  -0.000202   0.000006
              19         20         21         22
     1  C   -0.017667  -0.018043  -0.063996   0.011442
     2  C   -0.003196  -0.000057   0.000488  -0.000105
     3  C    0.000037   0.000026   0.010767  -0.051968
     4  C    0.000248  -0.000001  -0.000189   0.000370
     5  C   -0.014954   0.009299   0.422164  -0.046293
     6  C    0.000299  -0.000375  -0.039223   0.420132
     7  H   -0.000000  -0.000000  -0.000190  -0.013550
     8  H   -0.000001   0.000009  -0.000065   0.007685
     9  H    0.003949  -0.010403   0.007899  -0.000072
    10  H    0.000334   0.000236  -0.000042   0.000003
    11  H    0.000000   0.000000   0.000002  -0.000025
    12  O    0.000147  -0.000000  -0.000594  -0.000176
    13  C    0.000442   0.000038   0.001755  -0.000031
    14  C    0.000009   0.000000  -0.000038   0.000349
    15  O    0.017590   0.000009   0.000796  -0.000002
    16  O    0.000000  -0.000000   0.000004   0.000298
    17  C    0.390661   0.388466  -0.008922  -0.000202
    18  H   -0.015342  -0.020867   0.001811   0.000006
    19  H    0.590756  -0.020301   0.002163  -0.000001
    20  H   -0.020301   0.629220   0.000080   0.000006
    21  H    0.002163   0.000080   0.639300  -0.010653
    22  H   -0.000001   0.000006  -0.010653   0.634987
 Mulliken charges:
               1
     1  C   -0.133996
     2  C   -0.066266
     3  C   -0.077121
     4  C   -0.080447
     5  C   -0.054505
     6  C   -0.070325
     7  H    0.067893
     8  H    0.045253
     9  H    0.036201
    10  H    0.074546
    11  H    0.077022
    12  O   -0.288172
    13  C    0.294675
    14  C    0.293697
    15  O   -0.177975
    16  O   -0.170931
    17  C   -0.026411
    18  H    0.064890
    19  H    0.064827
    20  H    0.042660
    21  H    0.036681
    22  H    0.047802
 Sum of Mulliken charges =  -0.00000
 Mulliken charges with hydrogens summed into heavy atoms:
               1
     1  C   -0.097795
     2  C    0.008280
     3  C    0.036026
     4  C   -0.003425
     5  C   -0.017823
     6  C   -0.022523
    12  O   -0.288172
    13  C    0.294675
    14  C    0.293697
    15  O   -0.177975
    16  O   -0.170931
    17  C    0.145967
 APT charges:
               1
     1  C   -0.326904
     2  C   -0.477318
     3  C   -0.436691
     4  C   -0.510475
     5  C   -0.483683
     6  C   -0.712727
     7  H    0.573191
     8  H    0.198685
     9  H    0.267273
    10  H    0.460306
    11  H    0.552244
    12  O   -0.025204
    13  C   -0.487922
    14  C   -0.701762
    15  O    0.409232
    16  O    0.716402
    17  C   -0.884790
    18  H    0.599790
    19  H    0.062696
    20  H    0.502510
    21  H    0.294230
    22  H    0.410920
 Sum of APT charges =  -0.00000
 APT charges with hydrogens summed into heavy atoms:
               1
     1  C   -0.059632
     2  C   -0.017012
     3  C    0.335184
     4  C    0.041769
     5  C   -0.189454
     6  C   -0.301807
    12  O   -0.025204
    13  C   -0.487922
    14  C   -0.701762
    15  O    0.409232
    16  O    0.716402
    17  C    0.280205
 Electronic spatial extent (au):  <R**2>=           1977.2534
 Charge=             -0.0000 electrons
 Dipole moment (field-independent basis, Debye):
    X=             -1.8666    Y=              1.0026    Z=              4.0804  Tot=              4.5977
 Quadrupole moment (field-independent basis, Debye-Ang):
   XX=            -75.5184   YY=            -75.0120   ZZ=            -64.6462
   XY=             -0.9625   XZ=              3.5133   YZ=             -3.3648
 Traceless Quadrupole moment (field-independent basis, Debye-Ang):
   XX=             -3.7929   YY=             -3.2865   ZZ=              7.0793
   XY=             -0.9625   XZ=              3.5133   YZ=             -3.3648
 Octapole moment (field-independent basis, Debye-Ang**2):
  XXX=            -27.4164  YYY=              0.4199  ZZZ=              3.7423  XYY=             18.1920
  XXY=            -13.4704  XXZ=             10.6372  XZZ=              1.7217  YZZ=              1.6797
  YYZ=              7.0696  XYZ=              1.7178
 Hexadecapole moment (field-independent basis, Debye-Ang**3):
 XXXX=          -1418.7655 YYYY=           -933.5207 ZZZZ=           -304.8129 XXXY=             -3.9890
 XXXZ=             19.1272 YYYX=             22.5852 YYYZ=             -4.0171 ZZZX=             -0.2601
 ZZZY=              1.4870 XXYY=           -382.7571 XXZZ=           -269.4424 YYZZ=           -199.4696
 XXYZ=              7.7670 YYXZ=            -10.3347 ZZXY=              9.9019
 N-N= 6.882968265961D+02 E-N=-2.713699554759D+03  KE= 5.684967436320D+02
  Exact polarizability:       0.000       0.000       0.000       0.000       0.000       0.000
 Approx polarizability:     132.101      41.227     110.935      -1.474       6.162     107.661
   1 Symmetry operations used in ECPInt.
 ECPInt:  NShTT=    5253 NPrTT=   19101 LenC2=    5151 LenP2D=   14297.
 LDataN:  DoStor=T MaxTD1= 6 Len=  172
 D2PCM: PCM CHGder 2nd derivatives, FixD1E=F FixD2E=F DoIter=F DoCFld=F I1PDM=0
 Calling FoFJK, ICntrl=    100127 FMM=F ISym2X=0 I1Cent= 0 IOpClX= 0 NMat=1 NMatS=1 NMatT=0.
 ***** Axes restored to original set *****
 -------------------------------------------------------------------
 Center     Atomic                   Forces (Hartrees/Bohr)
 Number     Number              X              Y              Z
 -------------------------------------------------------------------
      1        6           0.000009930    0.000009085    0.000002438
      2        6           0.000007079    0.000016029    0.000005694
      3        6          -0.000006083    0.000008145   -0.000001662
      4        6           0.000022687    0.000000405   -0.000008379
      5        6          -0.000015842    0.000001431    0.000010692
      6        6           0.000005492    0.000007692    0.000008035
      7        1          -0.000005346    0.000003841    0.000005113
      8        1          -0.000012906   -0.000007674   -0.000011594
      9        1           0.000004732    0.000005927   -0.000002315
     10        1          -0.000003544   -0.000001401   -0.000002077
     11        1          -0.000008184   -0.000019366    0.000019002
     12        8           0.000000576    0.000000666    0.000001955
     13        6          -0.000014264   -0.000037432   -0.000021107
     14        6          -0.000009627   -0.000005105   -0.000006873
     15        8           0.000004915    0.000025439    0.000008846
     16        8          -0.000005337    0.000003916    0.000003588
     17        6          -0.000000638    0.000001619    0.000005008
     18        1           0.000001449   -0.000004289   -0.000004314
     19        1           0.000017782   -0.000008754   -0.000012731
     20        1           0.000006811   -0.000009201   -0.000000694
     21        1           0.000000975    0.000004041   -0.000001276
     22        1          -0.000000657    0.000004987    0.000002649
 -------------------------------------------------------------------
 Cartesian Forces:  Max     0.000037432 RMS     0.000010214
 FormGI is forming the generalized inverse of G from B-inverse, IUseBI=4.

 GradGradGradGradGradGradGradGradGradGradGradGradGradGradGradGradGradGrad
 Berny optimization.
 Internal  Forces:  Max     0.000138620 RMS     0.000026071
 Search for a saddle point.
 Step number   1 out of a maximum of   50
 All quantities printed in internal units (Hartrees-Bohrs-Radians)
 Swapping is turned off.
 Second derivative matrix not updated -- analytic derivatives used.
 ITU=  0
     Eigenvalues ---   -0.00168   0.00110   0.00331   0.00899   0.01269
     Eigenvalues ---    0.01406   0.01597   0.01852   0.01997   0.02011
     Eigenvalues ---    0.02292   0.02685   0.02997   0.03222   0.04103
     Eigenvalues ---    0.05530   0.05726   0.05906   0.06145   0.06674
     Eigenvalues ---    0.09252   0.10162   0.10820   0.11277   0.12022
     Eigenvalues ---    0.12292   0.12804   0.14072   0.14204   0.14393
     Eigenvalues ---    0.14891   0.16405   0.18134   0.20576   0.22219
     Eigenvalues ---    0.22592   0.25044   0.26346   0.29134   0.32465
     Eigenvalues ---    0.33427   0.34102   0.34506   0.34833   0.35008
     Eigenvalues ---    0.35308   0.35609   0.35903   0.35986   0.36612
     Eigenvalues ---    0.36933   0.37862   0.38146   0.38865   0.60674
     Eigenvalues ---    0.61988   0.63692   0.96080   0.98501   1.00860
 Eigenvectors required to have negative eigenvalues:
                          D8        D9        D5        D10       D6
   1                    0.42902   0.41534   0.40650   0.40409   0.39282
                          D7        D33       D31       D34       D32
   1                    0.38156  -0.05948  -0.05590  -0.05346  -0.04987
 RFO step:  Lambda0=5.403545422D-08 Lambda=-4.03074326D-07.
 Linear search not attempted -- option 19 set.
 Iteration  1 RMS(Cart)=  0.00218743 RMS(Int)=  0.00000129
 Iteration  2 RMS(Cart)=  0.00000279 RMS(Int)=  0.00000001
 Iteration  3 RMS(Cart)=  0.00000000 RMS(Int)=  0.00000001
 Variable       Old X    -DE/DX   Delta X   Delta X   Delta X     New X
                                 (Linear)    (Quad)   (Total)
    R1        2.54018  -0.00003   0.00000  -0.00001  -0.00001   2.54017
    R2        2.07204   0.00000   0.00000  -0.00001  -0.00001   2.07203
    R3        2.83862  -0.00000   0.00000   0.00000   0.00000   2.83862
    R4        2.52176  -0.00001   0.00000  -0.00001  -0.00001   2.52175
    R5        2.05630   0.00000   0.00000   0.00001   0.00001   2.05631
    R6        2.81491  -0.00000   0.00000   0.00001   0.00001   2.81492
    R7        2.53509  -0.00002   0.00000  -0.00002  -0.00002   2.53507
    R8        2.06367  -0.00000   0.00000  -0.00000  -0.00000   2.06367
    R9        2.06693   0.00001   0.00000  -0.00001  -0.00001   2.06691
   R10        2.05609   0.00000   0.00000  -0.00001  -0.00001   2.05609
   R11        2.81602  -0.00000   0.00000  -0.00000  -0.00000   2.81602
   R12        2.77157  -0.00002   0.00000   0.00002   0.00002   2.77160
   R13        2.07122  -0.00000   0.00000  -0.00001  -0.00001   2.07121
   R14        2.06909   0.00000   0.00000  -0.00000  -0.00000   2.06908
   R15        5.54760   0.00001   0.00000   0.00884   0.00884   5.55644
   R16        2.59916   0.00000   0.00000   0.00000   0.00000   2.59916
   R17        2.60564   0.00001   0.00000  -0.00001  -0.00001   2.60564
   R18        2.25070  -0.00003   0.00000  -0.00003  -0.00003   2.25067
   R19        2.24684  -0.00000   0.00000  -0.00000  -0.00000   2.24684
   R20        2.08158   0.00000   0.00000  -0.00001  -0.00001   2.08157
   R21        2.08230   0.00001   0.00000   0.00004   0.00004   2.08233
   R22        2.07509  -0.00000   0.00000  -0.00001  -0.00001   2.07508
    A1        2.07138   0.00001   0.00000   0.00002   0.00002   2.07140
    A2        2.16740  -0.00004   0.00000  -0.00010  -0.00010   2.16730
    A3        2.04437   0.00003   0.00000   0.00008   0.00008   2.04445
    A4        2.26489  -0.00001   0.00000  -0.00004  -0.00004   2.26485
    A5        1.88221   0.00001   0.00000   0.00003   0.00003   1.88224
    A6        2.13593  -0.00001   0.00000   0.00001   0.00001   2.13594
    A7        2.10827  -0.00001   0.00000   0.00004   0.00004   2.10830
    A8        2.13543   0.00003   0.00000  -0.00008  -0.00008   2.13535
    A9        2.03944  -0.00002   0.00000   0.00005   0.00005   2.03948
   A10        2.26519  -0.00007   0.00000  -0.00020  -0.00020   2.26500
   A11        1.88300  -0.00000   0.00000  -0.00002  -0.00002   1.88298
   A12        2.13485   0.00007   0.00000   0.00022   0.00022   2.13507
   A13        2.20612   0.00001   0.00000   0.00007   0.00007   2.20619
   A14        2.06083  -0.00000   0.00000  -0.00004  -0.00004   2.06079
   A15        2.01593  -0.00000   0.00000  -0.00004  -0.00004   2.01589
   A16        2.21527  -0.00000   0.00000   0.00002   0.00002   2.21529
   A17        2.05629   0.00000   0.00000   0.00001   0.00001   2.05630
   A18        2.01100   0.00000   0.00000  -0.00003  -0.00003   2.01098
   A19        1.71707   0.00005   0.00000  -0.00306  -0.00306   1.71401
   A20        1.46997  -0.00005   0.00000   0.00012   0.00012   1.47010
   A21        1.91031   0.00000   0.00000   0.00001   0.00001   1.91033
   A22        1.87567  -0.00001   0.00000  -0.00003  -0.00003   1.87563
   A23        2.27199  -0.00001   0.00000  -0.00001  -0.00001   2.27198
   A24        2.13530   0.00002   0.00000   0.00004   0.00004   2.13533
   A25        1.87294  -0.00000   0.00000   0.00001   0.00001   1.87295
   A26        2.27490  -0.00000   0.00000  -0.00001  -0.00001   2.27489
   A27        2.13508   0.00000   0.00000  -0.00000  -0.00000   2.13508
   A28        1.94155   0.00000   0.00000   0.00008   0.00008   1.94163
   A29        1.93274  -0.00002   0.00000  -0.00016  -0.00016   1.93258
   A30        1.94879   0.00001   0.00000   0.00006   0.00006   1.94886
   A31        1.87178  -0.00000   0.00000  -0.00004  -0.00004   1.87174
   A32        1.87883   0.00000   0.00000   0.00013   0.00013   1.87895
   A33        1.88715   0.00000   0.00000  -0.00007  -0.00007   1.88708
    D1        0.05048   0.00002   0.00000  -0.00023  -0.00023   0.05025
    D2       -3.11903  -0.00001   0.00000  -0.00056  -0.00056  -3.11958
    D3       -3.10075   0.00003   0.00000   0.00017   0.00017  -3.10058
    D4        0.01293   0.00001   0.00000  -0.00015  -0.00015   0.01277
    D5       -1.07945  -0.00000   0.00000   0.00188   0.00188  -1.07757
    D6        1.00033  -0.00001   0.00000   0.00177   0.00177   1.00211
    D7        3.10431  -0.00001   0.00000   0.00162   0.00162   3.10593
    D8        2.05265   0.00001   0.00000   0.00227   0.00227   2.05492
    D9       -2.15076  -0.00000   0.00000   0.00217   0.00217  -2.14859
   D10       -0.04678  -0.00000   0.00000   0.00202   0.00202  -0.04477
   D11       -0.00092  -0.00000   0.00000   0.00020   0.00020  -0.00072
   D12        3.12311   0.00001   0.00000   0.00013   0.00013   3.12325
   D13       -3.12356  -0.00001   0.00000   0.00044   0.00044  -3.12312
   D14        0.00047   0.00000   0.00000   0.00038   0.00038   0.00084
   D15       -0.02076   0.00000   0.00000  -0.00030  -0.00030  -0.02106
   D16        3.09749   0.00000   0.00000  -0.00048  -0.00048   3.09701
   D17        3.13808  -0.00000   0.00000  -0.00008  -0.00008   3.13800
   D18       -0.02686  -0.00000   0.00000  -0.00026  -0.00026  -0.02712
   D19        3.12161  -0.00005   0.00000  -0.00012  -0.00012   3.12148
   D20        0.01985  -0.00002   0.00000  -0.00031  -0.00031   0.01954
   D21       -0.03143  -0.00005   0.00000  -0.00030  -0.00030  -0.03173
   D22       -3.13318  -0.00003   0.00000  -0.00049  -0.00049  -3.13367
   D23        1.69240  -0.00007   0.00000  -0.00029  -0.00029   1.69211
   D24       -1.46022  -0.00008   0.00000  -0.00046  -0.00046  -1.46068
   D25       -1.51554   0.00001   0.00000   0.00018   0.00018  -1.51536
   D26        1.64584   0.00000   0.00000   0.00025   0.00025   1.64609
   D27        0.01991  -0.00000   0.00000  -0.00034  -0.00034   0.01957
   D28       -3.09671  -0.00000   0.00000  -0.00039  -0.00039  -3.09710
   D29       -3.13766   0.00000   0.00000  -0.00040  -0.00040  -3.13806
   D30        0.02892   0.00000   0.00000  -0.00045  -0.00045   0.02846
   D31        0.13708  -0.00002   0.00000  -0.00407  -0.00407   0.13300
   D32       -3.04347  -0.00004   0.00000  -0.00389  -0.00389  -3.04735
   D33       -2.97723   0.00001   0.00000  -0.00376  -0.00376  -2.98098
   D34        0.12542  -0.00001   0.00000  -0.00357  -0.00357   0.12185
   D35       -1.05673  -0.00014   0.00000  -0.00111  -0.00111  -1.05784
   D36        0.03367  -0.00000   0.00000   0.00008   0.00008   0.03375
   D37       -3.08681  -0.00000   0.00000   0.00024   0.00024  -3.08657
   D38       -0.03336   0.00000   0.00000   0.00014   0.00014  -0.03321
   D39        3.08570   0.00000   0.00000   0.00019   0.00019   3.08589
         Item               Value     Threshold  Converged?
 Maximum Force            0.000139     0.000450     YES
 RMS     Force            0.000026     0.000300     YES
 Maximum Displacement     0.005865     0.001800     NO 
 RMS     Displacement     0.002187     0.001200     NO 
 Predicted change in Energy=-1.745186D-07
 GradGradGradGradGradGradGradGradGradGradGradGradGradGradGradGradGradGrad

                          Input orientation:                          
 ---------------------------------------------------------------------
 Center     Atomic      Atomic             Coordinates (Angstroms)
 Number     Number       Type             X           Y           Z
 ---------------------------------------------------------------------
      1          6           0       -2.257834    0.437878   -0.073445
      2          6           0        0.069739   -0.382738    1.915791
      3          6           0       -0.232634    2.750111   -0.084755
      4          6           0        0.960836    0.610218    1.943200
      5          6           0       -1.293443    0.656968   -0.983842
      6          6           0       -0.374107    1.799160   -1.020333
      7          1           0        0.500619    3.550081   -0.207039
      8          1           0       -0.842470    2.773376    0.822921
      9          1           0       -2.426861    1.190641    0.705676
     10          1           0       -0.767751   -0.584935    2.580476
     11          1           0        1.052692    1.444157    2.635966
     12          8           0        1.509149   -0.730937    0.141714
     13          6           0        0.412850   -1.272510    0.771474
     14          6           0        1.913777    0.401222    0.816770
     15          8           0       -0.091501   -2.289356    0.410729
     16          8           0        2.878082    1.020185    0.499495
     17          6           0       -3.140229   -0.777620   -0.054772
     18          1           0       -3.743884   -0.846824   -0.973549
     19          1           0       -2.536279   -1.697063    0.009279
     20          1           0       -3.831962   -0.763258    0.797922
     21          1           0       -1.147058   -0.091944   -1.770611
     22          1           0        0.280967    1.842987   -1.896567
 ---------------------------------------------------------------------
                    Distance matrix (angstroms):
                    1          2          3          4          5
     1  C    0.000000
     2  C    3.169869   0.000000
     3  C    3.073758   3.729391   0.000000
     4  C    3.802157   1.334453   3.180584   0.000000
     5  C    1.344200   3.368550   2.512951   3.694798   0.000000
     6  C    2.509604   3.684901   1.341502   3.460951   1.466667
     7  H    4.160856   4.489892   1.092046   3.671256   3.491731
     8  H    2.874244   3.462303   1.093764   3.030873   2.819034
     9  H    1.096473   3.189501   2.805595   3.653060   2.103311
    10  H    3.210886   1.088155   4.302597   2.196025   3.810911
    11  H    4.394666   2.195995   3.280229   1.088034   4.384863
    12  O    3.950010   2.310950   3.899076   2.311859   3.323805
    13  C    3.282052   1.489590   4.163083   2.284271   3.116962
    14  C    4.265697   2.285370   3.307130   1.490174   3.686987
    15  O    3.516423   2.434421   5.065734   3.444330   3.474237
    16  O    5.200479   3.443962   3.607013   2.434787   4.442278
    17  C    1.502133   3.787208   4.571641   4.768303   2.516313
    18  H    2.160785   4.807014   5.104585   5.724053   2.875093
    19  H    2.154611   3.486197   5.009290   4.614478   2.841196
    20  H    2.163305   4.076481   5.106667   5.115565   3.411130
    21  H    2.096403   3.892905   3.428638   4.327659   1.096040
    22  H    3.426896   4.419563   2.090292   4.089712   2.172205
                    6          7          8          9         10
     6  C    0.000000
     7  H    2.119509   0.000000
     8  H    2.136831   1.862252   0.000000
     9  H    2.750127   3.869128   2.242563   0.000000
    10  H    4.336437   5.145616   3.791151   3.069233   0.000000
    11  H    3.940850   3.580835   2.940339   3.987177   2.726593
    12  O    3.361308   4.412015   4.274852   4.416185   3.339633
    13  C    3.642118   4.921643   4.236468   3.759708   2.266951
    14  C    3.250168   3.600071   3.636489   4.413238   3.357642
    15  O    4.340941   5.901803   5.134697   4.201343   2.840805
    16  O    3.673338   3.542865   4.125626   5.311684   4.494329
    17  C    3.901735   5.657558   4.319677   2.227381   3.551100
    18  H    4.284720   6.159231   4.975073   2.950527   4.642957
    19  H    4.237767   6.066471   4.849312   2.972504   3.312940
    20  H    4.672130   6.195652   4.630925   2.408431   3.549462
    21  H    2.176383   4.292312   3.876756   3.068374   4.395323
    22  H    1.094911   2.411830   3.085993   3.811765   5.199858
                   11         12         13         14         15
    11  H    0.000000
    12  O    3.340760   0.000000
    13  C    3.356487   1.375417   0.000000
    14  C    2.266860   1.378843   2.248603   0.000000
    15  O    4.494439   2.250138   1.191002   3.380122   0.000000
    16  O    2.841885   2.251314   3.377543   1.188976   4.447401
    17  C    5.454993   4.653762   3.681299   5.262341   3.434644
    18  H    6.425289   5.371369   4.528217   6.063992   4.163775
    19  H    5.444949   4.161301   3.075475   4.985764   2.547334
    20  H    5.666651   5.381368   4.275332   5.862584   4.058317
    21  H    5.159111   3.334776   3.207684   4.038126   3.271247
    22  H    4.615027   3.505439   4.103919   3.479504   4.747484
                   16         17         18         19         20
    16  O    0.000000
    17  C    6.305504   0.000000
    18  H    7.036052   1.101517   0.000000
    19  H    6.077751   1.101923   1.774026   0.000000
    20  H    6.949419   1.098084   1.775627   1.781221   0.000000
    21  H    4.753100   2.717901   2.819337   2.770262   3.775809
    22  H    3.628101   4.686616   4.928131   4.909285   5.564977
                   21         22
    21  H    0.000000
    22  H    2.408127   0.000000
 Stoichiometry    C9H10O3
 Framework group  C1[X(C9H10O3)]
 Deg. of freedom    60
 Full point group                 C1      NOp   1
 Largest Abelian subgroup         C1      NOp   1
 Largest concise Abelian subgroup C1      NOp   1
                         Standard orientation:                         
 ---------------------------------------------------------------------
 Center     Atomic      Atomic             Coordinates (Angstroms)
 Number     Number       Type             X           Y           Z
 ---------------------------------------------------------------------
      1          6           0       -2.175083    0.626786    0.274469
      2          6           0        0.331477   -1.042756    1.263336
      3          6           0        0.199566    2.576043    0.371568
      4          6           0        1.378763   -0.218360    1.329128
      5          6           0       -1.408846    1.012025   -0.760589
      6          6           0       -0.320172    1.993974   -0.719622
      7          1           0        1.026514    3.284292    0.287271
      8          1           0       -0.181893    2.379368    1.377613
      9          1           0       -2.024289    1.107374    1.248404
     10          1           0       -0.363657   -1.348567    2.042662
     11          1           0        1.775866    0.336297    2.176761
     12          8           0        1.256575   -0.971566   -0.853174
     13          6           0        0.241724   -1.556248   -0.132067
     14          6           0        2.005776   -0.166228   -0.021708
     15          8           0       -0.512540   -2.341436   -0.614821
     16          8           0        2.977082    0.407167   -0.397801
     17          6           0       -3.246173   -0.422730    0.186797
     18          1           0       -4.037571   -0.127342   -0.520150
     19          1           0       -2.828306   -1.377514   -0.170986
     20          1           0       -3.719713   -0.600988    1.161360
     21          1           0       -1.582254    0.540074   -1.734496
     22          1           0        0.124169    2.238665   -1.689940
 ---------------------------------------------------------------------
 Rotational constants (GHZ):           1.2069239           0.8437089           0.6134158
 Standard basis: def2SVP (5D, 7F)
 There are   230 symmetry adapted cartesian basis functions of A   symmetry.
 There are   218 symmetry adapted basis functions of A   symmetry.
   218 basis functions,   370 primitive gaussians,   230 cartesian basis functions
    44 alpha electrons       44 beta electrons
       nuclear repulsion energy       688.3304074549 Hartrees.
 NAtoms=   22 NActive=   22 NUniq=   22 SFac= 1.00D+00 NAtFMM=   60 NAOKFM=F Big=F
 Integral buffers will be    131072 words long.
 Raffenetti 2 integral format.
 Two-electron integral symmetry is turned on.
 Nuclear repulsion after empirical dispersion term =      688.3149012913 Hartrees.
 ------------------------------------------------------------------------------
 Polarizable Continuum Model (PCM)
 =================================
 Model                : PCM.
 Atomic radii         : UFF (Universal Force Field).
 Polarization charges : Total charges.
 Charge compensation  : None.
 Solution method      : Matrix inversion.
 Cavity type          : Scaled VdW (van der Waals Surface) (Alpha=1.100).
 Cavity algorithm     : GePol (No added spheres)
                        Default sphere list used, NSphG=   22.
                        Lebedev-Laikov grids with approx.  5.0 points / Ang**2.
                        Smoothing algorithm: York/Karplus (Gamma=1.0000).
                        Polarization charges: spherical gaussians, with
                                              point-specific exponents (IZeta= 3).
                        Self-potential: point-specific (ISelfS= 7).
                        Self-field    : sphere-specific E.n sum rule (ISelfD= 2).
 1st derivatives      : Analytical E(r).r(x)/FMM algorithm (CHGder, D1EAlg=3).
                        Cavity 1st derivative terms included.
 Solvent              : Toluene, Eps=   2.374100 Eps(inf)=   2.238315
 ------------------------------------------------------------------------------
 One-electron integrals computed using PRISM.
   1 Symmetry operations used in ECPInt.
 ECPInt:  NShTT=    5253 NPrTT=   19101 LenC2=    5151 LenP2D=   14297.
 LDataN:  DoStor=T MaxTD1= 4 Len=   56
 NBasis=   218 RedAO= T EigKep=  5.02D-04  NBF=   218
 NBsUse=   218 1.00D-06 EigRej= -1.00D+00 NBFU=   218
 Initial guess from the checkpoint file:  "da-2_1_opt_dft_re.chk"
 B after Tr=     0.000000    0.000000   -0.000000
         Rot=    1.000000   -0.000082   -0.000084    0.000256 Ang=  -0.03 deg.
 Requested convergence on RMS density matrix=1.00D-08 within 128 cycles.
 Requested convergence on MAX density matrix=1.00D-06.
 Requested convergence on             energy=1.00D-06.
 No special actions if energy rises.
 Inv3:  Mode=1 IEnd=     9817443.
 Iteration    1 A*A^-1 deviation from unit magnitude is 3.44D-15 for   1533.
 Iteration    1 A*A^-1 deviation from orthogonality  is 2.56D-15 for   1494    414.
 Iteration    1 A^-1*A deviation from unit magnitude is 3.66D-15 for   1533.
 Iteration    1 A^-1*A deviation from orthogonality  is 2.04D-15 for   1444   1270.
 Error on total polarization charges =  0.00603
 SCF Done:  E(RwB97XD) =  -573.998631339     A.U. after    9 cycles
            NFock=  9  Conv=0.46D-08     -V/T= 2.0097
   1 Symmetry operations used in ECPInt.
 ECPInt:  NShTT=    5253 NPrTT=   19101 LenC2=    5151 LenP2D=   14297.
 LDataN:  DoStor=T MaxTD1= 5 Len=  102
 D1PCM: PCM CHGder 1st derivatives, ID1Alg=3 FixD1E=F DoIter=F DoCFld=F I1PDM=0.
 Calling FoFJK, ICntrl=      2127 FMM=F ISym2X=0 I1Cent= 0 IOpClX= 0 NMat=1 NMatS=1 NMatT=0.
 ***** Axes restored to original set *****
 -------------------------------------------------------------------
 Center     Atomic                   Forces (Hartrees/Bohr)
 Number     Number              X              Y              Z
 -------------------------------------------------------------------
      1        6           0.000000259   -0.000000788   -0.000000134
      2        6           0.000000514   -0.000000974   -0.000000707
      3        6          -0.000002446    0.000000695    0.000004998
      4        6           0.000000960   -0.000001516   -0.000000684
      5        6          -0.000000005    0.000001697    0.000001349
      6        6          -0.000001358    0.000002610    0.000002652
      7        1          -0.000003610    0.000002275    0.000006064
      8        1          -0.000003046   -0.000000644    0.000003652
      9        1          -0.000000905   -0.000003201    0.000001699
     10        1           0.000001335   -0.000004596   -0.000001872
     11        1          -0.000001297   -0.000002386    0.000002019
     12        8           0.000001403    0.000003193   -0.000002434
     13        6           0.000001564   -0.000000707   -0.000002972
     14        6          -0.000001011    0.000001222    0.000000326
     15        8           0.000002985    0.000000120   -0.000005357
     16        8          -0.000000641    0.000003897    0.000000894
     17        6           0.000001114   -0.000002356   -0.000002515
     18        1           0.000001379   -0.000001099   -0.000002416
     19        1           0.000002413   -0.000001512   -0.000004054
     20        1           0.000001333   -0.000004512   -0.000002224
     21        1           0.000000719    0.000003380   -0.000000871
     22        1          -0.000001659    0.000005203    0.000002585
 -------------------------------------------------------------------
 Cartesian Forces:  Max     0.000006064 RMS     0.000002453

 GradGradGradGradGradGradGradGradGradGradGradGradGradGradGradGradGradGrad
 Berny optimization.
 FormGI is forming the generalized inverse of G from B-inverse, IUseBI=4.
 Internal  Forces:  Max     0.000003782 RMS     0.000000831
 Search for a saddle point.
 Step number   2 out of a maximum of   50
 All quantities printed in internal units (Hartrees-Bohrs-Radians)
 Swapping is turned off.
 Update second derivatives using D2CorX and points    1    2
 ITU=  0  0
     Eigenvalues ---   -0.00166   0.00107   0.00332   0.00896   0.01269
     Eigenvalues ---    0.01406   0.01597   0.01852   0.01997   0.02011
     Eigenvalues ---    0.02292   0.02685   0.02997   0.03222   0.04103
     Eigenvalues ---    0.05530   0.05726   0.05906   0.06145   0.06673
     Eigenvalues ---    0.09251   0.10161   0.10820   0.11277   0.12022
     Eigenvalues ---    0.12292   0.12804   0.14073   0.14204   0.14393
     Eigenvalues ---    0.14891   0.16405   0.18134   0.20577   0.22219
     Eigenvalues ---    0.22592   0.25044   0.26346   0.29132   0.32465
     Eigenvalues ---    0.33427   0.34102   0.34506   0.34833   0.35008
     Eigenvalues ---    0.35308   0.35609   0.35903   0.35986   0.36612
     Eigenvalues ---    0.36933   0.37862   0.38146   0.38865   0.60674
     Eigenvalues ---    0.61988   0.63692   0.96079   0.98501   1.00860
 Eigenvectors required to have negative eigenvalues:
                          D8        D9        D5        D10       D6
   1                    0.42882   0.41521   0.40656   0.40394   0.39295
                          D7        D33       D31       D34       D32
   1                    0.38168  -0.05949  -0.05547  -0.05340  -0.04939
 RFO step:  Lambda0=5.337492601D-13 Lambda= 0.00000000D+00.
 Linear search not attempted -- option 19 set.
 Iteration  1 RMS(Cart)=  0.00017306 RMS(Int)=  0.00000001
 Iteration  2 RMS(Cart)=  0.00000002 RMS(Int)=  0.00000000
 Variable       Old X    -DE/DX   Delta X   Delta X   Delta X     New X
                                 (Linear)    (Quad)   (Total)
    R1        2.54017  -0.00000   0.00000   0.00000   0.00000   2.54017
    R2        2.07203  -0.00000   0.00000  -0.00000  -0.00000   2.07203
    R3        2.83862   0.00000   0.00000  -0.00000  -0.00000   2.83862
    R4        2.52175  -0.00000   0.00000   0.00000   0.00000   2.52175
    R5        2.05631  -0.00000   0.00000  -0.00000  -0.00000   2.05631
    R6        2.81492   0.00000   0.00000   0.00000   0.00000   2.81492
    R7        2.53507  -0.00000   0.00000   0.00000   0.00000   2.53507
    R8        2.06367  -0.00000   0.00000   0.00000   0.00000   2.06367
    R9        2.06691  -0.00000   0.00000  -0.00000  -0.00000   2.06691
   R10        2.05609   0.00000   0.00000   0.00000   0.00000   2.05609
   R11        2.81602  -0.00000   0.00000  -0.00000  -0.00000   2.81602
   R12        2.77160  -0.00000   0.00000  -0.00000  -0.00000   2.77160
   R13        2.07121  -0.00000   0.00000  -0.00000  -0.00000   2.07121
   R14        2.06908   0.00000   0.00000  -0.00000  -0.00000   2.06908
   R15        5.55644  -0.00000   0.00000   0.00037   0.00037   5.55680
   R16        2.59916   0.00000   0.00000   0.00000   0.00000   2.59916
   R17        2.60564   0.00000   0.00000  -0.00000  -0.00000   2.60563
   R18        2.25067   0.00000   0.00000  -0.00000  -0.00000   2.25067
   R19        2.24684   0.00000   0.00000   0.00000   0.00000   2.24684
   R20        2.08157   0.00000   0.00000   0.00000   0.00000   2.08157
   R21        2.08233  -0.00000   0.00000  -0.00000  -0.00000   2.08233
   R22        2.07508  -0.00000   0.00000  -0.00000  -0.00000   2.07508
    A1        2.07140   0.00000   0.00000   0.00001   0.00001   2.07141
    A2        2.16730  -0.00000   0.00000  -0.00000  -0.00000   2.16730
    A3        2.04445   0.00000   0.00000  -0.00001  -0.00001   2.04444
    A4        2.26485  -0.00000   0.00000   0.00000   0.00000   2.26485
    A5        1.88224   0.00000   0.00000   0.00000   0.00000   1.88224
    A6        2.13594  -0.00000   0.00000  -0.00000  -0.00000   2.13594
    A7        2.10830  -0.00000   0.00000  -0.00000  -0.00000   2.10830
    A8        2.13535   0.00000   0.00000   0.00001   0.00001   2.13535
    A9        2.03948  -0.00000   0.00000  -0.00000  -0.00000   2.03948
   A10        2.26500  -0.00000   0.00000  -0.00000  -0.00000   2.26500
   A11        1.88298   0.00000   0.00000   0.00000   0.00000   1.88298
   A12        2.13507   0.00000   0.00000   0.00000   0.00000   2.13507
   A13        2.20619   0.00000   0.00000   0.00001   0.00001   2.20620
   A14        2.06079  -0.00000   0.00000  -0.00000  -0.00000   2.06079
   A15        2.01589  -0.00000   0.00000  -0.00001  -0.00001   2.01589
   A16        2.21529   0.00000   0.00000   0.00001   0.00001   2.21530
   A17        2.05630  -0.00000   0.00000  -0.00000  -0.00000   2.05630
   A18        2.01098  -0.00000   0.00000  -0.00000  -0.00000   2.01097
   A19        1.71401  -0.00000   0.00000  -0.00030  -0.00030   1.71370
   A20        1.47010  -0.00000   0.00000   0.00006   0.00006   1.47016
   A21        1.91033   0.00000   0.00000   0.00000   0.00000   1.91033
   A22        1.87563  -0.00000   0.00000  -0.00000  -0.00000   1.87563
   A23        2.27198   0.00000   0.00000   0.00000   0.00000   2.27199
   A24        2.13533   0.00000   0.00000  -0.00000  -0.00000   2.13533
   A25        1.87295   0.00000   0.00000   0.00000   0.00000   1.87295
   A26        2.27489  -0.00000   0.00000  -0.00000  -0.00000   2.27489
   A27        2.13508  -0.00000   0.00000  -0.00000  -0.00000   2.13508
   A28        1.94163  -0.00000   0.00000  -0.00000  -0.00000   1.94163
   A29        1.93258  -0.00000   0.00000  -0.00000  -0.00000   1.93258
   A30        1.94886   0.00000   0.00000  -0.00000  -0.00000   1.94885
   A31        1.87174   0.00000   0.00000   0.00001   0.00001   1.87175
   A32        1.87895   0.00000   0.00000   0.00000   0.00000   1.87895
   A33        1.88708   0.00000   0.00000  -0.00000  -0.00000   1.88708
    D1        0.05025  -0.00000   0.00000  -0.00003  -0.00003   0.05022
    D2       -3.11958  -0.00000   0.00000  -0.00004  -0.00004  -3.11962
    D3       -3.10058  -0.00000   0.00000  -0.00003  -0.00003  -3.10060
    D4        0.01277  -0.00000   0.00000  -0.00004  -0.00004   0.01274
    D5       -1.07757   0.00000   0.00000  -0.00004  -0.00004  -1.07761
    D6        1.00211  -0.00000   0.00000  -0.00003  -0.00003   1.00208
    D7        3.10593   0.00000   0.00000  -0.00004  -0.00004   3.10589
    D8        2.05492  -0.00000   0.00000  -0.00003  -0.00003   2.05489
    D9       -2.14859  -0.00000   0.00000  -0.00003  -0.00003  -2.14861
   D10       -0.04477  -0.00000   0.00000  -0.00003  -0.00003  -0.04480
   D11       -0.00072  -0.00000   0.00000  -0.00001  -0.00001  -0.00073
   D12        3.12325   0.00000   0.00000   0.00000   0.00000   3.12325
   D13       -3.12312  -0.00000   0.00000   0.00000   0.00000  -3.12312
   D14        0.00084   0.00000   0.00000   0.00001   0.00001   0.00085
   D15       -0.02106  -0.00000   0.00000  -0.00001  -0.00001  -0.02106
   D16        3.09701  -0.00000   0.00000  -0.00001  -0.00001   3.09700
   D17        3.13800  -0.00000   0.00000  -0.00000  -0.00000   3.13800
   D18       -0.02712   0.00000   0.00000  -0.00000  -0.00000  -0.02712
   D19        3.12148  -0.00000   0.00000  -0.00002  -0.00002   3.12147
   D20        0.01954  -0.00000   0.00000  -0.00002  -0.00002   0.01952
   D21       -0.03173  -0.00000   0.00000  -0.00004  -0.00004  -0.03177
   D22       -3.13367  -0.00000   0.00000  -0.00004  -0.00004  -3.13371
   D23        1.69211  -0.00000   0.00000   0.00002   0.00002   1.69212
   D24       -1.46068  -0.00000   0.00000  -0.00000  -0.00000  -1.46068
   D25       -1.51536  -0.00000   0.00000   0.00005   0.00005  -1.51531
   D26        1.64609  -0.00000   0.00000   0.00004   0.00004   1.64613
   D27        0.01957  -0.00000   0.00000  -0.00000  -0.00000   0.01957
   D28       -3.09710  -0.00000   0.00000  -0.00001  -0.00001  -3.09711
   D29       -3.13806   0.00000   0.00000   0.00000   0.00000  -3.13805
   D30        0.02846  -0.00000   0.00000  -0.00001  -0.00001   0.02846
   D31        0.13300   0.00000   0.00000  -0.00024  -0.00024   0.13276
   D32       -3.04735  -0.00000   0.00000  -0.00024  -0.00024  -3.04759
   D33       -2.98098  -0.00000   0.00000  -0.00023  -0.00023  -2.98121
   D34        0.12185  -0.00000   0.00000  -0.00023  -0.00023   0.12162
   D35       -1.05784  -0.00000   0.00000  -0.00011  -0.00011  -1.05795
   D36        0.03375   0.00000   0.00000   0.00001   0.00001   0.03376
   D37       -3.08657   0.00000   0.00000   0.00001   0.00001  -3.08656
   D38       -0.03321  -0.00000   0.00000  -0.00000  -0.00000  -0.03322
   D39        3.08589   0.00000   0.00000   0.00001   0.00001   3.08590
         Item               Value     Threshold  Converged?
 Maximum Force            0.000004     0.000450     YES
 RMS     Force            0.000001     0.000300     YES
 Maximum Displacement     0.000529     0.001800     YES
 RMS     Displacement     0.000173     0.001200     YES
 Predicted change in Energy=-6.529480D-10
 Optimization completed.
    -- Stationary point found.
                           ----------------------------
                           !   Optimized Parameters   !
                           ! (Angstroms and Degrees)  !
 --------------------------                            --------------------------
 ! Name  Definition              Value          Derivative Info.                !
 --------------------------------------------------------------------------------
 ! R1    R(1,5)                  1.3442         -DE/DX =    0.0                 !
 ! R2    R(1,9)                  1.0965         -DE/DX =    0.0                 !
 ! R3    R(1,17)                 1.5021         -DE/DX =    0.0                 !
 ! R4    R(2,4)                  1.3345         -DE/DX =    0.0                 !
 ! R5    R(2,10)                 1.0882         -DE/DX =    0.0                 !
 ! R6    R(2,13)                 1.4896         -DE/DX =    0.0                 !
 ! R7    R(3,6)                  1.3415         -DE/DX =    0.0                 !
 ! R8    R(3,7)                  1.092          -DE/DX =    0.0                 !
 ! R9    R(3,8)                  1.0938         -DE/DX =    0.0                 !
 ! R10   R(4,11)                 1.088          -DE/DX =    0.0                 !
 ! R11   R(4,14)                 1.4902         -DE/DX =    0.0                 !
 ! R12   R(5,6)                  1.4667         -DE/DX =    0.0                 !
 ! R13   R(5,21)                 1.096          -DE/DX =    0.0                 !
 ! R14   R(6,22)                 1.0949         -DE/DX =    0.0                 !
 ! R15   R(8,11)                 2.9403         -DE/DX =    0.0                 !
 ! R16   R(12,13)                1.3754         -DE/DX =    0.0                 !
[...]
    14  C    3.250168   3.600071   3.636489   4.413238   3.357642
    15  O    4.340941   5.901803   5.134697   4.201343   2.840805
    16  O    3.673338   3.542865   4.125626   5.311684   4.494329
    17  C    3.901735   5.657558   4.319677   2.227381   3.551100
    18  H    4.284720   6.159231   4.975073   2.950527   4.642957
    19  H    4.237767   6.066471   4.849312   2.972504   3.312940
    20  H    4.672130   6.195652   4.630925   2.408431   3.549462
    21  H    2.176383   4.292312   3.876756   3.068374   4.395323
    22  H    1.094911   2.411830   3.085993   3.811765   5.199858
                   11         12         13         14         15
    11  H    0.000000
    12  O    3.340760   0.000000
    13  C    3.356487   1.375417   0.000000
    14  C    2.266860   1.378843   2.248603   0.000000
    15  O    4.494439   2.250138   1.191002   3.380122   0.000000
    16  O    2.841885   2.251314   3.377543   1.188976   4.447401
    17  C    5.454993   4.653762   3.681299   5.262341   3.434644
    18  H    6.425289   5.371369   4.528217   6.063992   4.163775
    19  H    5.444949   4.161301   3.075475   4.985764   2.547334
    20  H    5.666651   5.381368   4.275332   5.862584   4.058317
    21  H    5.159111   3.334776   3.207684   4.038126   3.271247
    22  H    4.615027   3.505439   4.103919   3.479504   4.747484
                   16         17         18         19         20
    16  O    0.000000
    17  C    6.305504   0.000000
    18  H    7.036052   1.101517   0.000000
    19  H    6.077751   1.101923   1.774026   0.000000
    20  H    6.949419   1.098084   1.775627   1.781221   0.000000
    21  H    4.753100   2.717901   2.819337   2.770262   3.775809
    22  H    3.628101   4.686616   4.928131   4.909285   5.564977
                   21         22
    21  H    0.000000
    22  H    2.408127   0.000000
 Stoichiometry    C9H10O3
 Framework group  C1[X(C9H10O3)]
 Deg. of freedom    60
 Full point group                 C1      NOp   1
 Largest Abelian subgroup         C1      NOp   1
 Largest concise Abelian subgroup C1      NOp   1
                         Standard orientation:                         
 ---------------------------------------------------------------------
 Center     Atomic      Atomic             Coordinates (Angstroms)
 Number     Number       Type             X           Y           Z
 ---------------------------------------------------------------------
      1          6           0       -2.175083    0.626786    0.274469
      2          6           0        0.331477   -1.042756    1.263336
      3          6           0        0.199566    2.576043    0.371568
      4          6           0        1.378763   -0.218360    1.329128
      5          6           0       -1.408846    1.012025   -0.760589
      6          6           0       -0.320172    1.993974   -0.719622
      7          1           0        1.026514    3.284292    0.287271
      8          1           0       -0.181893    2.379368    1.377613
      9          1           0       -2.024289    1.107374    1.248404
     10          1           0       -0.363657   -1.348567    2.042662
     11          1           0        1.775866    0.336297    2.176761
     12          8           0        1.256575   -0.971566   -0.853174
     13          6           0        0.241724   -1.556248   -0.132067
     14          6           0        2.005776   -0.166228   -0.021708
     15          8           0       -0.512540   -2.341436   -0.614821
     16          8           0        2.977082    0.407167   -0.397801
     17          6           0       -3.246173   -0.422730    0.186797
     18          1           0       -4.037571   -0.127342   -0.520150
     19          1           0       -2.828306   -1.377514   -0.170986
     20          1           0       -3.719713   -0.600988    1.161360
     21          1           0       -1.582254    0.540074   -1.734496
     22          1           0        0.124169    2.238665   -1.689940
 ---------------------------------------------------------------------
 Rotational constants (GHZ):           1.2069239           0.8437089           0.6134158

 **********************************************************************

            Population analysis using the SCF Density.

 **********************************************************************

 Orbital symmetries:
       Occupied  (A) (A) (A) (A) (A) (A) (A) (A) (A) (A) (A) (A)
                 (A) (A) (A) (A) (A) (A) (A) (A) (A) (A) (A) (A)
                 (A) (A) (A) (A) (A) (A) (A) (A) (A) (A) (A) (A)
                 (A) (A) (A) (A) (A) (A) (A) (A)
       Virtual   (A) (A) (A) (A) (A) (A) (A) (A) (A) (A) (A) (A)
                 (A) (A) (A) (A) (A) (A) (A) (A) (A) (A) (A) (A)
                 (A) (A) (A) (A) (A) (A) (A) (A) (A) (A) (A) (A)
                 (A) (A) (A) (A) (A) (A) (A) (A) (A) (A) (A) (A)
                 (A) (A) (A) (A) (A) (A) (A) (A) (A) (A) (A) (A)
                 (A) (A) (A) (A) (A) (A) (A) (A) (A) (A) (A) (A)
                 (A) (A) (A) (A) (A) (A) (A) (A) (A) (A) (A) (A)
                 (A) (A) (A) (A) (A) (A) (A) (A) (A) (A) (A) (A)
                 (A) (A) (A) (A) (A) (A) (A) (A) (A) (A) (A) (A)
                 (A) (A) (A) (A) (A) (A) (A) (A) (A) (A) (A) (A)
                 (A) (A) (A) (A) (A) (A) (A) (A) (A) (A) (A) (A)
                 (A) (A) (A) (A) (A) (A) (A) (A) (A) (A) (A) (A)
                 (A) (A) (A) (A) (A) (A) (A) (A) (A) (A) (A) (A)
                 (A) (A) (A) (A) (A) (A) (A) (A) (A) (A) (A) (A)
                 (A) (A) (A) (A) (A) (A)
 The electronic state is 1-A.
 Alpha  occ. eigenvalues --  -19.33314 -19.28007 -19.27860 -10.46132 -10.46013
 Alpha  occ. eigenvalues --  -10.35481 -10.35402 -10.31562 -10.31364 -10.30625
 Alpha  occ. eigenvalues --  -10.30593 -10.29895  -1.25212  -1.17961  -1.14138
 Alpha  occ. eigenvalues --   -0.94334  -0.91226  -0.85508  -0.79637  -0.77621
 Alpha  occ. eigenvalues --   -0.73531  -0.69444  -0.68739  -0.62073  -0.60672
 Alpha  occ. eigenvalues --   -0.60452  -0.57624  -0.56917  -0.55626  -0.54403
 Alpha  occ. eigenvalues --   -0.53381  -0.51997  -0.50503  -0.49793  -0.49496
 Alpha  occ. eigenvalues --   -0.47774  -0.43648  -0.43487  -0.42989  -0.42038
 Alpha  occ. eigenvalues --   -0.41094  -0.39126  -0.38144  -0.31111
 Alpha virt. eigenvalues --   -0.03733   0.02282   0.10936   0.12123   0.13695
 Alpha virt. eigenvalues --    0.15356   0.15896   0.16192   0.17118   0.19449
 Alpha virt. eigenvalues --    0.21090   0.21496   0.22497   0.24150   0.25023
 Alpha virt. eigenvalues --    0.27230   0.27874   0.29608   0.31891   0.33583
 Alpha virt. eigenvalues --    0.35276   0.36532   0.39145   0.40202   0.44037
 Alpha virt. eigenvalues --    0.45040   0.45455   0.48049   0.49128   0.49983
 Alpha virt. eigenvalues --    0.50614   0.52719   0.54040   0.54959   0.55686
 Alpha virt. eigenvalues --    0.57859   0.58865   0.60791   0.62540   0.63909
 Alpha virt. eigenvalues --    0.66110   0.69811   0.70385   0.70820   0.71557
 Alpha virt. eigenvalues --    0.72332   0.72709   0.73872   0.74682   0.74940
 Alpha virt. eigenvalues --    0.75395   0.76398   0.76629   0.77597   0.77998
 Alpha virt. eigenvalues --    0.78486   0.80248   0.80542   0.81763   0.86160
 Alpha virt. eigenvalues --    0.87551   0.88486   0.90255   0.91472   0.92915
 Alpha virt. eigenvalues --    0.99146   1.02311   1.05615   1.06253   1.09680
 Alpha virt. eigenvalues --    1.10874   1.12900   1.13297   1.16620   1.18666
 Alpha virt. eigenvalues --    1.19740   1.23250   1.24525   1.25517   1.27535
 Alpha virt. eigenvalues --    1.29695   1.30882   1.33979   1.35185   1.38816
 Alpha virt. eigenvalues --    1.39776   1.44533   1.45624   1.51505   1.56374
 Alpha virt. eigenvalues --    1.58429   1.60870   1.61770   1.62713   1.66452
 Alpha virt. eigenvalues --    1.67295   1.68651   1.70206   1.71809   1.74251
 Alpha virt. eigenvalues --    1.78084   1.78775   1.79818   1.81184   1.83385
 Alpha virt. eigenvalues --    1.86334   1.86957   1.87475   1.88298   1.89207
 Alpha virt. eigenvalues --    1.90361   1.90888   1.93471   1.94502   1.96779
 Alpha virt. eigenvalues --    1.97847   1.98562   2.03277   2.04159   2.06725
 Alpha virt. eigenvalues --    2.09853   2.11205   2.12818   2.13710   2.16500
 Alpha virt. eigenvalues --    2.17195   2.19329   2.21785   2.25975   2.28235
 Alpha virt. eigenvalues --    2.29726   2.31697   2.35236   2.38739   2.42063
 Alpha virt. eigenvalues --    2.42864   2.46484   2.47016   2.48724   2.53501
 Alpha virt. eigenvalues --    2.55893   2.60935   2.64425   2.65585   2.68087
 Alpha virt. eigenvalues --    2.69814   2.71099   2.71303   2.74555   2.77329
 Alpha virt. eigenvalues --    2.80305   2.81332   2.81833   2.86174   2.87114
 Alpha virt. eigenvalues --    2.91488   2.94892   3.01004   3.02262   3.03241
 Alpha virt. eigenvalues --    3.04143   3.10098   3.18362   3.25013   3.27167
 Alpha virt. eigenvalues --    3.28728   3.29121   3.34586   3.42950   3.51197
 Alpha virt. eigenvalues --    3.52468   3.73429   3.76615   3.79186
          Condensed to atoms (all electrons):
               1          2          3          4          5          6
     1  C    4.946976   0.005850  -0.023579  -0.004975   0.559032  -0.035186
     2  C    0.005850   5.394510  -0.006393   0.219764   0.006433  -0.008739
     3  C   -0.023579  -0.006393   4.785214   0.006335  -0.052191   0.626576
     4  C   -0.004975   0.219764   0.006335   5.414228  -0.010890   0.007066
     5  C    0.559032   0.006433  -0.052191  -0.010890   4.942600   0.341246
     6  C   -0.035186  -0.008739   0.626576   0.007066   0.341246   4.791920
     7  H   -0.000275   0.000252   0.392594  -0.001118   0.009876  -0.015305
     8  H    0.011310  -0.002686   0.377629   0.005968  -0.030926  -0.001448
     9  H    0.389555   0.003360   0.010023  -0.001583  -0.013370  -0.025131
    10  H    0.000766   0.429557  -0.000141  -0.046005  -0.000148   0.000006
    11  H   -0.000134  -0.047225   0.000558   0.429476  -0.000020   0.000120
    12  O   -0.001391  -0.107906  -0.001914  -0.109524   0.002420   0.003620
    13  C    0.002826   0.223054   0.000049   0.032778   0.001732   0.000376
    14  C   -0.000169   0.033258   0.003471   0.211511   0.001052  -0.000674
    15  O   -0.000531  -0.077115   0.000036   0.004213  -0.004133   0.000058
    16  O    0.000017   0.004410  -0.000078  -0.077769   0.000065  -0.003072
    17  C    0.391436  -0.001211   0.000038   0.000471  -0.058831   0.008152
    18  H   -0.019228   0.000085   0.000023  -0.000012  -0.009799  -0.000061
    19  H   -0.017660  -0.003187   0.000037   0.000247  -0.014961   0.000298
    20  H   -0.018037  -0.000057   0.000026  -0.000001   0.009301  -0.000376
    21  H   -0.064127   0.000494   0.010782  -0.000188   0.422337  -0.039270
    22  H    0.011453  -0.000107  -0.052027   0.000371  -0.046298   0.420177
               7          8          9         10         11         12
     1  C   -0.000275   0.011310   0.389555   0.000766  -0.000134  -0.001391
     2  C    0.000252  -0.002686   0.003360   0.429557  -0.047225  -0.107906
     3  C    0.392594   0.377629   0.010023  -0.000141   0.000558  -0.001914
     4  C   -0.001118   0.005968  -0.001583  -0.046005   0.429476  -0.109524
     5  C    0.009876  -0.030926  -0.013370  -0.000148  -0.000020   0.002420
     6  C   -0.015305  -0.001448  -0.025131   0.000006   0.000120   0.003620
     7  H    0.599602  -0.041214  -0.000082  -0.000000   0.000128   0.000009
     8  H   -0.041214   0.628014   0.001968  -0.000038   0.000210   0.000024
     9  H   -0.000082   0.001968   0.639354  -0.000069  -0.000051   0.000006
    10  H   -0.000000  -0.000038  -0.000069   0.567089  -0.005320   0.002825
    11  H    0.000128   0.000210  -0.000051  -0.005320   0.564870   0.002950
    12  O    0.000009   0.000024   0.000006   0.002825   0.002950   8.021034
    13  C   -0.000028   0.000328  -0.001173  -0.033849   0.009194   0.306143
    14  C    0.000972  -0.002062   0.000186   0.009039  -0.033515   0.299642
    15  O    0.000000  -0.000001   0.000011   0.001417  -0.000045  -0.063313
    16  O    0.000441  -0.000003   0.000001  -0.000046   0.001819  -0.065825
    17  C   -0.000005   0.000053  -0.044328  -0.000169  -0.000001   0.000009
    18  H    0.000001   0.000005   0.003832  -0.000002  -0.000000   0.000000
    19  H   -0.000000  -0.000001   0.003944   0.000331   0.000000   0.000147
    20  H   -0.000000   0.000009  -0.010404   0.000236   0.000000  -0.000000
    21  H   -0.000190  -0.000066   0.007903  -0.000041   0.000002  -0.000587
    22  H   -0.013551   0.007684  -0.000072   0.000003  -0.000025  -0.000180
              13         14         15         16         17         18
     1  C    0.002826  -0.000169  -0.000531   0.000017   0.391436  -0.019228
     2  C    0.223054   0.033258  -0.077115   0.004410  -0.001211   0.000085
     3  C    0.000049   0.003471   0.000036  -0.000078   0.000038   0.000023
     4  C    0.032778   0.211511   0.004213  -0.077769   0.000471  -0.000012
     5  C    0.001732   0.001052  -0.004133   0.000065  -0.058831  -0.009799
     6  C    0.000376  -0.000674   0.000058  -0.003072   0.008152  -0.000061
     7  H   -0.000028   0.000972   0.000000   0.000441  -0.000005   0.000001
     8  H    0.000328  -0.002062  -0.000001  -0.000003   0.000053   0.000005
     9  H   -0.001173   0.000186   0.000011   0.000001  -0.044328   0.003832
    10  H   -0.033849   0.009039   0.001417  -0.000046  -0.000169  -0.000002
    11  H    0.009194  -0.033515  -0.000045   0.001819  -0.000001  -0.000000
    12  O    0.306143   0.299642  -0.063313  -0.065825   0.000009   0.000000
    13  C    4.514757  -0.082977   0.730053   0.000420  -0.000576   0.000016
    14  C   -0.082977   4.506660   0.000720   0.758834  -0.000042   0.000001
    15  O    0.730053   0.000720   7.573372  -0.000013  -0.005246   0.000027
    16  O    0.000420   0.758834  -0.000013   7.551438  -0.000000   0.000000
    17  C   -0.000576  -0.000042  -0.005246  -0.000000   4.570949   0.395688
    18  H    0.000016   0.000001   0.000027   0.000000   0.395688   0.598972
    19  H    0.000416   0.000009   0.017655   0.000000   0.390666  -0.015332
    20  H    0.000039   0.000000   0.000009  -0.000000   0.388462  -0.020881
    21  H    0.001719  -0.000037   0.000783   0.000004  -0.008926   0.001820
    22  H   -0.000029   0.000360  -0.000002   0.000302  -0.000201   0.000005
              19         20         21         22
     1  C   -0.017660  -0.018037  -0.064127   0.011453
     2  C   -0.003187  -0.000057   0.000494  -0.000107
     3  C    0.000037   0.000026   0.010782  -0.052027
     4  C    0.000247  -0.000001  -0.000188   0.000371
     5  C   -0.014961   0.009301   0.422337  -0.046298
     6  C    0.000298  -0.000376  -0.039270   0.420177
     7  H   -0.000000  -0.000000  -0.000190  -0.013551
     8  H   -0.000001   0.000009  -0.000066   0.007684
     9  H    0.003944  -0.010404   0.007903  -0.000072
    10  H    0.000331   0.000236  -0.000041   0.000003
    11  H    0.000000   0.000000   0.000002  -0.000025
    12  O    0.000147  -0.000000  -0.000587  -0.000180
    13  C    0.000416   0.000039   0.001719  -0.000029
    14  C    0.000009   0.000000  -0.000037   0.000360
    15  O    0.017655   0.000009   0.000783  -0.000002
    16  O    0.000000  -0.000000   0.000004   0.000302
    17  C    0.390666   0.388462  -0.008926  -0.000201
    18  H   -0.015332  -0.020881   0.001820   0.000005
    19  H    0.590619  -0.020285   0.002158  -0.000001
    20  H   -0.020285   0.629231   0.000080   0.000006
    21  H    0.002158   0.000080   0.639398  -0.010670
    22  H   -0.000001   0.000006  -0.010670   0.635005
 Mulliken charges:
               1
     1  C   -0.133930
     2  C   -0.066400
     3  C   -0.077066
     4  C   -0.080361
     5  C   -0.054527
     6  C   -0.070353
     7  H    0.067893
     8  H    0.045243
     9  H    0.036120
    10  H    0.074561
    11  H    0.077007
    12  O   -0.288189
    13  C    0.294732
    14  C    0.293760
    15  O   -0.177955
    16  O   -0.170945
    17  C   -0.026387
    18  H    0.064838
    19  H    0.064899
    20  H    0.042643
    21  H    0.036620
    22  H    0.047797
 Sum of Mulliken charges =  -0.00000
 Mulliken charges with hydrogens summed into heavy atoms:
               1
     1  C   -0.097810
     2  C    0.008161
     3  C    0.036069
     4  C   -0.003353
     5  C   -0.017907
     6  C   -0.022555
    12  O   -0.288189
    13  C    0.294732
    14  C    0.293760
    15  O   -0.177955
    16  O   -0.170945
    17  C    0.145993
 Electronic spatial extent (au):  <R**2>=           1976.9154
 Charge=             -0.0000 electrons
 Dipole moment (field-independent basis, Debye):
    X=             -1.8597    Y=              1.0031    Z=              4.0813  Tot=              4.5959
 Quadrupole moment (field-independent basis, Debye-Ang):
   XX=            -75.5127   YY=            -75.0170   ZZ=            -64.6437
   XY=             -0.9644   XZ=              3.5221   YZ=             -3.3631
 Traceless Quadrupole moment (field-independent basis, Debye-Ang):
   XX=             -3.7882   YY=             -3.2926   ZZ=              7.0808
   XY=             -0.9644   XZ=              3.5221   YZ=             -3.3631
 Octapole moment (field-independent basis, Debye-Ang**2):
  XXX=            -27.3341  YYY=              0.4042  ZZZ=              3.7492  XYY=             18.2198
  XXY=            -13.4390  XXZ=             10.6410  XZZ=              1.7087  YZZ=              1.6622
  YYZ=              7.0700  XYZ=              1.7266
 Hexadecapole moment (field-independent basis, Debye-Ang**3):
 XXXX=          -1417.3706 YYYY=           -934.5672 ZZZZ=           -304.7855 XXXY=             -3.9217
 XXXZ=             19.2380 YYYX=             22.5807 YYYZ=             -3.9487 ZZZX=             -0.2627
 ZZZY=              1.4524 XXYY=           -382.6824 XXZZ=           -269.2217 YYZZ=           -199.6006
 XXYZ=              7.7432 YYXZ=            -10.3376 ZZXY=              9.8899
 N-N= 6.883149012913D+02 E-N=-2.713735963663D+03  KE= 5.684968708990D+02
 Unable to Open any file for archive entry.
 1\1\GINC-NODE-003\FTS\RwB97XD\def2SVP\C9H10O3\JP2658\22-Dec-2023\0\\# 
 wb97xd def2svp geom=allchk scrf=(iefpcm,solvent=toluene) opt=(calcfc,t
 s,noeigen,maxcycles=50,maxstep=10)\\1d_2b_endo_2_reopt3.out\\0,1\C,-2.
 2578341432,0.4378777829,-0.0734450891\C,0.0697393809,-0.382737688,1.91
 57907598\C,-0.2326335253,2.7501114948,-0.084755267\C,0.9608360211,0.61
 0217766,1.9431995918\C,-1.2934427999,0.6569682117,-0.9838423138\C,-0.3
 741067697,1.7991599112,-1.0203326893\H,0.5006194928,3.5500813593,-0.20
 70390575\H,-0.8424703932,2.7733755478,0.8229213861\H,-2.4268612256,1.1
 906414962,0.7056758102\H,-0.7677514037,-0.5849347827,2.580476054\H,1.0
 526923586,1.4441570092,2.6359658846\O,1.5091489969,-0.7309366414,0.141
 7143864\C,0.4128496981,-1.2725095429,0.7714740626\C,1.9137773477,0.401
 2222276,0.81677019\O,-0.0915013738,-2.2893562941,0.4107286415\O,2.8780
 822563,1.0201854442,0.4994948516\C,-3.1402287246,-0.7776199395,-0.0547
 721651\H,-3.7438842161,-0.8468243895,-0.9735488958\H,-2.5362787329,-1.
 6970634497,0.0092787729\H,-3.8319619805,-0.7632580346,0.7979224439\H,-
 1.1470575615,-0.0919441088,-1.7706105668\H,0.2809672976,1.8429866201,-
 1.8965667911\\Version=ES64L-G16RevC.01\State=1-A\HF=-573.9986313\RMSD=
 4.627e-09\RMSF=2.453e-06\Dipole=-1.17178,0.6808771,1.1969868\Quadrupol
 e=-3.5679989,-3.1531592,6.7211581,0.0033351,0.4836539,0.5333847\PG=C01
  [X(C9H10O3)]\\@
 The archive entry for this job was punched.


 FIREWORKS ENDED
 AND SPECTATORS GONE AWAY....
 AH, HOW VAST AND DARK
                     SHIKI
 Job cpu time:       0 days  0 hours 25 minutes 13.8 seconds.
 Elapsed time:       0 days  0 hours  2 minutes  8.3 seconds.
 File lengths (MBytes):  RWF=    186 Int=      0 D2E=      0 Chk=     16 Scr=      1
 Normal termination of Gaussian 16 at Fri Dec 22 23:18:29 2023.
