Unloading slurm/anatra/current
  ERROR: No such file or directory on
    '/cm/local/modulefiles/slurm/anatra/current'
environment: line 0: unalias: gv: not found
environment: line 0: unalias: sl: not found
 Entering Gaussian System, Link 0=g16
 Initial command:
 /apps/gaussian/g16/C.01/g16/l1.exe "/local/jobs/1152775/Gau-3943564.inp" -scrdir="/local/jobs/1152775/"
 Entering Link 1 = /apps/gaussian/g16/C.01/g16/l1.exe PID=   3943565.
  
 Copyright (c) 1988-2019, Gaussian, Inc.  All Rights Reserved.
  
 This is part of the Gaussian(R) 16 program.  It is based on
 the Gaussian(R) 09 system (copyright 2009, Gaussian, Inc.),
 the Gaussian(R) 03 system (copyright 2003, Gaussian, Inc.),
 the Gaussian(R) 98 system (copyright 1998, Gaussian, Inc.),
 the Gaussian(R) 94 system (copyright 1995, Gaussian, Inc.),
 the Gaussian 92(TM) system (copyright 1992, Gaussian, Inc.),
 the Gaussian 90(TM) system (copyright 1990, Gaussian, Inc.),
 the Gaussian 88(TM) system (copyright 1988, Gaussian, Inc.),
 the Gaussian 86(TM) system (copyright 1986, Carnegie Mellon
 University), and the Gaussian 82(TM) system (copyright 1983,
 Carnegie Mellon University). Gaussian is a federally registered
 trademark of Gaussian, Inc.
  
 This software contains proprietary and confidential information,
 including trade secrets, belonging to Gaussian, Inc.
  
 This software is provided under written license and may be
 used, copied, transmitted, or stored only in accord with that
 written license.
  
 The following legend is applicable only to US Government
 contracts under FAR:
  
                    RESTRICTED RIGHTS LEGEND
  
 Use, reproduction and disclosure by the US Government is
 subject to restrictions as set forth in subparagraphs (a)
 and (c) of the Commercial Computer Software - Restricted
 Rights clause in FAR 52.227-19.
  
 Gaussian, Inc.
 340 Quinnipiac St., Bldg. 40, Wallingford CT 06492
  
  
 ---------------------------------------------------------------
 Warning -- This program may not be used in any manner that
 competes with the business of Gaussian, Inc. or will provide
 assistance to any competitor of Gaussian, Inc.  The licensee
 of this program is prohibited from giving any competitor of
 Gaussian, Inc. access to this program.  By using this program,
 the user acknowledges that Gaussian, Inc. is engaged in the
 business of creating and licensing software in the field of
 computational chemistry and represents and warrants to the
 licensee that it is not a competitor of Gaussian, Inc. and that
 it will not use this program in any manner prohibited above.
 ---------------------------------------------------------------
  

 Cite this work as:
 Gaussian 16, Revision C.01,
 M. J. Frisch, G. W. Trucks, H. B. Schlegel, G. E. Scuseria, 
 M. A. Robb, J. R. Cheeseman, G. Scalmani, V. Barone, 
 G. A. Petersson, H. Nakatsuji, X. Li, M. Caricato, A. V. Marenich, 
 J. Bloino, B. G. Janesko, R. Gomperts, B. Mennucci, H. P. Hratchian, 
 J. V. Ortiz, A. F. Izmaylov, J. L. Sonnenberg, D. Williams-Young, 
 F. Ding, F. Lipparini, F. Egidi, J. Goings, B. Peng, A. Petrone, 
 T. Henderson, D. Ranasinghe, V. G. Zakrzewski, J. Gao, N. Rega, 
 G. Zheng, W. Liang, M. Hada, M. Ehara, K. Toyota, R. Fukuda, 
 J. Hasegawa, M. Ishida, T. Nakajima, Y. Honda, O. Kitao, H. Nakai, 
 T. Vreven, K. Throssell, J. A. Montgomery, Jr., J. E. Peralta, 
 F. Ogliaro, M. J. Bearpark, J. J. Heyd, E. N. Brothers, K. N. Kudin, 
 V. N. Staroverov, T. A. Keith, R. Kobayashi, J. Normand, 
 K. Raghavachari, A. P. Rendell, J. C. Burant, S. S. Iyengar, 
 J. Tomasi, M. Cossi, J. M. Millam, M. Klene, C. Adamo, R. Cammi, 
 J. W. Ochterski, R. L. Martin, K. Morokuma, O. Farkas, 
 J. B. Foresman, and D. J. Fox, Gaussian, Inc., Wallingford CT, 2019.
 
 ******************************************
 Gaussian 16:  ES64L-G16RevC.01  3-Jul-2019
                22-Dec-2023 
 ******************************************
 %chk=imda-1_1_opt_dft_re.chk
 %nprocshared=12
 Will use up to   12 processors via shared memory.
 %mem=48GB
 ----------------------------------------------------------------------
 # wb97xd def2svp geom=allchk scrf=(iefpcm,solvent=toluene) opt=(calcfc
 ,ts,noeigen,maxcycles=50,maxstep=10)
 ----------------------------------------------------------------------
 1/5=1,6=50,8=10,10=4,11=1,18=20,26=3,29=7,38=1/1,3;
 2/9=110,12=2,40=1/2;
 3/5=43,7=101,11=2,14=-4,25=1,30=1,70=2201,71=2,72=13,74=-58,140=1/1,2,3;
 4//1;
 5/5=2,38=5,53=13/2;
 8/6=4,10=90,11=11/1;
 11/6=1,8=1,9=11,15=111,16=1/1,2,10;
 10/6=1,13=1/2;
 6/7=2,8=2,9=2,10=2,28=1/1;
 7/10=1,25=1/1,2,3,16;
 1/5=1,6=50,8=10,10=4,11=1,18=20,26=3/3(2);
 2/9=110/2;
 99//99;
 2/9=110/2;
 3/5=43,7=101,11=2,14=-2,25=1,30=1,70=2205,71=1,72=13,74=-58/1,2,3;
 4/5=5,16=3,69=1/1;
 5/5=2,38=5,53=13/2;
 7//1,2,3,16;
 1/5=1,6=50,8=10,11=1,18=20,26=3/3(-5);
 2/9=110/2;
 6/7=2,8=2,9=2,10=2,19=2,28=1/1;
 99/9=1/99;
 Structure from the checkpoint file:  "imda-1_1_opt_dft_re.chk"
 -----------------------
 3a_exo_ts_26_reopt2.out
 -----------------------
 Charge =  0 Multiplicity = 1
 Redundant internal coordinates found in file.  (old form).
 C,0,-1.6769011476,-0.6018263196,3.6231203316
 C,0,2.0299288117,-1.5298682442,3.389442732
 C,0,-0.9042441669,-1.1444531017,1.4428482437
 C,0,1.8975519674,-1.8025558072,2.0944404466
 C,0,-1.9632225302,-1.8936120308,3.3469443856
 C,0,-1.4897277459,-2.2260965456,2.0014741684
 C,0,-0.2360027556,-1.0481121927,0.1035468614
 H,0,-0.1148268303,-2.0595721822,-0.3162771418
 H,0,-0.8914538779,-0.5061455151,-0.6000835614
 C,0,1.1087241563,-0.3121564816,0.1126467104
 H,0,1.5075317897,-0.203859296,-0.9070350784
 H,0,0.9640716098,0.7194015546,0.4812965037
 C,0,2.2375729175,-0.8709057689,0.9642117693
 O,0,3.3841246711,-0.5550763634,0.7521125463
 H,0,1.4898108902,-2.7822096523,1.8284643704
 H,0,1.7741749596,-2.2411633629,4.1759560469
 C,0,-0.9993917031,-0.0028072844,2.4206263079
 H,0,-1.5855478015,0.8380387432,2.0052694623
 H,0,-0.0134545721,0.4166121933,2.6869179658
 Cl,0,2.5467740767,0.0137727588,4.0013886109
 C,0,-1.939091088,0.1652610553,4.8772356949
 H,0,-0.9961919737,0.5305147942,5.3170445589
 H,0,-2.4486082034,-0.4557269841,5.6273293719
 H,0,-2.5652929926,1.0516105575,4.6839185448
 H,0,-1.5720736894,-3.2116582749,1.5380865609
 H,0,-2.4603347721,-2.5920062491,4.0229735868
 Recover connectivity data from disk.

 GradGradGradGradGradGradGradGradGradGradGradGradGradGradGradGradGradGrad
 Berny optimization.
 Initialization pass.
                           ----------------------------
                           !    Initial Parameters    !
                           ! (Angstroms and Degrees)  !
 --------------------------                            --------------------------
 ! Name  Definition              Value          Derivative Info.                !
 --------------------------------------------------------------------------------
 ! R1    R(1,5)                  1.3517         calculate D2E/DX2 analytically  !
 ! R2    R(1,17)                 1.5046         calculate D2E/DX2 analytically  !
 ! R3    R(1,21)                 1.4933         calculate D2E/DX2 analytically  !
 ! R4    R(2,4)                  1.33           calculate D2E/DX2 analytically  !
 ! R5    R(2,16)                 1.0909         calculate D2E/DX2 analytically  !
 ! R6    R(2,20)                 1.7391         calculate D2E/DX2 analytically  !
 ! R7    R(3,6)                  1.3509         calculate D2E/DX2 analytically  !
 ! R8    R(3,7)                  1.4999         calculate D2E/DX2 analytically  !
 ! R9    R(3,17)                 1.5061         calculate D2E/DX2 analytically  !
 ! R10   R(4,13)                 1.5037         calculate D2E/DX2 analytically  !
 ! R11   R(4,15)                 1.0939         calculate D2E/DX2 analytically  !
 ! R12   R(5,6)                  1.4646         calculate D2E/DX2 analytically  !
 ! R13   R(5,26)                 1.0917         calculate D2E/DX2 analytically  !
 ! R14   R(6,25)                 1.0922         calculate D2E/DX2 analytically  !
 ! R15   R(7,8)                  1.1018         calculate D2E/DX2 analytically  !
 ! R16   R(7,9)                  1.1038         calculate D2E/DX2 analytically  !
 ! R17   R(7,10)                 1.533          calculate D2E/DX2 analytically  !
 ! R18   R(10,11)                1.1002         calculate D2E/DX2 analytically  !
 ! R19   R(10,12)                1.105          calculate D2E/DX2 analytically  !
 ! R20   R(10,13)                1.5204         calculate D2E/DX2 analytically  !
 ! R21   R(13,14)                1.208          calculate D2E/DX2 analytically  !
 ! R22   R(17,18)                1.1059         calculate D2E/DX2 analytically  !
 ! R23   R(17,19)                1.104          calculate D2E/DX2 analytically  !
 ! R24   R(21,22)                1.1027         calculate D2E/DX2 analytically  !
 ! R25   R(21,23)                1.099          calculate D2E/DX2 analytically  !
 ! R26   R(21,24)                1.1023         calculate D2E/DX2 analytically  !
 ! A1    A(5,1,17)             108.2146         calculate D2E/DX2 analytically  !
 ! A2    A(5,1,21)             128.7068         calculate D2E/DX2 analytically  !
 ! A3    A(17,1,21)            123.0756         calculate D2E/DX2 analytically  !
 ! A4    A(4,2,16)             123.0253         calculate D2E/DX2 analytically  !
 ! A5    A(4,2,20)             123.6544         calculate D2E/DX2 analytically  !
 ! A6    A(16,2,20)            113.2501         calculate D2E/DX2 analytically  !
 ! A7    A(6,3,7)              127.8652         calculate D2E/DX2 analytically  !
 ! A8    A(6,3,17)             108.1249         calculate D2E/DX2 analytically  !
 ! A9    A(7,3,17)             123.9977         calculate D2E/DX2 analytically  !
 ! A10   A(2,4,13)             125.6145         calculate D2E/DX2 analytically  !
 ! A11   A(2,4,15)             117.2221         calculate D2E/DX2 analytically  !
 ! A12   A(13,4,15)            117.1541         calculate D2E/DX2 analytically  !
 ! A13   A(1,5,6)              109.6445         calculate D2E/DX2 analytically  !
 ! A14   A(1,5,26)             125.5426         calculate D2E/DX2 analytically  !
 ! A15   A(6,5,26)             124.8091         calculate D2E/DX2 analytically  !
 ! A16   A(3,6,5)              109.7702         calculate D2E/DX2 analytically  !
 ! A17   A(3,6,25)             125.4346         calculate D2E/DX2 analytically  !
 ! A18   A(5,6,25)             124.7678         calculate D2E/DX2 analytically  !
 ! A19   A(3,7,8)              109.2856         calculate D2E/DX2 analytically  !
 ! A20   A(3,7,9)              109.6448         calculate D2E/DX2 analytically  !
 ! A21   A(3,7,10)             114.6052         calculate D2E/DX2 analytically  !
 ! A22   A(8,7,9)              105.8515         calculate D2E/DX2 analytically  !
 ! A23   A(8,7,10)             110.2737         calculate D2E/DX2 analytically  !
 ! A24   A(9,7,10)             106.795          calculate D2E/DX2 analytically  !
 ! A25   A(7,10,11)            111.0828         calculate D2E/DX2 analytically  !
 ! A26   A(7,10,12)            109.593          calculate D2E/DX2 analytically  !
 ! A27   A(7,10,13)            118.5668         calculate D2E/DX2 analytically  !
 ! A28   A(11,10,12)           105.3529         calculate D2E/DX2 analytically  !
 ! A29   A(11,10,13)           106.6264         calculate D2E/DX2 analytically  !
 ! A30   A(12,10,13)           104.6799         calculate D2E/DX2 analytically  !
 ! A31   A(4,13,10)            118.7373         calculate D2E/DX2 analytically  !
 ! A32   A(4,13,14)            120.5693         calculate D2E/DX2 analytically  !
 ! A33   A(10,13,14)           120.6814         calculate D2E/DX2 analytically  !
 ! A34   A(1,17,3)             104.2122         calculate D2E/DX2 analytically  !
 ! A35   A(1,17,18)            111.3578         calculate D2E/DX2 analytically  !
 ! A36   A(1,17,19)            111.1371         calculate D2E/DX2 analytically  !
 ! A37   A(3,17,18)            111.467          calculate D2E/DX2 analytically  !
 ! A38   A(3,17,19)            112.8381         calculate D2E/DX2 analytically  !
 ! A39   A(18,17,19)           105.9657         calculate D2E/DX2 analytically  !
 ! A40   A(1,21,22)            110.7926         calculate D2E/DX2 analytically  !
 ! A41   A(1,21,23)            111.3665         calculate D2E/DX2 analytically  !
 ! A42   A(1,21,24)            111.4382         calculate D2E/DX2 analytically  !
 ! A43   A(22,21,23)           108.1418         calculate D2E/DX2 analytically  !
 ! A44   A(22,21,24)           106.8199         calculate D2E/DX2 analytically  !
 ! A45   A(23,21,24)           108.0988         calculate D2E/DX2 analytically  !
 ! D1    D(17,1,5,6)             0.9406         calculate D2E/DX2 analytically  !
 ! D2    D(17,1,5,26)         -179.7466         calculate D2E/DX2 analytically  !
 ! D3    D(21,1,5,6)          -178.4432         calculate D2E/DX2 analytically  !
 ! D4    D(21,1,5,26)            0.8696         calculate D2E/DX2 analytically  !
 ! D5    D(5,1,17,3)            -1.6695         calculate D2E/DX2 analytically  !
 ! D6    D(5,1,17,18)          118.6217         calculate D2E/DX2 analytically  !
 ! D7    D(5,1,17,19)         -123.4846         calculate D2E/DX2 analytically  !
 ! D8    D(21,1,17,3)          177.7566         calculate D2E/DX2 analytically  !
 ! D9    D(21,1,17,18)         -61.9521         calculate D2E/DX2 analytically  !
 ! D10   D(21,1,17,19)          55.9415         calculate D2E/DX2 analytically  !
 ! D11   D(5,1,21,22)          119.3178         calculate D2E/DX2 analytically  !
 ! D12   D(5,1,21,23)           -1.093          calculate D2E/DX2 analytically  !
 ! D13   D(5,1,21,24)         -121.8902         calculate D2E/DX2 analytically  !
 ! D14   D(17,1,21,22)         -59.9837         calculate D2E/DX2 analytically  !
 ! D15   D(17,1,21,23)         179.6055         calculate D2E/DX2 analytically  !
 ! D16   D(17,1,21,24)          58.8084         calculate D2E/DX2 analytically  !
 ! D17   D(16,2,4,13)         -179.6855         calculate D2E/DX2 analytically  !
 ! D18   D(16,2,4,15)            1.4564         calculate D2E/DX2 analytically  !
 ! D19   D(20,2,4,13)            3.5696         calculate D2E/DX2 analytically  !
 ! D20   D(20,2,4,15)         -175.2885         calculate D2E/DX2 analytically  !
 ! D21   D(7,3,6,5)            177.4113         calculate D2E/DX2 analytically  !
 ! D22   D(7,3,6,25)            -0.7546         calculate D2E/DX2 analytically  !
 ! D23   D(17,3,6,5)            -1.3415         calculate D2E/DX2 analytically  !
 ! D24   D(17,3,6,25)         -179.5074         calculate D2E/DX2 analytically  !
 ! D25   D(6,3,7,8)            -10.5582         calculate D2E/DX2 analytically  !
 ! D26   D(6,3,7,9)            105.0475         calculate D2E/DX2 analytically  !
 ! D27   D(6,3,7,10)          -134.8917         calculate D2E/DX2 analytically  !
 ! D28   D(17,3,7,8)           168.0121         calculate D2E/DX2 analytically  !
 ! D29   D(17,3,7,9)           -76.3823         calculate D2E/DX2 analytically  !
 ! D30   D(17,3,7,10)           43.6786         calculate D2E/DX2 analytically  !
 ! D31   D(6,3,17,1)             1.8283         calculate D2E/DX2 analytically  !
 ! D32   D(6,3,17,18)         -118.3896         calculate D2E/DX2 analytically  !
 ! D33   D(6,3,17,19)          122.5114         calculate D2E/DX2 analytically  !
 ! D34   D(7,3,17,1)          -176.9841         calculate D2E/DX2 analytically  !
 ! D35   D(7,3,17,18)           62.798          calculate D2E/DX2 analytically  !
 ! D36   D(7,3,17,19)          -56.301          calculate D2E/DX2 analytically  !
 ! D37   D(2,4,13,10)         -111.7305         calculate D2E/DX2 analytically  !
 ! D38   D(2,4,13,14)           67.0197         calculate D2E/DX2 analytically  !
 ! D39   D(15,4,13,10)          67.1283         calculate D2E/DX2 analytically  !
 ! D40   D(15,4,13,14)        -114.1215         calculate D2E/DX2 analytically  !
 ! D41   D(1,5,6,3)              0.2622         calculate D2E/DX2 analytically  !
 ! D42   D(1,5,6,25)           178.4431         calculate D2E/DX2 analytically  !
 ! D43   D(26,5,6,3)          -179.0568         calculate D2E/DX2 analytically  !
 ! D44   D(26,5,6,25)           -0.8759         calculate D2E/DX2 analytically  !
 ! D45   D(3,7,10,11)         -175.4128         calculate D2E/DX2 analytically  !
 ! D46   D(3,7,10,12)          -59.4095         calculate D2E/DX2 analytically  !
 ! D47   D(3,7,10,13)           60.5959         calculate D2E/DX2 analytically  !
 ! D48   D(8,7,10,11)           60.7791         calculate D2E/DX2 analytically  !
 ! D49   D(8,7,10,12)          176.7824         calculate D2E/DX2 analytically  !
 ! D50   D(8,7,10,13)          -63.2122         calculate D2E/DX2 analytically  !
 ! D51   D(9,7,10,11)          -53.781          calculate D2E/DX2 analytically  !
 ! D52   D(9,7,10,12)           62.2223         calculate D2E/DX2 analytically  !
 ! D53   D(9,7,10,13)         -177.7723         calculate D2E/DX2 analytically  !
 ! D54   D(7,10,13,4)          -20.5126         calculate D2E/DX2 analytically  !
 ! D55   D(7,10,13,14)         160.7387         calculate D2E/DX2 analytically  !
 ! D56   D(11,10,13,4)        -146.672          calculate D2E/DX2 analytically  !
 ! D57   D(11,10,13,14)         34.5792         calculate D2E/DX2 analytically  !
 ! D58   D(12,10,13,4)         101.99           calculate D2E/DX2 analytically  !
 ! D59   D(12,10,13,14)        -76.7588         calculate D2E/DX2 analytically  !
 --------------------------------------------------------------------------------
 Trust Radius=1.00D-01 FncErr=1.00D-07 GrdErr=1.00D-06 EigMax=2.50D+02 EigMin=1.00D-04
 Number of steps in this run=     50 maximum allowed number of steps=    156.
 Search for a saddle point of order  1.
 GradGradGradGradGradGradGradGradGradGradGradGradGradGradGradGradGradGrad

                          Input orientation:                          
 ---------------------------------------------------------------------
 Center     Atomic      Atomic             Coordinates (Angstroms)
 Number     Number       Type             X           Y           Z
 ---------------------------------------------------------------------
      1          6           0       -1.676901   -0.601826    3.623120
      2          6           0        2.029929   -1.529868    3.389443
      3          6           0       -0.904244   -1.144453    1.442848
      4          6           0        1.897552   -1.802556    2.094440
      5          6           0       -1.963223   -1.893612    3.346944
      6          6           0       -1.489728   -2.226097    2.001474
      7          6           0       -0.236003   -1.048112    0.103547
      8          1           0       -0.114827   -2.059572   -0.316277
      9          1           0       -0.891454   -0.506146   -0.600084
     10          6           0        1.108724   -0.312156    0.112647
     11          1           0        1.507532   -0.203859   -0.907035
     12          1           0        0.964072    0.719402    0.481297
     13          6           0        2.237573   -0.870906    0.964212
     14          8           0        3.384125   -0.555076    0.752113
     15          1           0        1.489811   -2.782210    1.828464
     16          1           0        1.774175   -2.241163    4.175956
     17          6           0       -0.999392   -0.002807    2.420626
     18          1           0       -1.585548    0.838039    2.005269
     19          1           0       -0.013455    0.416612    2.686918
     20         17           0        2.546774    0.013773    4.001389
     21          6           0       -1.939091    0.165261    4.877236
     22          1           0       -0.996192    0.530515    5.317045
     23          1           0       -2.448608   -0.455727    5.627329
     24          1           0       -2.565293    1.051611    4.683919
     25          1           0       -1.572074   -3.211658    1.538087
     26          1           0       -2.460335   -2.592006    4.022974
 ---------------------------------------------------------------------
                    Distance matrix (angstroms):
                    1          2          3          4          5
     1  C    0.000000
     2  C    3.828375   0.000000
     3  C    2.375927   3.542195   0.000000
     4  C    4.068824   1.330005   2.950887   0.000000
     5  C    1.351652   4.009909   2.303965   4.059881   0.000000
     6  C    2.302830   3.846969   1.350854   3.414922   1.464593
     7  C    3.829198   4.020404   1.499852   3.014116   3.770648
     8  H    4.481512   4.314270   2.134279   3.150759   4.106495
     9  H    4.296689   5.049634   2.140367   4.088972   4.318887
    10  C    4.490773   3.615084   2.552292   2.602123   4.732710
    11  H    5.551693   4.526690   3.496188   3.422981   5.744366
    12  H    4.311779   3.827869   2.808761   3.135903   4.858892
    13  C    4.739758   2.521724   3.189817   1.503663   4.936601
    14  O    5.818836   3.120829   4.383445   2.359650   6.092532
    15  H    4.242986   2.072858   2.926166   1.093946   3.875413
    16  H    3.860438   1.090850   3.980776   2.130799   3.843981
    17  C    1.504605   3.528074   1.506140   3.426044   2.315638
    18  H    2.167717   4.538126   2.170430   4.371805   3.066699
    19  H    2.163503   2.908220   2.185896   2.987923   3.094247
    20  Cl   4.285030   1.739090   4.449398   2.712377   4.940292
    21  C    1.493309   4.565097   3.818544   5.131869   2.565411
    22  H    2.148241   4.137419   4.221773   4.919568   3.269990
    23  H    2.152610   5.120470   4.513235   5.760587   2.739209
    24  H    2.156012   5.427316   4.252801   5.896495   3.290034
    25  H    3.342092   4.385243   2.174489   3.785948   2.272050
    26  H    2.175883   4.657463   3.342735   4.830492   1.091737
                    6          7          8          9         10
     6  C    0.000000
     7  C    2.561562   0.000000
     8  H    2.700010   1.101811   0.000000
     9  H    3.175573   1.103830   1.759781   0.000000
    10  C    3.739357   1.532972   2.175894   2.132212   0.000000
    11  H    4.640305   2.184937   2.534702   2.437361   1.100239
    12  H    4.124079   2.169557   3.085910   2.472716   1.104961
    13  C    4.099418   2.625019   2.930250   3.517226   1.520416
    14  O    5.301665   3.710666   3.955708   4.484574   2.376000
    15  H    3.035926   2.993471   2.774344   4.092522   3.031571
    16  H    3.921946   4.695605   4.876624   5.738155   4.546908
    17  C    2.314980   2.654107   3.536012   3.064260   3.141118
    18  H    3.065635   2.999231   3.993588   3.012717   3.487703
    19  H    3.103728   2.978045   3.893706   3.525159   2.901252
    20  Cl   5.030906   4.905570   5.479518   5.767605   4.158910
    21  C    3.767031   5.211611   5.937205   5.616881   5.676127
    22  H    4.339987   5.500046   6.262561   6.008164   5.676841
    23  H    4.147347   5.979859   6.583716   6.419341   6.564065
    24  H    4.369864   5.551057   6.378573   5.757519   6.021195
    25  H    1.092173   2.919576   2.624792   3.514942   4.198293
    26  H    2.272098   4.763735   4.961249   5.308941   5.764248
                   11         12         13         14         15
    11  H    0.000000
    12  H    1.753632   0.000000
    13  C    2.116477   2.093822   0.000000
    14  O    2.529372   2.748507   1.208021   0.000000
    15  H    3.759144   3.788475   2.226918   3.115619   0.000000
    16  H    5.482564   4.803303   3.522449   4.142165   2.425760
    17  C    4.171141   2.852678   3.654132   4.722728   3.777812
    18  H    4.374267   2.972731   4.315153   5.311197   4.753450
    19  H    3.951567   2.431461   3.113285   4.028796   3.637198
    20  Cl   5.021953   3.923507   3.178475   3.403313   3.695442
    21  C    6.743385   5.297141   5.816349   6.772898   5.453436
    22  H    6.748860   5.221376   5.600747   6.419056   5.415214
    23  H    7.642801   6.285616   6.623997   7.602525   5.946011
    24  H    7.030140   5.498073   6.371798   7.310001   6.268625
    25  H    4.950701   4.796047   4.507978   5.677947   3.105460
    26  H    6.764037   5.935946   5.864175   7.000380   4.522798
                   16         17         18         19         20
    16  H    0.000000
    17  C    3.972920   0.000000
    18  H    5.047881   1.105949   0.000000
    19  H    3.532227   1.104036   1.764574   0.000000
    20  Cl   2.390004   3.882573   4.662616   2.906008   0.000000
    21  C    4.480069   2.635567   2.970827   2.927242   4.573078
    22  H    4.081570   2.945111   3.377834   2.810038   3.814522
    23  H    4.808967   3.548001   3.941830   3.916244   5.274273
    24  H    5.470957   2.947259   2.860188   3.301986   5.260816
    25  H    4.370080   3.376917   4.076578   4.112597   5.782402
    26  H    4.251772   3.377251   4.074505   4.101713   5.644616
                   21         22         23         24         25
    21  C    0.000000
    22  H    1.102679   0.000000
    23  H    1.099033   1.782824   0.000000
    24  H    1.102323   1.770443   1.782051   0.000000
    25  H    4.763214   5.349395   5.008530   5.390566   0.000000
    26  H    2.933254   3.683541   2.671663   3.704566   2.710653
                   26
    26  H    0.000000
 Stoichiometry    C11H13ClO
 Framework group  C1[X(C11H13ClO)]
 Deg. of freedom    72
 Full point group                 C1      NOp   1
 Largest Abelian subgroup         C1      NOp   1
 Largest concise Abelian subgroup C1      NOp   1
                         Standard orientation:                         
 ---------------------------------------------------------------------
 Center     Atomic      Atomic             Coordinates (Angstroms)
 Number     Number       Type             X           Y           Z
 ---------------------------------------------------------------------
      1          6           0       -2.467194    0.316094   -0.219980
      2          6           0        0.990483    1.271535    1.117201
      3          6           0       -0.919793   -1.477830   -0.039943
      4          6           0        1.368749   -0.003410    1.098651
      5          6           0       -2.673286   -0.348451    0.938843
      6          6           0       -1.721319   -1.456174    1.047206
      7          6           0        0.225845   -2.404226   -0.320768
      8          1           0        0.461832   -2.977642    0.589997
      9          1           0       -0.076448   -3.149755   -1.076575
     10          6           0        1.486483   -1.716133   -0.856794
     11          1           0        2.259182   -2.454219   -1.118884
     12          1           0        1.249940   -1.192519   -1.800623
     13          6           0        2.164340   -0.664932    0.007584
     14          8           0        3.313329   -0.349969   -0.192261
     15          1           0        1.059774   -0.629361    1.940932
     16          1           0        0.416729    1.709607    1.935035
     17          6           0       -1.346708   -0.363661   -0.959087
     18          1           0       -1.687022   -0.753317   -1.936572
     19          1           0       -0.529683    0.344547   -1.182262
     20         17           0        1.285933    2.383560   -0.186849
     21          6           0       -3.171588    1.525374   -0.740980
     22          1           0       -2.464704    2.359898   -0.881644
     23          1           0       -3.960293    1.857513   -0.051412
     24          1           0       -3.634409    1.330534   -1.722280
     25          1           0       -1.653942   -2.138574    1.897284
     26          1           0       -3.424514   -0.096587    1.689916
 ---------------------------------------------------------------------
 Rotational constants (GHZ):           0.8866045           0.5792215           0.4149794
 Standard basis: def2SVP (5D, 7F)
 There are   264 symmetry adapted cartesian basis functions of A   symmetry.
 There are   251 symmetry adapted basis functions of A   symmetry.
   251 basis functions,   428 primitive gaussians,   264 cartesian basis functions
    52 alpha electrons       52 beta electrons
       nuclear repulsion energy       873.3423242207 Hartrees.
 NAtoms=   26 NActive=   26 NUniq=   26 SFac= 1.00D+00 NAtFMM=   60 NAOKFM=F Big=F
 Integral buffers will be    131072 words long.
 Raffenetti 2 integral format.
 Two-electron integral symmetry is turned on.
 Nuclear repulsion after empirical dispersion term =      873.3217994072 Hartrees.
 Force inversion solution in PCM.
 ------------------------------------------------------------------------------
 Polarizable Continuum Model (PCM)
 =================================
 Model                : PCM.
 Atomic radii         : UFF (Universal Force Field).
 Polarization charges : Total charges.
 Charge compensation  : None.
 Solution method      : Matrix inversion.
 Cavity type          : Scaled VdW (van der Waals Surface) (Alpha=1.100).
 Cavity algorithm     : GePol (No added spheres)
                        Default sphere list used, NSphG=   26.
                        Lebedev-Laikov grids with approx.  5.0 points / Ang**2.
                        Smoothing algorithm: York/Karplus (Gamma=1.0000).
                        Polarization charges: spherical gaussians, with
                                              point-specific exponents (IZeta= 3).
                        Self-potential: point-specific (ISelfS= 7).
                        Self-field    : sphere-specific E.n sum rule (ISelfD= 2).
 1st derivatives      : Analytical E(r).r(x)/FMM algorithm (CHGder, D1EAlg=3).
                        Cavity 1st derivative terms included.
 2nd derivatives      : Analytical E(r).r(xy)/FMM algorithm (CHGder, D2EAlg=3).
                        Cavity 2nd derivative terms included.
 Solvent              : Toluene, Eps=   2.374100 Eps(inf)=   2.238315
 ------------------------------------------------------------------------------
 One-electron integrals computed using PRISM.
   1 Symmetry operations used in ECPInt.
 ECPInt:  NShTT=    7140 NPrTT=   26096 LenC2=    6946 LenP2D=   19115.
 LDataN:  DoStor=T MaxTD1= 4 Len=   56
 NBasis=   251 RedAO= T EigKep=  5.71D-04  NBF=   251
 NBsUse=   251 1.00D-06 EigRej= -1.00D+00 NBFU=   251
 ExpMin= 1.22D-01 ExpMax= 1.04D+04 ExpMxC= 1.57D+03 IAcc=3 IRadAn=         5 AccDes= 0.00D+00
 Harris functional with IExCor= 4639 and IRadAn=       5 diagonalized for initial guess.
 HarFok:  IExCor= 4639 AccDes= 0.00D+00 IRadAn=         5 IDoV= 1 UseB2=F ITyADJ=14
 ICtDFT=  3500011 ScaDFX=  1.000000  1.000000  1.000000  1.000000
 FoFCou: FMM=F IPFlag=           0 FMFlag=      100000 FMFlg1=           0
         NFxFlg=           0 DoJE=T BraDBF=F KetDBF=T FulRan=T
         wScrn=  0.000000 ICntrl=       500 IOpCl=  0 I1Cent=   200000004 NGrid=           0
         NMat0=    1 NMatS0=      1 NMatT0=    0 NMatD0=    1 NMtDS0=    0 NMtDT0=    0
 Petite list used in FoFCou.
 Requested convergence on RMS density matrix=1.00D-08 within 128 cycles.
 Requested convergence on MAX density matrix=1.00D-06.
 Requested convergence on             energy=1.00D-06.
 No special actions if energy rises.
 Inv3:  Mode=1 IEnd=    12000000.
 Iteration    1 A*A^-1 deviation from unit magnitude is 2.89D-15 for    759.
 Iteration    1 A*A^-1 deviation from orthogonality  is 2.33D-15 for   1615    463.
 Iteration    1 A^-1*A deviation from unit magnitude is 2.66D-15 for     84.
 Iteration    1 A^-1*A deviation from orthogonality  is 2.00D-15 for   1720   1647.
 Error on total polarization charges =  0.00625
 SCF Done:  E(RwB97XD) =  -961.702758416     A.U. after   15 cycles
            NFock= 15  Conv=0.48D-08     -V/T= 2.0068
 DoSCS=F DFT=T ScalE2(SS,OS)=  1.000000  1.000000
 Range of M.O.s used for correlation:     1   251
 NBasis=   251 NAE=    52 NBE=    52 NFC=     0 NFV=     0
 NROrb=    251 NOA=    52 NOB=    52 NVA=   199 NVB=   199

 **** Warning!!: The largest alpha MO coefficient is  0.10367459D+02

   1 Symmetry operations used in ECPInt.
 ECPInt:  NShTT=    7140 NPrTT=   26096 LenC2=    6946 LenP2D=   19115.
 LDataN:  DoStor=T MaxTD1= 5 Len=  102
 Symmetrizing basis deriv contribution to polar:
 IMax=3 JMax=2 DiffMx= 0.00D+00
 G2DrvN: will do    27 centers at a time, making    1 passes.
 Calling FoFCou, ICntrl=  3107 FMM=F I1Cent=   0 AccDes= 0.00D+00.
 NEqPCM:  Using equilibrium solvation (IEInf=0, Eps=   2.3741, EpsInf=   2.2383)
 G2PCM: DoFxE=T DoFxN=T DoGrad=T DoDP/DQ/DG/TGxP=FFFF NFrqRd=   0 IEInf=0 SqF1=F DoCFld=F IF1Alg=4.
 End of G2Drv F.D. properties file   721 does not exist.
 End of G2Drv F.D. properties file   722 does not exist.
 End of G2Drv F.D. properties file   788 does not exist.
          IDoAtm=11111111111111111111111111
 NEqPCM:  Using equilibrium solvation (IEInf=0, Eps=   2.3741, EpsInf=   2.2383)
          Differentiating once with respect to nuclear coordinates.
 Keep R1 ints in memory in canonical form, NReq=1021395223.
          There are    81 degrees of freedom in the 1st order CPHF.  IDoFFX=6 NUNeed=     0.
     75 vectors produced by pass  0 Test12= 1.28D-14 1.23D-09 XBig12= 8.83D-02 6.75D-02.
 AX will form    75 AO Fock derivatives at one time.
     75 vectors produced by pass  1 Test12= 1.28D-14 1.23D-09 XBig12= 6.11D-03 2.16D-02.
     75 vectors produced by pass  2 Test12= 1.28D-14 1.23D-09 XBig12= 2.06D-04 3.07D-03.
     75 vectors produced by pass  3 Test12= 1.28D-14 1.23D-09 XBig12= 3.05D-06 2.95D-04.
     75 vectors produced by pass  4 Test12= 1.28D-14 1.23D-09 XBig12= 2.54D-08 2.43D-05.
     75 vectors produced by pass  5 Test12= 1.28D-14 1.23D-09 XBig12= 1.56D-10 1.59D-06.
     66 vectors produced by pass  6 Test12= 1.28D-14 1.23D-09 XBig12= 8.72D-13 9.72D-08.
     21 vectors produced by pass  7 Test12= 1.28D-14 1.23D-09 XBig12= 4.24D-15 6.00D-09.
 InvSVY:  IOpt=1 It=  1 EMax= 3.33D-16
 Solved reduced A of dimension   537 with    81 vectors.
 End of Minotr F.D. properties file   721 does not exist.
 End of Minotr F.D. properties file   722 does not exist.
 End of Minotr F.D. properties file   788 does not exist.

 **********************************************************************

            Population analysis using the SCF Density.

 **********************************************************************

 Orbital symmetries:
       Occupied  (A) (A) (A) (A) (A) (A) (A) (A) (A) (A) (A) (A)
                 (A) (A) (A) (A) (A) (A) (A) (A) (A) (A) (A) (A)
                 (A) (A) (A) (A) (A) (A) (A) (A) (A) (A) (A) (A)
                 (A) (A) (A) (A) (A) (A) (A) (A) (A) (A) (A) (A)
                 (A) (A) (A) (A)
       Virtual   (A) (A) (A) (A) (A) (A) (A) (A) (A) (A) (A) (A)
                 (A) (A) (A) (A) (A) (A) (A) (A) (A) (A) (A) (A)
                 (A) (A) (A) (A) (A) (A) (A) (A) (A) (A) (A) (A)
                 (A) (A) (A) (A) (A) (A) (A) (A) (A) (A) (A) (A)
                 (A) (A) (A) (A) (A) (A) (A) (A) (A) (A) (A) (A)
                 (A) (A) (A) (A) (A) (A) (A) (A) (A) (A) (A) (A)
                 (A) (A) (A) (A) (A) (A) (A) (A) (A) (A) (A) (A)
                 (A) (A) (A) (A) (A) (A) (A) (A) (A) (A) (A) (A)
                 (A) (A) (A) (A) (A) (A) (A) (A) (A) (A) (A) (A)
                 (A) (A) (A) (A) (A) (A) (A) (A) (A) (A) (A) (A)
                 (A) (A) (A) (A) (A) (A) (A) (A) (A) (A) (A) (A)
                 (A) (A) (A) (A) (A) (A) (A) (A) (A) (A) (A) (A)
                 (A) (A) (A) (A) (A) (A) (A) (A) (A) (A) (A) (A)
                 (A) (A) (A) (A) (A) (A) (A) (A) (A) (A) (A) (A)
                 (A) (A) (A) (A) (A) (A) (A) (A) (A) (A) (A) (A)
                 (A) (A) (A) (A) (A) (A) (A) (A) (A) (A) (A) (A)
                 (A) (A) (A) (A) (A) (A) (A)
 The electronic state is 1-A.
 Alpha  occ. eigenvalues -- -101.68793 -19.25543 -10.40038 -10.36779 -10.32226
 Alpha  occ. eigenvalues --  -10.31258 -10.31231 -10.30185 -10.30079 -10.30048
 Alpha  occ. eigenvalues --  -10.29685 -10.29205 -10.29009  -9.59536  -7.34903
 Alpha  occ. eigenvalues --   -7.33981  -7.33911  -1.14499  -0.97845  -0.96149
 Alpha  occ. eigenvalues --   -0.89929  -0.86026  -0.83819  -0.79555  -0.77587
 Alpha  occ. eigenvalues --   -0.72959  -0.70511  -0.62718  -0.61631  -0.60762
 Alpha  occ. eigenvalues --   -0.59596  -0.57495  -0.55475  -0.54845  -0.53431
 Alpha  occ. eigenvalues --   -0.52543  -0.49931  -0.49801  -0.48954  -0.48601
 Alpha  occ. eigenvalues --   -0.47408  -0.45888  -0.45352  -0.44686  -0.43063
 Alpha  occ. eigenvalues --   -0.42831  -0.41364  -0.40119  -0.38207  -0.34791
 Alpha  occ. eigenvalues --   -0.33874  -0.28290
 Alpha virt. eigenvalues --    0.02925   0.04844   0.07731   0.12607   0.13317
 Alpha virt. eigenvalues --    0.14513   0.15302   0.16456   0.17481   0.18563
 Alpha virt. eigenvalues --    0.19278   0.20642   0.21724   0.22246   0.22716
 Alpha virt. eigenvalues --    0.23745   0.24445   0.24788   0.26451   0.30017
 Alpha virt. eigenvalues --    0.30786   0.31246   0.33809   0.34663   0.36752
 Alpha virt. eigenvalues --    0.38917   0.40362   0.41233   0.42464   0.44772
 Alpha virt. eigenvalues --    0.47609   0.48133   0.50882   0.52183   0.52722
 Alpha virt. eigenvalues --    0.53421   0.54230   0.54925   0.55708   0.56894
 Alpha virt. eigenvalues --    0.58005   0.58535   0.60406   0.62881   0.63492
 Alpha virt. eigenvalues --    0.64847   0.66079   0.68552   0.69052   0.69816
 Alpha virt. eigenvalues --    0.70317   0.70820   0.71225   0.72448   0.73099
 Alpha virt. eigenvalues --    0.73720   0.73900   0.74714   0.74998   0.75888
 Alpha virt. eigenvalues --    0.76325   0.77147   0.77614   0.78332   0.78470
 Alpha virt. eigenvalues --    0.78687   0.79575   0.80029   0.80956   0.82460
 Alpha virt. eigenvalues --    0.83144   0.83342   0.84587   0.86750   0.87066
 Alpha virt. eigenvalues --    0.88572   0.89868   0.91025   0.91875   0.93072
 Alpha virt. eigenvalues --    0.95064   0.97073   0.98637   1.01985   1.04172
 Alpha virt. eigenvalues --    1.06601   1.08194   1.09327   1.10870   1.13694
 Alpha virt. eigenvalues --    1.14766   1.17526   1.18944   1.23665   1.24358
 Alpha virt. eigenvalues --    1.25030   1.26659   1.29878   1.33398   1.34375
 Alpha virt. eigenvalues --    1.34415   1.37711   1.41340   1.43944   1.46051
 Alpha virt. eigenvalues --    1.55229   1.58550   1.59910   1.60845   1.62044
 Alpha virt. eigenvalues --    1.62372   1.65664   1.66104   1.66661   1.69619
 Alpha virt. eigenvalues --    1.70838   1.73592   1.75472   1.77804   1.79286
 Alpha virt. eigenvalues --    1.80788   1.81433   1.82707   1.83052   1.84092
 Alpha virt. eigenvalues --    1.85128   1.85877   1.86647   1.87514   1.88327
 Alpha virt. eigenvalues --    1.89927   1.91038   1.91941   1.94069   1.94483
 Alpha virt. eigenvalues --    1.96328   1.97100   1.99816   2.01377   2.03651
 Alpha virt. eigenvalues --    2.05163   2.06439   2.07712   2.08851   2.10331
 Alpha virt. eigenvalues --    2.14458   2.15605   2.16624   2.17271   2.18743
 Alpha virt. eigenvalues --    2.21560   2.24216   2.25383   2.29172   2.30506
 Alpha virt. eigenvalues --    2.33342   2.34818   2.35789   2.36341   2.39046
 Alpha virt. eigenvalues --    2.41307   2.42949   2.44762   2.48091   2.48557
 Alpha virt. eigenvalues --    2.49446   2.53020   2.56219   2.57712   2.65209
 Alpha virt. eigenvalues --    2.66241   2.68956   2.70769   2.73321   2.74609
 Alpha virt. eigenvalues --    2.76435   2.78435   2.79048   2.79368   2.81904
 Alpha virt. eigenvalues --    2.82213   2.83683   2.87521   2.92065   2.95168
 Alpha virt. eigenvalues --    2.99507   3.01181   3.02049   3.05208   3.08601
 Alpha virt. eigenvalues --    3.11767   3.13249   3.20363   3.21976   3.25887
 Alpha virt. eigenvalues --    3.27061   3.47913   3.48609   3.70745
          Condensed to atoms (all electrons):
               1          2          3          4          5          6
     1  C    5.082926   0.003628  -0.096527  -0.001389   0.590573  -0.002215
     2  C    0.003628   4.720978  -0.006991   0.630748   0.002695  -0.002701
     3  C   -0.096527  -0.006991   5.193541  -0.004939  -0.006478   0.582293
     4  C   -0.001389   0.630748  -0.004939   5.105411  -0.001380  -0.000406
     5  C    0.590573   0.002695  -0.006478  -0.001380   4.963657   0.274230
     6  C   -0.002215  -0.002701   0.582293  -0.000406   0.274230   4.989678
     7  C    0.010392  -0.001939   0.335238   0.013167   0.009891  -0.060809
     8  H   -0.000613   0.000404  -0.015058  -0.002252   0.000690  -0.015223
     9  H    0.000460  -0.000039  -0.000994   0.000002  -0.000652   0.001628
    10  C    0.000509   0.007625  -0.048529  -0.168776  -0.000433   0.002706
    11  H   -0.000012  -0.000303   0.006406   0.011241   0.000012  -0.000149
    12  H   -0.000013  -0.000360  -0.014646   0.002954   0.000074  -0.000151
    13  C    0.000079  -0.031447  -0.006792   0.269573   0.000024   0.001194
    14  O    0.000001   0.000266  -0.000079  -0.080299  -0.000000  -0.000000
    15  H   -0.000017   0.003493   0.004522   0.370447  -0.000877   0.002600
    16  H    0.000303   0.409459  -0.000199  -0.021241   0.001182  -0.000239
    17  C    0.334769  -0.000089   0.333513   0.003600  -0.091807  -0.109202
    18  H    0.003055   0.000154  -0.001010   0.000157   0.000366   0.000609
    19  H   -0.008170  -0.002559   0.001286  -0.009080   0.001284   0.003287
    20  Cl   0.000390   0.286308   0.000373  -0.086033  -0.000121   0.000069
    21  C    0.403544  -0.000141   0.009071   0.000020  -0.063929   0.010142
    22  H   -0.015868  -0.000548   0.000475   0.000052   0.001570  -0.000372
    23  H   -0.010486  -0.000004  -0.000598   0.000001  -0.012165   0.000429
    24  H   -0.015140   0.000026   0.000581  -0.000005   0.002803  -0.000537
    25  H    0.007431   0.000008  -0.065529  -0.000264  -0.053481   0.442427
    26  H   -0.064378  -0.000019   0.007763   0.000006   0.443957  -0.056677
               7          8          9         10         11         12
     1  C    0.010392  -0.000613   0.000460   0.000509  -0.000012  -0.000013
     2  C   -0.001939   0.000404  -0.000039   0.007625  -0.000303  -0.000360
     3  C    0.335238  -0.015058  -0.000994  -0.048529   0.006406  -0.014646
     4  C    0.013167  -0.002252   0.000002  -0.168776   0.011241   0.002954
     5  C    0.009891   0.000690  -0.000652  -0.000433   0.000012   0.000074
     6  C   -0.060809  -0.015223   0.001628   0.002706  -0.000149  -0.000151
     7  C    4.714024   0.380468   0.341859   0.307994  -0.009177  -0.007440
     8  H    0.380468   0.662660  -0.023258  -0.025851  -0.005178   0.006488
     9  H    0.341859  -0.023258   0.648849  -0.006526  -0.005942  -0.008272
    10  C    0.307994  -0.025851  -0.006526   5.091806   0.340913   0.350462
    11  H   -0.009177  -0.005178  -0.005942   0.340913   0.606555  -0.006035
    12  H   -0.007440   0.006488  -0.008272   0.350462  -0.006035   0.592364
    13  C   -0.035932  -0.007899   0.006605   0.295023  -0.008018  -0.004601
    14  O    0.004660   0.000155  -0.000163  -0.088135   0.007654   0.000915
    15  H    0.000333   0.000408   0.000160  -0.002673  -0.000285   0.000100
    16  H    0.000096   0.000004  -0.000003  -0.000400   0.000009   0.000024
    17  C   -0.079837   0.009920  -0.005784  -0.000307   0.000228   0.006712
    18  H    0.004149  -0.000269   0.001155  -0.001973  -0.000048   0.000645
    19  H   -0.010295  -0.000162   0.000148   0.006376  -0.000087   0.001215
    20  Cl   0.000014  -0.000003   0.000001  -0.002283  -0.000003   0.000849
    21  C   -0.000224   0.000006   0.000010   0.000000  -0.000000   0.000010
    22  H    0.000005  -0.000001   0.000003  -0.000011   0.000000  -0.000012
    23  H    0.000007  -0.000000  -0.000000   0.000000   0.000000  -0.000000
    24  H    0.000014   0.000000  -0.000007   0.000002  -0.000000   0.000003
    25  H   -0.012039   0.004817   0.000308   0.000141  -0.000008   0.000001
    26  H   -0.000312   0.000009   0.000006   0.000006  -0.000000  -0.000000
              13         14         15         16         17         18
     1  C    0.000079   0.000001  -0.000017   0.000303   0.334769   0.003055
     2  C   -0.031447   0.000266   0.003493   0.409459  -0.000089   0.000154
     3  C   -0.006792  -0.000079   0.004522  -0.000199   0.333513  -0.001010
     4  C    0.269573  -0.080299   0.370447  -0.021241   0.003600   0.000157
     5  C    0.000024  -0.000000  -0.000877   0.001182  -0.091807   0.000366
     6  C    0.001194  -0.000000   0.002600  -0.000239  -0.109202   0.000609
     7  C   -0.035932   0.004660   0.000333   0.000096  -0.079837   0.004149
     8  H   -0.007899   0.000155   0.000408   0.000004   0.009920  -0.000269
     9  H    0.006605  -0.000163   0.000160  -0.000003  -0.005784   0.001155
    10  C    0.295023  -0.088135  -0.002673  -0.000400  -0.000307  -0.001973
    11  H   -0.008018   0.007654  -0.000285   0.000009   0.000228  -0.000048
    12  H   -0.004601   0.000915   0.000100   0.000024   0.006712   0.000645
    13  C    4.767545   0.695034  -0.022599   0.006805  -0.004662   0.000266
    14  O    0.695034   7.684204   0.001258  -0.000144   0.000017  -0.000001
    15  H   -0.022599   0.001258   0.568590  -0.010880  -0.000280   0.000001
    16  H    0.006805  -0.000144  -0.010880   0.552847  -0.000185   0.000008
    17  C   -0.004662   0.000017  -0.000280  -0.000185   4.857555   0.333062
    18  H    0.000266  -0.000001   0.000001   0.000008   0.333062   0.610566
    19  H    0.000325  -0.000132   0.000043   0.000182   0.331251  -0.015230
    20  Cl   0.008392  -0.000850   0.003677  -0.037238  -0.006493   0.000014
    21  C   -0.000001  -0.000000   0.000001  -0.000001  -0.066862  -0.000771
    22  H    0.000001   0.000000   0.000000  -0.000104  -0.005866  -0.000082
    23  H   -0.000000   0.000000  -0.000000   0.000002   0.008810  -0.000240
    24  H    0.000000   0.000000  -0.000000   0.000002  -0.005643   0.001956
    25  H   -0.000008   0.000000   0.000668  -0.000006   0.014733  -0.000386
    26  H    0.000001  -0.000000  -0.000003   0.000016   0.015158  -0.000379
              19         20         21         22         23         24
     1  C   -0.008170   0.000390   0.403544  -0.015868  -0.010486  -0.015140
     2  C   -0.002559   0.286308  -0.000141  -0.000548  -0.000004   0.000026
     3  C    0.001286   0.000373   0.009071   0.000475  -0.000598   0.000581
     4  C   -0.009080  -0.086033   0.000020   0.000052   0.000001  -0.000005
     5  C    0.001284  -0.000121  -0.063929   0.001570  -0.012165   0.002803
     6  C    0.003287   0.000069   0.010142  -0.000372   0.000429  -0.000537
     7  C   -0.010295   0.000014  -0.000224   0.000005   0.000007   0.000014
     8  H   -0.000162  -0.000003   0.000006  -0.000001  -0.000000   0.000000
     9  H    0.000148   0.000001   0.000010   0.000003  -0.000000  -0.000007
    10  C    0.006376  -0.002283   0.000000  -0.000011   0.000000   0.000002
    11  H   -0.000087  -0.000003  -0.000000   0.000000   0.000000  -0.000000
    12  H    0.001215   0.000849   0.000010  -0.000012  -0.000000   0.000003
    13  C    0.000325   0.008392  -0.000001   0.000001  -0.000000   0.000000
    14  O   -0.000132  -0.000850  -0.000000   0.000000   0.000000   0.000000
    15  H    0.000043   0.003677   0.000001   0.000000  -0.000000  -0.000000
    16  H    0.000182  -0.037238  -0.000001  -0.000104   0.000002   0.000002
    17  C    0.331251  -0.006493  -0.066862  -0.005866   0.008810  -0.005643
    18  H   -0.015230   0.000014  -0.000771  -0.000082  -0.000240   0.001956
    19  H    0.639810   0.020324  -0.000667   0.003124  -0.000241  -0.000294
    20  Cl   0.020324  16.912634  -0.000886   0.003268   0.000003  -0.000001
    21  C   -0.000667  -0.000886   4.520547   0.380059   0.386428   0.383119
    22  H    0.003124   0.003268   0.380059   0.631309  -0.019743  -0.023134
    23  H   -0.000241   0.000003   0.386428  -0.019743   0.628554  -0.020323
    24  H   -0.000294  -0.000001   0.383119  -0.023134  -0.020323   0.631360
    25  H   -0.000337   0.000001  -0.000293   0.000007   0.000006   0.000005
    26  H   -0.000373  -0.000000  -0.010759   0.000136   0.004509   0.000093
              25         26
     1  C    0.007431  -0.064378
     2  C    0.000008  -0.000019
     3  C   -0.065529   0.007763
     4  C   -0.000264   0.000006
     5  C   -0.053481   0.443957
     6  C    0.442427  -0.056677
     7  C   -0.012039  -0.000312
     8  H    0.004817   0.000009
     9  H    0.000308   0.000006
    10  C    0.000141   0.000006
    11  H   -0.000008  -0.000000
    12  H    0.000001  -0.000000
    13  C   -0.000008   0.000001
    14  O    0.000000  -0.000000
    15  H    0.000668  -0.000003
    16  H   -0.000006   0.000016
    17  C    0.014733   0.015158
    18  H   -0.000386  -0.000379
    19  H   -0.000337  -0.000373
    20  Cl   0.000001  -0.000000
    21  C   -0.000293  -0.010759
    22  H    0.000007   0.000136
    23  H    0.000006   0.004509
    24  H    0.000005   0.000093
    25  H    0.659683  -0.003587
    26  H   -0.003587   0.659194
 Mulliken charges:
               1
     1  C   -0.223231
     2  C   -0.018654
     3  C   -0.206694
     4  C   -0.031316
     5  C   -0.061683
     6  C   -0.062611
     7  C    0.095694
     8  H    0.029738
     9  H    0.050446
    10  C   -0.057664
    11  H    0.062227
    12  H    0.078713
    13  C    0.071092
    14  O   -0.224360
    15  H    0.081313
    16  H    0.099702
    17  C    0.127689
    18  H    0.064227
    19  H    0.038969
    20  Cl  -0.102408
    21  C    0.051575
    22  H    0.045731
    23  H    0.035052
    24  H    0.045119
    25  H    0.005702
    26  H    0.005633
 Sum of Mulliken charges =  -0.00000
 Mulliken charges with hydrogens summed into heavy atoms:
               1
     1  C   -0.223231
     2  C    0.081048
     3  C   -0.206694
     4  C    0.049997
     5  C   -0.056051
     6  C   -0.056909
     7  C    0.175878
    10  C    0.083276
    13  C    0.071092
    14  O   -0.224360
    17  C    0.230884
    20  Cl  -0.102408
    21  C    0.177477
 APT charges:
               1
     1  C   -0.474540
     2  C   -0.508297
     3  C   -0.466130
     4  C   -0.257403
     5  C   -0.595224
     6  C   -0.403373
     7  C   -0.645592
     8  H    0.377298
     9  H    0.527309
    10  C   -0.619785
    11  H    0.643293
    12  H    0.161910
    13  C   -0.937075
    14  O    0.654277
    15  H    0.343131
    16  H    0.449769
    17  C   -0.364058
    18  H    0.477712
    19  H    0.015759
    20  Cl   0.046257
    21  C   -0.773489
    22  H    0.080461
    23  H    0.606905
    24  H    0.509802
    25  H    0.503302
    26  H    0.647780
 Sum of APT charges =  -0.00000
 APT charges with hydrogens summed into heavy atoms:
               1
     1  C   -0.474540
     2  C   -0.058527
     3  C   -0.466130
     4  C    0.085728
     5  C    0.052556
     6  C    0.099929
     7  C    0.259015
    10  C    0.185418
    13  C   -0.937075
    14  O    0.654277
    17  C    0.129414
    20  Cl   0.046257
    21  C    0.423679
 Electronic spatial extent (au):  <R**2>=           2795.0933
 Charge=             -0.0000 electrons
 Dipole moment (field-independent basis, Debye):
    X=             -3.0648    Y=             -1.3979    Z=              0.4669  Tot=              3.4007
 Quadrupole moment (field-independent basis, Debye-Ang):
   XX=            -98.8802   YY=            -80.9132   ZZ=            -77.0217
   XY=             -5.4540   XZ=              1.0153   YZ=              0.5639
 Traceless Quadrupole moment (field-independent basis, Debye-Ang):
   XX=            -13.2752   YY=              4.6918   ZZ=              8.5833
   XY=             -5.4540   XZ=              1.0153   YZ=              0.5639
 Octapole moment (field-independent basis, Debye-Ang**2):
  XXX=            -40.7805  YYY=              2.0190  ZZZ=              0.2178  XYY=             11.4384
  XXY=              9.4927  XXZ=              2.7238  XZZ=              2.1628  YZZ=              1.3026
  YYZ=             -0.1907  XYZ=              0.4121
 Hexadecapole moment (field-independent basis, Debye-Ang**3):
 XXXX=          -2235.1855 YYYY=          -1237.4580 ZZZZ=           -396.6191 XXXY=            -27.5305
 XXXZ=             -7.5000 YYYX=            -15.7840 YYYZ=             -1.4669 ZZZX=             -5.8383
 ZZZY=             -0.8365 XXYY=           -546.3422 XXZZ=           -388.6522 YYZZ=           -256.6175
 XXYZ=             -6.5110 YYXZ=             -7.6862 ZZXY=              4.6920
 N-N= 8.733217994072D+02 E-N=-4.003624377692D+03  KE= 9.552501388359D+02
  Exact polarizability:       0.000       0.000       0.000       0.000       0.000       0.000
 Approx polarizability:     131.985      -9.309     144.497     -16.281     -15.208     139.024
   1 Symmetry operations used in ECPInt.
 ECPInt:  NShTT=    7140 NPrTT=   26096 LenC2=    6946 LenP2D=   19115.
 LDataN:  DoStor=T MaxTD1= 6 Len=  172
 D2PCM: PCM CHGder 2nd derivatives, FixD1E=F FixD2E=F DoIter=F DoCFld=F I1PDM=0
 Calling FoFJK, ICntrl=    100127 FMM=F ISym2X=0 I1Cent= 0 IOpClX= 0 NMat=1 NMatS=1 NMatT=0.
 ***** Axes restored to original set *****
 -------------------------------------------------------------------
 Center     Atomic                   Forces (Hartrees/Bohr)
 Number     Number              X              Y              Z
 -------------------------------------------------------------------
      1        6          -0.000001989    0.000001154    0.000001595
      2        6           0.000002096   -0.000000311   -0.000008121
      3        6           0.000007158    0.000009621    0.000004440
      4        6           0.000001491   -0.000004111   -0.000002616
      5        6           0.000004253    0.000002854    0.000006699
      6        6           0.000010054   -0.000002600    0.000002023
      7        6          -0.000000812   -0.000011058   -0.000001505
      8        1          -0.000009188   -0.000001530   -0.000001662
      9        1          -0.000000489    0.000002019   -0.000000128
     10        6          -0.000005304   -0.000020908   -0.000011261
     11        1          -0.000002677    0.000005421   -0.000000494
     12        1          -0.000005022   -0.000003646    0.000001654
     13        6          -0.000004887    0.000005412    0.000000490
     14        8           0.000000598    0.000001252   -0.000001783
     15        1          -0.000012270    0.000002923    0.000000197
     16        1           0.000000725   -0.000000465   -0.000000387
     17        6          -0.000001534    0.000001991    0.000001182
     18        1          -0.000002899   -0.000002294   -0.000000213
     19        1           0.000002922    0.000001609   -0.000001246
     20       17          -0.000000727    0.000001605   -0.000004752
     21        6           0.000007064    0.000000822    0.000002992
     22        1           0.000004138    0.000001256    0.000001101
     23        1           0.000003423    0.000003321    0.000002434
     24        1           0.000005051    0.000003369    0.000001845
     25        1          -0.000001782   -0.000000032    0.000003606
     26        1           0.000000608    0.000002327    0.000003908
 -------------------------------------------------------------------
 Cartesian Forces:  Max     0.000020908 RMS     0.000004809
 FormGI is forming the generalized inverse of G from B-inverse, IUseBI=4.

 GradGradGradGradGradGradGradGradGradGradGradGradGradGradGradGradGradGrad
 Berny optimization.
 Internal  Forces:  Max     0.000051787 RMS     0.000008609
 Search for a saddle point.
 Step number   1 out of a maximum of   50
 All quantities printed in internal units (Hartrees-Bohrs-Radians)
 Swapping is turned off.
 Second derivative matrix not updated -- analytic derivatives used.
 ITU=  0
     Eigenvalues ---   -0.00082   0.00178   0.00335   0.00534   0.00846
     Eigenvalues ---    0.01089   0.01149   0.01426   0.01741   0.02089
     Eigenvalues ---    0.02228   0.02901   0.03607   0.03665   0.04002
     Eigenvalues ---    0.04296   0.04398   0.04595   0.05004   0.05208
     Eigenvalues ---    0.05541   0.05647   0.05827   0.06743   0.07856
     Eigenvalues ---    0.08071   0.08179   0.09880   0.10341   0.10749
     Eigenvalues ---    0.10908   0.11040   0.12067   0.12467   0.13307
     Eigenvalues ---    0.14335   0.14964   0.16704   0.17532   0.18561
     Eigenvalues ---    0.19247   0.20003   0.21033   0.21897   0.22371
     Eigenvalues ---    0.26204   0.26417   0.27573   0.28775   0.29627
     Eigenvalues ---    0.31267   0.32580   0.33045   0.33302   0.33521
     Eigenvalues ---    0.33648   0.33749   0.33867   0.34113   0.34519
     Eigenvalues ---    0.34555   0.34857   0.36310   0.36373   0.36795
     Eigenvalues ---    0.37055   0.37189   0.52073   0.52724   0.57720
     Eigenvalues ---    0.66111   0.91234
 Eigenvectors required to have negative eigenvalues:
                          D59       D55       D58       D54       D40
   1                   -0.31505  -0.31202  -0.31076  -0.30773   0.30431
                          D39       D57       D56       D38       D37
   1                    0.29968  -0.29937  -0.29508   0.27290   0.26828
 RFO step:  Lambda0=1.986939826D-08 Lambda=-7.44956108D-08.
 Linear search not attempted -- option 19 set.
 Iteration  1 RMS(Cart)=  0.00113378 RMS(Int)=  0.00000037
 Iteration  2 RMS(Cart)=  0.00000090 RMS(Int)=  0.00000000
 Variable       Old X    -DE/DX   Delta X   Delta X   Delta X     New X
                                 (Linear)    (Quad)   (Total)
    R1        2.55425  -0.00000   0.00000   0.00000   0.00000   2.55426
    R2        2.84329   0.00000   0.00000   0.00000   0.00000   2.84329
    R3        2.82195   0.00000   0.00000  -0.00000  -0.00000   2.82194
    R4        2.51335  -0.00001   0.00000  -0.00002  -0.00002   2.51332
    R5        2.06141   0.00000   0.00000   0.00000   0.00000   2.06141
    R6        3.28640  -0.00000   0.00000   0.00005   0.00005   3.28645
    R7        2.55274  -0.00000   0.00000   0.00000   0.00000   2.55275
    R8        2.83431  -0.00000   0.00000  -0.00001  -0.00001   2.83430
    R9        2.84619   0.00000   0.00000  -0.00000  -0.00000   2.84619
   R10        2.84151  -0.00000   0.00000   0.00004   0.00004   2.84155
   R11        2.06726   0.00000   0.00000  -0.00000  -0.00000   2.06725
   R12        2.76768   0.00000   0.00000  -0.00001  -0.00001   2.76767
   R13        2.06308  -0.00000   0.00000  -0.00000  -0.00000   2.06308
   R14        2.06391  -0.00000   0.00000   0.00000   0.00000   2.06391
   R15        2.08212   0.00000   0.00000  -0.00001  -0.00001   2.08212
   R16        2.08594   0.00000   0.00000  -0.00000  -0.00000   2.08593
   R17        2.89690  -0.00002   0.00000   0.00003   0.00003   2.89693
   R18        2.07915  -0.00000   0.00000  -0.00001  -0.00001   2.07914
   R19        2.08807  -0.00000   0.00000   0.00002   0.00002   2.08809
   R20        2.87317  -0.00001   0.00000  -0.00004  -0.00004   2.87313
   R21        2.28283   0.00000   0.00000  -0.00000  -0.00000   2.28283
   R22        2.08994   0.00000   0.00000   0.00000   0.00000   2.08994
   R23        2.08633   0.00000   0.00000  -0.00001  -0.00001   2.08632
   R24        2.08376  -0.00000   0.00000   0.00000   0.00000   2.08377
   R25        2.07687   0.00000   0.00000  -0.00000  -0.00000   2.07687
   R26        2.08309   0.00000   0.00000  -0.00001  -0.00001   2.08308
    A1        1.88870  -0.00000   0.00000   0.00000   0.00000   1.88870
    A2        2.24636   0.00000   0.00000   0.00000   0.00000   2.24636
    A3        2.14807   0.00000   0.00000  -0.00001  -0.00001   2.14807
    A4        2.14720  -0.00000   0.00000   0.00005   0.00005   2.14724
    A5        2.15818  -0.00000   0.00000  -0.00006  -0.00006   2.15811
    A6        1.97659   0.00000   0.00000   0.00002   0.00002   1.97660
    A7        2.23167  -0.00000   0.00000  -0.00001  -0.00001   2.23165
    A8        1.88714   0.00000   0.00000  -0.00000  -0.00000   1.88713
    A9        2.16417   0.00000   0.00000   0.00001   0.00001   2.16418
   A10        2.19239   0.00000   0.00000   0.00000   0.00000   2.19239
   A11        2.04591  -0.00000   0.00000   0.00002   0.00002   2.04593
   A12        2.04473   0.00000   0.00000  -0.00003  -0.00003   2.04470
   A13        1.91366   0.00000   0.00000  -0.00000  -0.00000   1.91365
   A14        2.19113  -0.00000   0.00000  -0.00000  -0.00000   2.19113
   A15        2.17833  -0.00000   0.00000   0.00001   0.00001   2.17833
   A16        1.91585  -0.00000   0.00000   0.00000   0.00000   1.91585
   A17        2.18925   0.00000   0.00000  -0.00001  -0.00001   2.18924
   A18        2.17761   0.00000   0.00000   0.00000   0.00000   2.17761
   A19        1.90739   0.00001   0.00000   0.00003   0.00003   1.90743
   A20        1.91366   0.00002   0.00000   0.00007   0.00007   1.91373
   A21        2.00024  -0.00005   0.00000  -0.00017  -0.00017   2.00007
   A22        1.84746  -0.00001   0.00000   0.00005   0.00005   1.84750
   A23        1.92464   0.00002   0.00000   0.00008   0.00008   1.92472
   A24        1.86393   0.00001   0.00000  -0.00005  -0.00005   1.86388
   A25        1.93876   0.00002   0.00000   0.00017   0.00017   1.93893
   A26        1.91276   0.00000   0.00000  -0.00017  -0.00017   1.91259
   A27        2.06938  -0.00004   0.00000  -0.00001  -0.00001   2.06938
   A28        1.83876  -0.00001   0.00000   0.00002   0.00002   1.83878
   A29        1.86098   0.00002   0.00000   0.00007   0.00007   1.86105
   A30        1.82701   0.00001   0.00000  -0.00009  -0.00009   1.82692
   A31        2.07236  -0.00004   0.00000  -0.00003  -0.00003   2.07232
   A32        2.10433   0.00002   0.00000  -0.00004  -0.00004   2.10429
   A33        2.10629   0.00002   0.00000   0.00007   0.00007   2.10636
   A34        1.81885   0.00000   0.00000  -0.00001  -0.00001   1.81884
   A35        1.94356   0.00000   0.00000  -0.00010  -0.00010   1.94346
   A36        1.93971  -0.00000   0.00000   0.00008   0.00008   1.93979
   A37        1.94547  -0.00000   0.00000  -0.00011  -0.00011   1.94536
   A38        1.96940  -0.00000   0.00000   0.00009   0.00009   1.96949
   A39        1.84945   0.00000   0.00000   0.00003   0.00003   1.84948
   A40        1.93370   0.00000   0.00000  -0.00003  -0.00003   1.93366
   A41        1.94371   0.00000   0.00000   0.00001   0.00001   1.94372
   A42        1.94496   0.00000   0.00000   0.00002   0.00002   1.94498
   A43        1.88743  -0.00000   0.00000  -0.00000  -0.00000   1.88743
   A44        1.86436  -0.00000   0.00000  -0.00001  -0.00001   1.86435
   A45        1.88668   0.00000   0.00000   0.00002   0.00002   1.88670
    D1        0.01642   0.00000   0.00000   0.00011   0.00011   0.01653
    D2       -3.13717   0.00000   0.00000   0.00011   0.00011  -3.13706
    D3       -3.11442   0.00000   0.00000   0.00018   0.00018  -3.11424
    D4        0.01518   0.00000   0.00000   0.00019   0.00019   0.01536
    D5       -0.02914  -0.00000   0.00000  -0.00018  -0.00018  -0.02932
    D6        2.07034  -0.00000   0.00000  -0.00036  -0.00036   2.06998
    D7       -2.15521  -0.00000   0.00000  -0.00033  -0.00033  -2.15554
    D8        3.10244  -0.00000   0.00000  -0.00025  -0.00025   3.10219
    D9       -1.08127  -0.00000   0.00000  -0.00043  -0.00043  -1.08170
   D10        0.97636  -0.00000   0.00000  -0.00040  -0.00040   0.97597
   D11        2.08249  -0.00000   0.00000  -0.00087  -0.00087   2.08161
   D12       -0.01908  -0.00000   0.00000  -0.00085  -0.00085  -0.01993
   D13       -2.12738  -0.00000   0.00000  -0.00089  -0.00089  -2.12828
   D14       -1.04691  -0.00000   0.00000  -0.00079  -0.00079  -1.04770
   D15        3.13471  -0.00000   0.00000  -0.00077  -0.00077   3.13394
   D16        1.02640  -0.00000   0.00000  -0.00081  -0.00081   1.02559
   D17       -3.13610  -0.00000   0.00000  -0.00000  -0.00000  -3.13611
   D18        0.02542   0.00000   0.00000   0.00008   0.00008   0.02550
   D19        0.06230   0.00000   0.00000   0.00003   0.00003   0.06233
   D20       -3.05936   0.00001   0.00000   0.00011   0.00011  -3.05925
   D21        3.09641  -0.00000   0.00000  -0.00039  -0.00039   3.09602
   D22       -0.01317  -0.00000   0.00000  -0.00030  -0.00030  -0.01347
   D23       -0.02341   0.00000   0.00000  -0.00012  -0.00012  -0.02354
   D24       -3.13300   0.00000   0.00000  -0.00003  -0.00003  -3.13303
   D25       -0.18428   0.00000   0.00000   0.00127   0.00127  -0.18301
   D26        1.83342   0.00001   0.00000   0.00138   0.00138   1.83480
   D27       -2.35430   0.00001   0.00000   0.00125   0.00125  -2.35305
   D28        2.93236  -0.00000   0.00000   0.00096   0.00096   2.93333
   D29       -1.33312   0.00001   0.00000   0.00107   0.00107  -1.33205
   D30        0.76233   0.00000   0.00000   0.00095   0.00095   0.76328
   D31        0.03191   0.00000   0.00000   0.00018   0.00018   0.03209
   D32       -2.06629   0.00000   0.00000   0.00036   0.00036  -2.06593
   D33        2.13823  -0.00000   0.00000   0.00033   0.00033   2.13856
   D34       -3.08895   0.00000   0.00000   0.00044   0.00044  -3.08852
   D35        1.09603   0.00000   0.00000   0.00062   0.00062   1.09665
   D36       -0.98264   0.00000   0.00000   0.00059   0.00059  -0.98205
   D37       -1.95006   0.00000   0.00000   0.00131   0.00131  -1.94876
   D38        1.16971   0.00000   0.00000   0.00124   0.00124   1.17096
   D39        1.17161  -0.00000   0.00000   0.00122   0.00122   1.17283
   D40       -1.99180  -0.00001   0.00000   0.00116   0.00116  -1.99064
   D41        0.00458  -0.00000   0.00000   0.00001   0.00001   0.00458
   D42        3.11442  -0.00000   0.00000  -0.00008  -0.00008   3.11434
   D43       -3.12513  -0.00000   0.00000   0.00001   0.00001  -3.12512
   D44       -0.01529  -0.00000   0.00000  -0.00008  -0.00008  -0.01537
   D45       -3.06153  -0.00000   0.00000   0.00017   0.00017  -3.06136
   D46       -1.03689   0.00000   0.00000   0.00019   0.00019  -1.03670
   D47        1.05760  -0.00001   0.00000  -0.00008  -0.00008   1.05752
   D48        1.06080   0.00000   0.00000   0.00018   0.00018   1.06098
   D49        3.08544   0.00001   0.00000   0.00020   0.00020   3.08564
   D50       -1.10326  -0.00000   0.00000  -0.00007  -0.00007  -1.10333
   D51       -0.93866  -0.00000   0.00000   0.00012   0.00012  -0.93854
   D52        1.08598   0.00000   0.00000   0.00014   0.00014   1.08612
   D53       -3.10271  -0.00001   0.00000  -0.00014  -0.00014  -3.10285
   D54       -0.35801   0.00001   0.00000  -0.00140  -0.00140  -0.35942
   D55        2.80542   0.00001   0.00000  -0.00134  -0.00134   2.80408
   D56       -2.55991  -0.00000   0.00000  -0.00170  -0.00170  -2.56161
   D57        0.60352  -0.00000   0.00000  -0.00163  -0.00163   0.60189
   D58        1.78006  -0.00001   0.00000  -0.00171  -0.00171   1.77835
   D59       -1.33969  -0.00000   0.00000  -0.00165  -0.00165  -1.34134
         Item               Value     Threshold  Converged?
 Maximum Force            0.000052     0.000450     YES
 RMS     Force            0.000009     0.000300     YES
 Maximum Displacement     0.005200     0.001800     NO 
 RMS     Displacement     0.001134     0.001200     YES
 Predicted change in Energy=-2.731287D-08
 GradGradGradGradGradGradGradGradGradGradGradGradGradGradGradGradGradGrad

                          Input orientation:                          
 ---------------------------------------------------------------------
 Center     Atomic      Atomic             Coordinates (Angstroms)
 Number     Number       Type             X           Y           Z
 ---------------------------------------------------------------------
      1          6           0       -1.676466   -0.602079    3.623034
      2          6           0        2.028600   -1.528840    3.389858
      3          6           0       -0.904265   -1.144201    1.442481
      4          6           0        1.896673   -1.802607    2.095050
      5          6           0       -1.962315   -1.893970    3.346853
      6          6           0       -1.489107   -2.226141    2.001208
      7          6           0       -0.236094   -1.047608    0.103169
      8          1           0       -0.115495   -2.058923   -0.317163
      9          1           0       -0.891211   -0.504865   -0.600172
     10          6           0        1.109018   -0.312331    0.112735
     11          1           0        1.507997   -0.203451   -0.906810
     12          1           0        0.964713    0.719015    0.482138
     13          6           0        2.237483   -0.872045    0.964137
     14          8           0        3.384374   -0.557828    0.751483
     15          1           0        1.488636   -2.782314    1.829734
     16          1           0        1.772289   -2.239330    4.176918
     17          6           0       -0.999746   -0.002628    2.420310
     18          1           0       -1.586726    0.837741    2.005145
     19          1           0       -0.014023    0.417540    2.686200
     20         17           0        2.545691    0.015232    4.000582
     21          6           0       -1.938391    0.164745    4.877365
     22          1           0       -0.995355    0.529622    5.317199
     23          1           0       -2.448016   -0.456305    5.627334
     24          1           0       -2.564350    1.051324    4.684328
     25          1           0       -1.571104   -3.211720    1.537795
     26          1           0       -2.458907   -2.592630    4.022989
 ---------------------------------------------------------------------
                    Distance matrix (angstroms):
                    1          2          3          4          5
     1  C    0.000000
     2  C    3.826326   0.000000
     3  C    2.375922   3.541457   0.000000
     4  C    4.067348   1.329992   2.950355   0.000000
     5  C    1.351654   4.007814   2.303965   4.057973   0.000000
     6  C    2.302824   3.845626   1.350855   3.413457   1.464590
     7  C    3.829180   4.020292   1.499846   3.014351   3.770630
     8  H    4.481538   4.315106   2.134296   3.151712   4.106454
     9  H    4.296690   5.049174   2.140410   4.089089   4.319246
    10  C    4.490554   3.614562   2.552164   2.602095   4.732250
    11  H    5.551504   4.526482   3.496167   3.423380   5.744090
    12  H    4.311188   3.826166   2.808364   3.135062   4.858166
    13  C    4.739368   2.521732   3.189586   1.503682   4.935581
    14  O    5.818922   3.121218   4.383347   2.359640   6.091658
    15  H    4.241134   2.072859   2.925637   1.093944   3.872966
    16  H    3.857627   1.090851   3.979999   2.130815   3.841295
    17  C    1.504605   3.527070   1.506139   3.425633   2.315641
    18  H    2.167649   4.537479   2.170354   4.371909   3.066511
    19  H    2.163561   2.907893   2.185956   2.988189   3.094411
    20  Cl   4.283716   1.739116   4.448635   2.712345   4.939082
    21  C    1.493309   4.562667   3.818532   5.130250   2.565414
    22  H    2.148221   4.134757   4.221779   4.917861   3.269720
    23  H    2.152616   5.118274   4.513243   5.758982   2.739230
    24  H    2.156021   5.424767   4.252739   5.894914   3.290295
    25  H    3.342088   4.384073   2.174487   3.784390   2.272048
    26  H    2.175884   4.655129   3.342736   4.828267   1.091737
                    6          7          8          9         10
     6  C    0.000000
     7  C    2.561549   0.000000
     8  H    2.699929   1.101808   0.000000
     9  H    3.176075   1.103828   1.759808   0.000000
    10  C    3.738884   1.532988   2.175966   2.132187   0.000000
    11  H    4.640094   2.185066   2.534992   2.437432   1.100232
    12  H    4.123439   2.169450   3.085883   2.472596   1.104970
    13  C    4.098361   2.625009   2.930344   3.517188   1.520394
    14  O    5.300556   3.710523   3.955297   4.484462   2.376028
    15  H    3.034087   2.994149   2.775914   4.093274   3.031998
    16  H    3.920534   4.695661   4.877811   5.737873   4.546519
    17  C    2.314979   2.654108   3.536101   3.063876   3.141291
    18  H    3.065439   2.999376   3.993531   3.012309   3.488684
    19  H    3.103890   2.977923   3.894016   3.524278   2.901148
    20  Cl   5.029994   4.904873   5.479685   5.766258   4.157725
    21  C    3.767024   5.211580   5.937236   5.616794   5.675915
    22  H    4.339794   5.500021   6.262647   6.008018   5.676594
    23  H    4.147362   5.979852   6.583774   6.419332   6.563842
    24  H    4.370018   5.550974   6.378514   5.757349   6.021018
    25  H    1.092173   2.919552   2.624616   3.515711   4.197655
    26  H    2.272097   4.763715   4.961184   5.309431   5.763675
                   11         12         13         14         15
    11  H    0.000000
    12  H    1.753647   0.000000
    13  C    2.116509   2.093738   0.000000
    14  O    2.529092   2.749115   1.208020   0.000000
    15  H    3.760264   3.788115   2.226916   3.115250   0.000000
    16  H    5.482603   4.801602   3.522475   4.142447   2.425812
    17  C    4.171191   2.852434   3.654583   4.723742   3.777232
    18  H    4.375028   2.973800   4.316438   5.313295   4.753253
    19  H    3.951190   2.430371   3.114131   4.030332   3.637387
    20  Cl   5.020670   3.921001   3.178403   3.404178   3.695431
    21  C    6.743133   5.296532   5.816030   6.773244   5.451397
    22  H    6.748514   5.220684   5.600451   6.419527   5.413090
    23  H    7.642578   6.284993   6.623605   7.602696   5.943847
    24  H    7.029886   5.497556   6.371560   7.310537   6.266753
    25  H    4.950418   4.795358   4.506495   5.676107   3.103487
    26  H    6.763684   5.935132   5.862855   6.999078   4.519895
                   16         17         18         19         20
    16  H    0.000000
    17  C    3.971484   0.000000
    18  H    5.046577   1.105951   0.000000
    19  H    3.531587   1.104032   1.764596   0.000000
    20  Cl   2.390041   3.881713   4.662098   2.905441   0.000000
    21  C    4.476533   2.635562   2.970899   2.927166   4.571443
    22  H    4.077645   2.945381   3.378514   2.810289   3.812752
    23  H    4.805607   3.548001   3.941653   3.916400   5.273118
    24  H    5.467386   2.946961   2.859964   3.301267   5.258661
    25  H    4.369072   3.376915   4.076370   4.112768   5.781569
    26  H    4.248710   3.377253   4.074290   4.101900   5.643354
                   21         22         23         24         25
    21  C    0.000000
    22  H    1.102681   0.000000
    23  H    1.099033   1.782824   0.000000
    24  H    1.102320   1.770436   1.782060   0.000000
    25  H    4.763207   5.349114   5.008554   5.390803   0.000000
    26  H    2.933260   3.683126   2.671689   3.704981   2.710656
                   26
    26  H    0.000000
 Stoichiometry    C11H13ClO
 Framework group  C1[X(C11H13ClO)]
 Deg. of freedom    72
 Full point group                 C1      NOp   1
 Largest Abelian subgroup         C1      NOp   1
 Largest concise Abelian subgroup C1      NOp   1
                         Standard orientation:                         
 ---------------------------------------------------------------------
 Center     Atomic      Atomic             Coordinates (Angstroms)
 Number     Number       Type             X           Y           Z
 ---------------------------------------------------------------------
      1          6           0       -2.466904    0.314913   -0.219541
      2          6           0        0.988420    1.272095    1.116615
      3          6           0       -0.918705   -1.478436   -0.040698
      4          6           0        1.367749   -0.002531    1.098787
      5          6           0       -2.672170   -0.349997    0.939220
      6          6           0       -1.719716   -1.457368    1.046843
      7          6           0        0.227444   -2.404020   -0.322080
      8          1           0        0.463449   -2.978233    0.588173
      9          1           0       -0.074168   -3.148908   -1.078789
     10          6           0        1.487812   -1.714587   -0.857062
     11          1           0        2.261086   -2.451790   -1.119908
     12          1           0        1.250972   -1.190046   -1.800313
     13          6           0        2.164699   -0.663785    0.008524
     14          8           0        3.313964   -0.348817   -0.189713
     15          1           0        1.058612   -0.628483    1.941005
     16          1           0        0.413699    1.710020    1.933849
     17          6           0       -1.346618   -0.364315   -0.959437
     18          1           0       -1.687538   -0.754102   -1.936661
     19          1           0       -0.530028    0.344202   -1.183205
     20         17           0        1.283931    2.383836   -0.187698
     21          6           0       -3.171878    1.524170   -0.739809
     22          1           0       -2.465397    2.359150   -0.879800
     23          1           0       -3.960841    1.855433   -0.050116
     24          1           0       -3.634453    1.329775   -1.721310
     25          1           0       -1.651603   -2.139907    1.896751
     26          1           0       -3.423133   -0.098611    1.690719
 ---------------------------------------------------------------------
 Rotational constants (GHZ):           0.8866989           0.5794192           0.4150881
 Standard basis: def2SVP (5D, 7F)
 There are   264 symmetry adapted cartesian basis functions of A   symmetry.
 There are   251 symmetry adapted basis functions of A   symmetry.
   251 basis functions,   428 primitive gaussians,   264 cartesian basis functions
    52 alpha electrons       52 beta electrons
       nuclear repulsion energy       873.3990493176 Hartrees.
 NAtoms=   26 NActive=   26 NUniq=   26 SFac= 1.00D+00 NAtFMM=   60 NAOKFM=F Big=F
 Integral buffers will be    131072 words long.
 Raffenetti 2 integral format.
 Two-electron integral symmetry is turned on.
 Nuclear repulsion after empirical dispersion term =      873.3785185724 Hartrees.
 ------------------------------------------------------------------------------
 Polarizable Continuum Model (PCM)
 =================================
 Model                : PCM.
 Atomic radii         : UFF (Universal Force Field).
 Polarization charges : Total charges.
 Charge compensation  : None.
 Solution method      : Matrix inversion.
 Cavity type          : Scaled VdW (van der Waals Surface) (Alpha=1.100).
 Cavity algorithm     : GePol (No added spheres)
                        Default sphere list used, NSphG=   26.
                        Lebedev-Laikov grids with approx.  5.0 points / Ang**2.
                        Smoothing algorithm: York/Karplus (Gamma=1.0000).
                        Polarization charges: spherical gaussians, with
                                              point-specific exponents (IZeta= 3).
                        Self-potential: point-specific (ISelfS= 7).
                        Self-field    : sphere-specific E.n sum rule (ISelfD= 2).
 1st derivatives      : Analytical E(r).r(x)/FMM algorithm (CHGder, D1EAlg=3).
                        Cavity 1st derivative terms included.
 Solvent              : Toluene, Eps=   2.374100 Eps(inf)=   2.238315
 ------------------------------------------------------------------------------
 One-electron integrals computed using PRISM.
   1 Symmetry operations used in ECPInt.
 ECPInt:  NShTT=    7140 NPrTT=   26096 LenC2=    6946 LenP2D=   19119.
 LDataN:  DoStor=T MaxTD1= 4 Len=   56
 NBasis=   251 RedAO= T EigKep=  5.71D-04  NBF=   251
 NBsUse=   251 1.00D-06 EigRej= -1.00D+00 NBFU=   251
 Initial guess from the checkpoint file:  "imda-1_1_opt_dft_re.chk"
 B after Tr=    -0.000000    0.000000    0.000000
         Rot=    1.000000   -0.000046    0.000027   -0.000296 Ang=  -0.03 deg.
 Requested convergence on RMS density matrix=1.00D-08 within 128 cycles.
 Requested convergence on MAX density matrix=1.00D-06.
 Requested convergence on             energy=1.00D-06.
 No special actions if energy rises.
 Inv3:  Mode=1 IEnd=    12024012.
[...]
     23          1           0       -3.960841    1.855433   -0.050116
     24          1           0       -3.634453    1.329775   -1.721310
     25          1           0       -1.651603   -2.139907    1.896751
     26          1           0       -3.423133   -0.098611    1.690719
 ---------------------------------------------------------------------
 Rotational constants (GHZ):           0.8866989           0.5794192           0.4150881

 **********************************************************************

            Population analysis using the SCF Density.

 **********************************************************************

 Orbital symmetries:
       Occupied  (A) (A) (A) (A) (A) (A) (A) (A) (A) (A) (A) (A)
                 (A) (A) (A) (A) (A) (A) (A) (A) (A) (A) (A) (A)
                 (A) (A) (A) (A) (A) (A) (A) (A) (A) (A) (A) (A)
                 (A) (A) (A) (A) (A) (A) (A) (A) (A) (A) (A) (A)
                 (A) (A) (A) (A)
       Virtual   (A) (A) (A) (A) (A) (A) (A) (A) (A) (A) (A) (A)
                 (A) (A) (A) (A) (A) (A) (A) (A) (A) (A) (A) (A)
                 (A) (A) (A) (A) (A) (A) (A) (A) (A) (A) (A) (A)
                 (A) (A) (A) (A) (A) (A) (A) (A) (A) (A) (A) (A)
                 (A) (A) (A) (A) (A) (A) (A) (A) (A) (A) (A) (A)
                 (A) (A) (A) (A) (A) (A) (A) (A) (A) (A) (A) (A)
                 (A) (A) (A) (A) (A) (A) (A) (A) (A) (A) (A) (A)
                 (A) (A) (A) (A) (A) (A) (A) (A) (A) (A) (A) (A)
                 (A) (A) (A) (A) (A) (A) (A) (A) (A) (A) (A) (A)
                 (A) (A) (A) (A) (A) (A) (A) (A) (A) (A) (A) (A)
                 (A) (A) (A) (A) (A) (A) (A) (A) (A) (A) (A) (A)
                 (A) (A) (A) (A) (A) (A) (A) (A) (A) (A) (A) (A)
                 (A) (A) (A) (A) (A) (A) (A) (A) (A) (A) (A) (A)
                 (A) (A) (A) (A) (A) (A) (A) (A) (A) (A) (A) (A)
                 (A) (A) (A) (A) (A) (A) (A) (A) (A) (A) (A) (A)
                 (A) (A) (A) (A) (A) (A) (A) (A) (A) (A) (A) (A)
                 (A) (A) (A) (A) (A) (A) (A)
 The electronic state is 1-A.
 Alpha  occ. eigenvalues -- -101.68792 -19.25543 -10.40038 -10.36777 -10.32225
 Alpha  occ. eigenvalues --  -10.31259 -10.31231 -10.30185 -10.30079 -10.30049
 Alpha  occ. eigenvalues --  -10.29685 -10.29206 -10.29009  -9.59535  -7.34903
 Alpha  occ. eigenvalues --   -7.33980  -7.33911  -1.14499  -0.97844  -0.96150
 Alpha  occ. eigenvalues --   -0.89929  -0.86025  -0.83820  -0.79555  -0.77587
 Alpha  occ. eigenvalues --   -0.72959  -0.70511  -0.62719  -0.61631  -0.60762
 Alpha  occ. eigenvalues --   -0.59595  -0.57495  -0.55478  -0.54846  -0.53432
 Alpha  occ. eigenvalues --   -0.52541  -0.49932  -0.49800  -0.48956  -0.48601
 Alpha  occ. eigenvalues --   -0.47407  -0.45887  -0.45351  -0.44686  -0.43064
 Alpha  occ. eigenvalues --   -0.42831  -0.41365  -0.40119  -0.38208  -0.34790
 Alpha  occ. eigenvalues --   -0.33873  -0.28291
 Alpha virt. eigenvalues --    0.02931   0.04843   0.07724   0.12607   0.13317
 Alpha virt. eigenvalues --    0.14514   0.15302   0.16454   0.17482   0.18562
 Alpha virt. eigenvalues --    0.19277   0.20641   0.21726   0.22245   0.22714
 Alpha virt. eigenvalues --    0.23747   0.24441   0.24792   0.26456   0.30016
 Alpha virt. eigenvalues --    0.30787   0.31242   0.33810   0.34659   0.36753
 Alpha virt. eigenvalues --    0.38917   0.40361   0.41234   0.42464   0.44769
 Alpha virt. eigenvalues --    0.47611   0.48135   0.50884   0.52178   0.52722
 Alpha virt. eigenvalues --    0.53419   0.54229   0.54924   0.55709   0.56900
 Alpha virt. eigenvalues --    0.58010   0.58532   0.60402   0.62884   0.63486
 Alpha virt. eigenvalues --    0.64850   0.66081   0.68556   0.69051   0.69815
 Alpha virt. eigenvalues --    0.70314   0.70826   0.71230   0.72450   0.73097
 Alpha virt. eigenvalues --    0.73720   0.73899   0.74715   0.75003   0.75888
 Alpha virt. eigenvalues --    0.76328   0.77148   0.77616   0.78330   0.78471
 Alpha virt. eigenvalues --    0.78688   0.79579   0.80029   0.80954   0.82460
 Alpha virt. eigenvalues --    0.83147   0.83341   0.84589   0.86760   0.87080
 Alpha virt. eigenvalues --    0.88573   0.89874   0.91022   0.91880   0.93076
 Alpha virt. eigenvalues --    0.95071   0.97070   0.98643   1.01991   1.04170
 Alpha virt. eigenvalues --    1.06597   1.08203   1.09323   1.10871   1.13706
 Alpha virt. eigenvalues --    1.14768   1.17529   1.18943   1.23662   1.24356
 Alpha virt. eigenvalues --    1.25035   1.26661   1.29886   1.33402   1.34374
 Alpha virt. eigenvalues --    1.34413   1.37719   1.41349   1.43956   1.46063
 Alpha virt. eigenvalues --    1.55223   1.58547   1.59910   1.60850   1.62048
 Alpha virt. eigenvalues --    1.62375   1.65664   1.66109   1.66661   1.69625
 Alpha virt. eigenvalues --    1.70846   1.73597   1.75475   1.77804   1.79286
 Alpha virt. eigenvalues --    1.80790   1.81433   1.82711   1.83050   1.84092
 Alpha virt. eigenvalues --    1.85131   1.85878   1.86650   1.87509   1.88327
 Alpha virt. eigenvalues --    1.89920   1.91040   1.91940   1.94062   1.94484
 Alpha virt. eigenvalues --    1.96325   1.97100   1.99813   2.01381   2.03649
 Alpha virt. eigenvalues --    2.05163   2.06443   2.07713   2.08851   2.10327
 Alpha virt. eigenvalues --    2.14459   2.15606   2.16627   2.17276   2.18747
 Alpha virt. eigenvalues --    2.21563   2.24218   2.25389   2.29172   2.30506
 Alpha virt. eigenvalues --    2.33343   2.34820   2.35789   2.36344   2.39055
 Alpha virt. eigenvalues --    2.41304   2.42958   2.44758   2.48091   2.48561
 Alpha virt. eigenvalues --    2.49448   2.53021   2.56218   2.57715   2.65206
 Alpha virt. eigenvalues --    2.66244   2.68959   2.70764   2.73321   2.74615
 Alpha virt. eigenvalues --    2.76431   2.78438   2.79048   2.79369   2.81908
 Alpha virt. eigenvalues --    2.82215   2.83687   2.87520   2.92060   2.95175
 Alpha virt. eigenvalues --    2.99503   3.01183   3.02050   3.05199   3.08602
 Alpha virt. eigenvalues --    3.11770   3.13244   3.20365   3.21984   3.25885
 Alpha virt. eigenvalues --    3.27062   3.47911   3.48604   3.70742
          Condensed to atoms (all electrons):
               1          2          3          4          5          6
     1  C    5.082960   0.003633  -0.096516  -0.001396   0.590514  -0.002187
     2  C    0.003633   4.721007  -0.007003   0.630786   0.002705  -0.002715
     3  C   -0.096516  -0.007003   5.193531  -0.004930  -0.006468   0.582252
     4  C   -0.001396   0.630786  -0.004930   5.105617  -0.001383  -0.000416
     5  C    0.590514   0.002705  -0.006468  -0.001383   4.963750   0.274170
     6  C   -0.002187  -0.002715   0.582252  -0.000416   0.274170   4.989821
     7  C    0.010391  -0.001944   0.335339   0.013110   0.009894  -0.060839
     8  H   -0.000614   0.000403  -0.015031  -0.002263   0.000692  -0.015232
     9  H    0.000461  -0.000039  -0.000996   0.000002  -0.000653   0.001651
    10  C    0.000508   0.007618  -0.048566  -0.168750  -0.000432   0.002691
    11  H   -0.000012  -0.000303   0.006405   0.011258   0.000012  -0.000149
    12  H   -0.000015  -0.000360  -0.014636   0.002933   0.000074  -0.000151
    13  C    0.000079  -0.031430  -0.006807   0.269392   0.000025   0.001192
    14  O    0.000001   0.000261  -0.000079  -0.080297  -0.000000  -0.000000
    15  H   -0.000017   0.003518   0.004516   0.370425  -0.000883   0.002622
    16  H    0.000306   0.409465  -0.000199  -0.021246   0.001191  -0.000243
    17  C    0.334750  -0.000080   0.333505   0.003591  -0.091787  -0.109234
    18  H    0.003088   0.000154  -0.000975   0.000157   0.000361   0.000604
    19  H   -0.008206  -0.002564   0.001240  -0.009082   0.001286   0.003299
    20  Cl   0.000390   0.286298   0.000374  -0.086065  -0.000122   0.000070
    21  C    0.403557  -0.000142   0.009070   0.000020  -0.063934   0.010143
    22  H   -0.015861  -0.000551   0.000475   0.000053   0.001555  -0.000371
    23  H   -0.010488  -0.000004  -0.000598   0.000001  -0.012165   0.000429
    24  H   -0.015141   0.000026   0.000582  -0.000005   0.002817  -0.000538
    25  H    0.007432   0.000008  -0.065524  -0.000267  -0.053483   0.442427
    26  H   -0.064381  -0.000019   0.007765   0.000006   0.443965  -0.056681
               7          8          9         10         11         12
     1  C    0.010391  -0.000614   0.000461   0.000508  -0.000012  -0.000015
     2  C   -0.001944   0.000403  -0.000039   0.007618  -0.000303  -0.000360
     3  C    0.335339  -0.015031  -0.000996  -0.048566   0.006405  -0.014636
     4  C    0.013110  -0.002263   0.000002  -0.168750   0.011258   0.002933
     5  C    0.009894   0.000692  -0.000653  -0.000432   0.000012   0.000074
     6  C   -0.060839  -0.015232   0.001651   0.002691  -0.000149  -0.000151
     7  C    4.713809   0.380491   0.341879   0.308141  -0.009189  -0.007476
     8  H    0.380491   0.662643  -0.023271  -0.025897  -0.005173   0.006490
     9  H    0.341879  -0.023271   0.648880  -0.006552  -0.005942  -0.008274
    10  C    0.308141  -0.025897  -0.006552   5.091668   0.340903   0.350451
    11  H   -0.009189  -0.005173  -0.005942   0.340903   0.606606  -0.006041
    12  H   -0.007476   0.006490  -0.008274   0.350451  -0.006041   0.592403
    13  C   -0.035941  -0.007871   0.006606   0.295104  -0.008035  -0.004573
    14  O    0.004655   0.000156  -0.000163  -0.088140   0.007672   0.000911
    15  H    0.000332   0.000408   0.000160  -0.002665  -0.000285   0.000101
    16  H    0.000096   0.000004  -0.000003  -0.000400   0.000009   0.000024
    17  C   -0.079844   0.009921  -0.005797  -0.000298   0.000228   0.006703
    18  H    0.004150  -0.000269   0.001157  -0.001972  -0.000048   0.000643
    19  H   -0.010291  -0.000162   0.000149   0.006375  -0.000087   0.001229
    20  Cl   0.000014  -0.000003   0.000001  -0.002289  -0.000003   0.000856
    21  C   -0.000224   0.000006   0.000010   0.000000  -0.000000   0.000011
    22  H    0.000005  -0.000001   0.000003  -0.000011   0.000000  -0.000012
    23  H    0.000007  -0.000000  -0.000000   0.000000   0.000000  -0.000000
    24  H    0.000014   0.000000  -0.000007   0.000002  -0.000000   0.000003
    25  H   -0.012041   0.004818   0.000307   0.000141  -0.000008   0.000001
    26  H   -0.000312   0.000009   0.000006   0.000006  -0.000000  -0.000000
              13         14         15         16         17         18
     1  C    0.000079   0.000001  -0.000017   0.000306   0.334750   0.003088
     2  C   -0.031430   0.000261   0.003518   0.409465  -0.000080   0.000154
     3  C   -0.006807  -0.000079   0.004516  -0.000199   0.333505  -0.000975
     4  C    0.269392  -0.080297   0.370425  -0.021246   0.003591   0.000157
     5  C    0.000025  -0.000000  -0.000883   0.001191  -0.091787   0.000361
     6  C    0.001192  -0.000000   0.002622  -0.000243  -0.109234   0.000604
     7  C   -0.035941   0.004655   0.000332   0.000096  -0.079844   0.004150
     8  H   -0.007871   0.000156   0.000408   0.000004   0.009921  -0.000269
     9  H    0.006606  -0.000163   0.000160  -0.000003  -0.005797   0.001157
    10  C    0.295104  -0.088140  -0.002665  -0.000400  -0.000298  -0.001972
    11  H   -0.008035   0.007672  -0.000285   0.000009   0.000228  -0.000048
    12  H   -0.004573   0.000911   0.000101   0.000024   0.006703   0.000643
    13  C    4.767545   0.695072  -0.022597   0.006805  -0.004664   0.000266
    14  O    0.695072   7.684150   0.001256  -0.000144   0.000017  -0.000001
    15  H   -0.022597   0.001256   0.568542  -0.010879  -0.000280   0.000001
    16  H    0.006805  -0.000144  -0.010879   0.552851  -0.000185   0.000008
    17  C   -0.004664   0.000017  -0.000280  -0.000185   4.857598   0.332994
    18  H    0.000266  -0.000001   0.000001   0.000008   0.332994   0.610558
    19  H    0.000324  -0.000131   0.000043   0.000181   0.331329  -0.015226
    20  Cl   0.008416  -0.000850   0.003677  -0.037238  -0.006502   0.000014
    21  C   -0.000001  -0.000000   0.000001  -0.000001  -0.066860  -0.000775
    22  H    0.000001   0.000000   0.000000  -0.000106  -0.005860  -0.000082
    23  H   -0.000000   0.000000  -0.000000   0.000002   0.008810  -0.000240
    24  H    0.000000   0.000000  -0.000000   0.000002  -0.005650   0.001958
    25  H   -0.000008   0.000000   0.000672  -0.000006   0.014733  -0.000386
    26  H    0.000001  -0.000000  -0.000003   0.000016   0.015157  -0.000379
              19         20         21         22         23         24
     1  C   -0.008206   0.000390   0.403557  -0.015861  -0.010488  -0.015141
     2  C   -0.002564   0.286298  -0.000142  -0.000551  -0.000004   0.000026
     3  C    0.001240   0.000374   0.009070   0.000475  -0.000598   0.000582
     4  C   -0.009082  -0.086065   0.000020   0.000053   0.000001  -0.000005
     5  C    0.001286  -0.000122  -0.063934   0.001555  -0.012165   0.002817
     6  C    0.003299   0.000070   0.010143  -0.000371   0.000429  -0.000538
     7  C   -0.010291   0.000014  -0.000224   0.000005   0.000007   0.000014
     8  H   -0.000162  -0.000003   0.000006  -0.000001  -0.000000   0.000000
     9  H    0.000149   0.000001   0.000010   0.000003  -0.000000  -0.000007
    10  C    0.006375  -0.002289   0.000000  -0.000011   0.000000   0.000002
    11  H   -0.000087  -0.000003  -0.000000   0.000000   0.000000  -0.000000
    12  H    0.001229   0.000856   0.000011  -0.000012  -0.000000   0.000003
    13  C    0.000324   0.008416  -0.000001   0.000001  -0.000000   0.000000
    14  O   -0.000131  -0.000850  -0.000000   0.000000   0.000000   0.000000
    15  H    0.000043   0.003677   0.000001   0.000000  -0.000000  -0.000000
    16  H    0.000181  -0.037238  -0.000001  -0.000106   0.000002   0.000002
    17  C    0.331329  -0.006502  -0.066860  -0.005860   0.008810  -0.005650
    18  H   -0.015226   0.000014  -0.000775  -0.000082  -0.000240   0.001958
    19  H    0.639781   0.020338  -0.000663   0.003123  -0.000240  -0.000294
    20  Cl   0.020338  16.912673  -0.000889   0.003284   0.000003  -0.000001
    21  C   -0.000663  -0.000889   4.520547   0.380040   0.386430   0.383120
    22  H    0.003123   0.003284   0.380040   0.631311  -0.019738  -0.023134
    23  H   -0.000240   0.000003   0.386430  -0.019738   0.628548  -0.020327
    24  H   -0.000294  -0.000001   0.383120  -0.023134  -0.020327   0.631373
    25  H   -0.000337   0.000001  -0.000293   0.000007   0.000006   0.000005
    26  H   -0.000373  -0.000000  -0.010758   0.000136   0.004509   0.000093
              25         26
     1  C    0.007432  -0.064381
     2  C    0.000008  -0.000019
     3  C   -0.065524   0.007765
     4  C   -0.000267   0.000006
     5  C   -0.053483   0.443965
     6  C    0.442427  -0.056681
     7  C   -0.012041  -0.000312
     8  H    0.004818   0.000009
     9  H    0.000307   0.000006
    10  C    0.000141   0.000006
    11  H   -0.000008  -0.000000
    12  H    0.000001  -0.000000
    13  C   -0.000008   0.000001
    14  O    0.000000  -0.000000
    15  H    0.000672  -0.000003
    16  H   -0.000006   0.000016
    17  C    0.014733   0.015157
    18  H   -0.000386  -0.000379
    19  H   -0.000337  -0.000373
    20  Cl   0.000001  -0.000000
    21  C   -0.000293  -0.010758
    22  H    0.000007   0.000136
    23  H    0.000006   0.004509
    24  H    0.000005   0.000093
    25  H    0.659669  -0.003587
    26  H   -0.003587   0.659190
 Mulliken charges:
               1
     1  C   -0.223236
     2  C   -0.018728
     3  C   -0.206727
     4  C   -0.031251
     5  C   -0.061699
     6  C   -0.062614
     7  C    0.095774
     8  H    0.029745
     9  H    0.050424
    10  C   -0.057637
    11  H    0.062182
    12  H    0.078706
    13  C    0.071095
    14  O   -0.224344
    15  H    0.081336
    16  H    0.099690
    17  C    0.127703
    18  H    0.064240
    19  H    0.038960
    20  Cl  -0.102447
    21  C    0.051585
    22  H    0.045734
    23  H    0.035057
    24  H    0.045103
    25  H    0.005713
    26  H    0.005635
 Sum of Mulliken charges =  -0.00000
 Mulliken charges with hydrogens summed into heavy atoms:
               1
     1  C   -0.223236
     2  C    0.080962
     3  C   -0.206727
     4  C    0.050085
     5  C   -0.056063
     6  C   -0.056902
     7  C    0.175943
    10  C    0.083252
    13  C    0.071095
    14  O   -0.224344
    17  C    0.230902
    20  Cl  -0.102447
    21  C    0.177479
 Electronic spatial extent (au):  <R**2>=           2794.4485
 Charge=              0.0000 electrons
 Dipole moment (field-independent basis, Debye):
    X=             -3.0663    Y=             -1.3982    Z=              0.4630  Tot=              3.4017
 Quadrupole moment (field-independent basis, Debye-Ang):
   XX=            -98.8800   YY=            -80.9224   ZZ=            -77.0215
   XY=             -5.4603   XZ=              0.9969   YZ=              0.5646
 Traceless Quadrupole moment (field-independent basis, Debye-Ang):
   XX=            -13.2721   YY=              4.6856   ZZ=              8.5865
   XY=             -5.4603   XZ=              0.9969   YZ=              0.5646
 Octapole moment (field-independent basis, Debye-Ang**2):
  XXX=            -40.8164  YYY=              2.0402  ZZZ=              0.2121  XYY=             11.4371
  XXY=              9.4786  XXZ=              2.6685  XZZ=              2.1599  YZZ=              1.2938
  YYZ=             -0.1854  XYZ=              0.4099
 Hexadecapole moment (field-independent basis, Debye-Ang**3):
 XXXX=          -2234.6025 YYYY=          -1237.3894 ZZZZ=           -396.5954 XXXY=            -27.5697
 XXXZ=             -7.6281 YYYX=            -15.8065 YYYZ=             -1.4932 ZZZX=             -5.8412
 ZZZY=             -0.8697 XXYY=           -546.2311 XXZZ=           -388.5047 YYZZ=           -256.5836
 XXYZ=             -6.4896 YYXZ=             -7.6913 ZZXY=              4.6653
 N-N= 8.733785185724D+02 E-N=-4.003737219874D+03  KE= 9.552501081121D+02
 Unable to Open any file for archive entry.
 1\1\GINC-NODE-003\FTS\RwB97XD\def2SVP\C11H13Cl1O1\JP2658\22-Dec-2023\0
 \\# wb97xd def2svp geom=allchk scrf=(iefpcm,solvent=toluene) opt=(calc
 fc,ts,noeigen,maxcycles=50,maxstep=10)\\3a_exo_ts_26_reopt2.out\\0,1\C
 ,-1.676465812,-0.6020789894,3.6230341283\C,2.0286002095,-1.5288402303,
 3.3898577061\C,-0.9042645176,-1.1442013954,1.4424809152\C,1.8966725675
 ,-1.802607327,2.0950501064\C,-1.9623149545,-1.8939698606,3.346852944\C
 ,-1.4891070707,-2.2261408355,2.0012082999\C,-0.236094413,-1.0476080178
 ,0.1031690148\H,-0.1154953862,-2.0589229424,-0.3171632846\H,-0.8912109
 867,-0.5048650986,-0.6001721817\C,1.1090183262,-0.3123311244,0.1127347
 217\H,1.5079968694,-0.2034513314,-0.9068098467\H,0.9647130035,0.719014
 996,0.4821380714\C,2.2374827927,-0.8720453746,0.9641373736\O,3.3843735
 437,-0.5578283026,0.7514833656\H,1.4886360217,-2.7823143894,1.82973399
 88\H,1.7722888797,-2.2393300127,4.1769178858\C,-0.9997460219,-0.002628
 3709,2.4203102656\H,-1.5867257359,0.8377408007,2.0051445563\H,-0.01402
 34878,0.4175397388,2.6862004237\Cl,2.5456906195,0.0152318851,4.0005817
 992\C,-1.9383911704,0.1647453582,4.8773649869\H,-0.9953548819,0.529621
 735,5.3171985541\H,-2.4480162728,-0.4563048752,5.6273336071\H,-2.56435
 04263,1.0513239384,4.684328175\H,-1.5711044391,-3.2117200717,1.5377950
 638\H,-2.4589072567,-2.5926299024,4.0229893498\\Version=ES64L-G16RevC.
 01\State=1-A\HF=-961.7027581\RMSD=6.100e-09\RMSF=2.268e-06\Dipole=-1.2
 895284,-0.3574311,0.0213836\Quadrupole=-10.2867613,5.8579127,4.4288486
 ,-2.6135051,2.3658645,-0.1804426\PG=C01 [X(C11H13Cl1O1)]\\@
 The archive entry for this job was punched.


 IN THE LONG RUN, DIGGING FOR TRUTH HAS ALWAYS PROVED NOT ONLY 
 MORE INTERESTING BUT MORE PROFITABLE THAN DIGGING FOR GOLD.

                             -- GEORGE R. HARRISON
 Job cpu time:       0 days  0 hours 37 minutes 24.5 seconds.
 Elapsed time:       0 days  0 hours  3 minutes 10.0 seconds.
 File lengths (MBytes):  RWF=    267 Int=      0 D2E=      0 Chk=     19 Scr=      1
 Normal termination of Gaussian 16 at Fri Dec 22 23:21:40 2023.
