Unloading slurm/anatra/current
  ERROR: No such file or directory on
    '/cm/local/modulefiles/slurm/anatra/current'
environment: line 0: unalias: gv: not found
environment: line 0: unalias: sl: not found
 Entering Gaussian System, Link 0=g16
 Initial command:
 /apps/gaussian/g16/C.01/g16/l1.exe "/local/jobs/1152745/Gau-2237101.inp" -scrdir="/local/jobs/1152745/"
 Entering Link 1 = /apps/gaussian/g16/C.01/g16/l1.exe PID=   2237102.
  
 Copyright (c) 1988-2019, Gaussian, Inc.  All Rights Reserved.
  
 This is part of the Gaussian(R) 16 program.  It is based on
 the Gaussian(R) 09 system (copyright 2009, Gaussian, Inc.),
 the Gaussian(R) 03 system (copyright 2003, Gaussian, Inc.),
 the Gaussian(R) 98 system (copyright 1998, Gaussian, Inc.),
 the Gaussian(R) 94 system (copyright 1995, Gaussian, Inc.),
 the Gaussian 92(TM) system (copyright 1992, Gaussian, Inc.),
 the Gaussian 90(TM) system (copyright 1990, Gaussian, Inc.),
 the Gaussian 88(TM) system (copyright 1988, Gaussian, Inc.),
 the Gaussian 86(TM) system (copyright 1986, Carnegie Mellon
 University), and the Gaussian 82(TM) system (copyright 1983,
 Carnegie Mellon University). Gaussian is a federally registered
 trademark of Gaussian, Inc.
  
 This software contains proprietary and confidential information,
 including trade secrets, belonging to Gaussian, Inc.
  
 This software is provided under written license and may be
 used, copied, transmitted, or stored only in accord with that
 written license.
  
 The following legend is applicable only to US Government
 contracts under FAR:
  
                    RESTRICTED RIGHTS LEGEND
  
 Use, reproduction and disclosure by the US Government is
 subject to restrictions as set forth in subparagraphs (a)
 and (c) of the Commercial Computer Software - Restricted
 Rights clause in FAR 52.227-19.
  
 Gaussian, Inc.
 340 Quinnipiac St., Bldg. 40, Wallingford CT 06492
  
  
 ---------------------------------------------------------------
 Warning -- This program may not be used in any manner that
 competes with the business of Gaussian, Inc. or will provide
 assistance to any competitor of Gaussian, Inc.  The licensee
 of this program is prohibited from giving any competitor of
 Gaussian, Inc. access to this program.  By using this program,
 the user acknowledges that Gaussian, Inc. is engaged in the
 business of creating and licensing software in the field of
 computational chemistry and represents and warrants to the
 licensee that it is not a competitor of Gaussian, Inc. and that
 it will not use this program in any manner prohibited above.
 ---------------------------------------------------------------
  

 Cite this work as:
 Gaussian 16, Revision C.01,
 M. J. Frisch, G. W. Trucks, H. B. Schlegel, G. E. Scuseria, 
 M. A. Robb, J. R. Cheeseman, G. Scalmani, V. Barone, 
 G. A. Petersson, H. Nakatsuji, X. Li, M. Caricato, A. V. Marenich, 
 J. Bloino, B. G. Janesko, R. Gomperts, B. Mennucci, H. P. Hratchian, 
 J. V. Ortiz, A. F. Izmaylov, J. L. Sonnenberg, D. Williams-Young, 
 F. Ding, F. Lipparini, F. Egidi, J. Goings, B. Peng, A. Petrone, 
 T. Henderson, D. Ranasinghe, V. G. Zakrzewski, J. Gao, N. Rega, 
 G. Zheng, W. Liang, M. Hada, M. Ehara, K. Toyota, R. Fukuda, 
 J. Hasegawa, M. Ishida, T. Nakajima, Y. Honda, O. Kitao, H. Nakai, 
 T. Vreven, K. Throssell, J. A. Montgomery, Jr., J. E. Peralta, 
 F. Ogliaro, M. J. Bearpark, J. J. Heyd, E. N. Brothers, K. N. Kudin, 
 V. N. Staroverov, T. A. Keith, R. Kobayashi, J. Normand, 
 K. Raghavachari, A. P. Rendell, J. C. Burant, S. S. Iyengar, 
 J. Tomasi, M. Cossi, J. M. Millam, M. Klene, C. Adamo, R. Cammi, 
 J. W. Ochterski, R. L. Martin, K. Morokuma, O. Farkas, 
 J. B. Foresman, and D. J. Fox, Gaussian, Inc., Wallingford CT, 2019.
 
 ******************************************
 Gaussian 16:  ES64L-G16RevC.01  3-Jul-2019
                22-Dec-2023 
 ******************************************
 %chk=imda-2_1_opt_dft.chk
 %nprocshared=12
 Will use up to   12 processors via shared memory.
 %mem=48GB
 ----------------------------------------------------------------------
 # wb97xd def2svp scrf=(iefpcm,solvent=toluene) opt=(calcfc,ts,noeigen,
 maxcycles=50,maxstep=10)
 ----------------------------------------------------------------------
 1/5=1,6=50,8=10,10=4,11=1,18=20,26=3,38=1/1,3;
 2/9=110,12=2,17=6,18=5,40=1/2;
 3/5=43,7=101,11=2,25=1,30=1,70=2201,71=2,72=13,74=-58,140=1/1,2,3;
 4//1;
 5/5=2,38=5,53=13/2;
 8/6=4,10=90,11=11/1;
 11/6=1,8=1,9=11,15=111,16=1/1,2,10;
 10/6=1,13=1/2;
 6/7=2,8=2,9=2,10=2,28=1/1;
 7/10=1,25=1/1,2,3,16;
 1/5=1,6=50,8=10,10=4,11=1,18=20,26=3/3(2);
 2/9=110/2;
 99//99;
 2/9=110/2;
 3/5=43,7=101,11=2,25=1,30=1,70=2205,71=1,72=13,74=-58/1,2,3;
 4/5=5,16=3,69=1/1;
 5/5=2,38=5,53=13/2;
 7//1,2,3,16;
 1/5=1,6=50,8=10,11=1,18=20,26=3/3(-5);
 2/9=110/2;
 6/7=2,8=2,9=2,10=2,19=2,28=1/1;
 99/9=1/99;
 ---------------------
 3g_exo_ts_6_reopt.out
 ---------------------
 Symbolic Z-matrix:
 Charge =  0 Multiplicity = 1
 C                    -4.8346    3.7854    0.0365 
 C                    -1.7865    3.9793    0.0384 
 C                    -4.3729    3.35      2.1885 
 C                    -1.7487    3.3478    1.2425 
 C                    -4.9631    2.4172    0.2144 
 C                    -4.6895    2.15      1.5606 
 C                    -3.8414    3.6679    3.5752 
 H                    -4.0576    4.7027    3.8491 
 H                    -4.3733    3.0742    4.3204 
 C                    -2.3142    3.4105    3.7246 
 H                    -1.9484    3.8447    4.6553 
 H                    -2.1374    2.3406    3.8284 
 C                    -1.4469    3.9039    2.5597 
 O                    -0.5628    4.731     2.7637 
 H                    -1.9814    2.2945    1.2663 
 H                    -2.0203    3.4106   -0.8485 
 C                    -1.5289    5.3718   -0.2522 
 O                    -0.9114    5.7109   -1.2583 
 N                    -4.5968    4.3433    1.2654 
 H                    -4.4649    5.3309    1.4421 
 H                    -4.9629    4.4127   -0.8356 
 Br                   -2.3577    6.7474    0.943 
 H                    -5.2134    1.6881   -0.5458 
 H                    -4.6699    1.1716    2.0208 
 

 GradGradGradGradGradGradGradGradGradGradGradGradGradGradGradGradGradGrad
 Berny optimization.
 Initialization pass.
                           ----------------------------
                           !    Initial Parameters    !
                           ! (Angstroms and Degrees)  !
 --------------------------                            --------------------------
 ! Name  Definition              Value          Derivative Info.                !
 --------------------------------------------------------------------------------
 ! R1    R(1,5)                  1.3857         calculate D2E/DX2 analytically  !
 ! R2    R(1,19)                 1.3704         calculate D2E/DX2 analytically  !
 ! R3    R(1,21)                 1.0819         calculate D2E/DX2 analytically  !
 ! R4    R(2,4)                  1.3602         calculate D2E/DX2 analytically  !
 ! R5    R(2,16)                 1.0792         calculate D2E/DX2 analytically  !
 ! R6    R(2,17)                 1.4456         calculate D2E/DX2 analytically  !
 ! R7    R(3,6)                  1.3909         calculate D2E/DX2 analytically  !
 ! R8    R(3,7)                  1.5187         calculate D2E/DX2 analytically  !
 ! R9    R(3,19)                 1.3744         calculate D2E/DX2 analytically  !
 ! R10   R(4,13)                 1.4613         calculate D2E/DX2 analytically  !
 ! R11   R(4,15)                 1.079          calculate D2E/DX2 analytically  !
 ! R12   R(5,6)                  1.3995         calculate D2E/DX2 analytically  !
 ! R13   R(5,23)                 1.0827         calculate D2E/DX2 analytically  !
 ! R14   R(6,24)                 1.0814         calculate D2E/DX2 analytically  !
 ! R15   R(7,8)                  1.0921         calculate D2E/DX2 analytically  !
 ! R16   R(7,9)                  1.0912         calculate D2E/DX2 analytically  !
 ! R17   R(7,10)                 1.5559         calculate D2E/DX2 analytically  !
 ! R18   R(10,11)                1.0902         calculate D2E/DX2 analytically  !
 ! R19   R(10,12)                1.0894         calculate D2E/DX2 analytically  !
 ! R20   R(10,13)                1.5338         calculate D2E/DX2 analytically  !
 ! R21   R(13,14)                1.2277         calculate D2E/DX2 analytically  !
 ! R22   R(17,18)                1.2282         calculate D2E/DX2 analytically  !
 ! R23   R(17,22)                2.0019         calculate D2E/DX2 analytically  !
 ! R24   R(19,20)                1.0119         calculate D2E/DX2 analytically  !
 ! A1    A(5,1,19)             107.6339         calculate D2E/DX2 analytically  !
 ! A2    A(5,1,21)             131.6809         calculate D2E/DX2 analytically  !
 ! A3    A(19,1,21)            120.4894         calculate D2E/DX2 analytically  !
 ! A4    A(4,2,16)             119.2666         calculate D2E/DX2 analytically  !
 ! A5    A(4,2,17)             128.3318         calculate D2E/DX2 analytically  !
 ! A6    A(16,2,17)            112.3956         calculate D2E/DX2 analytically  !
 ! A7    A(6,3,7)              132.2577         calculate D2E/DX2 analytically  !
 ! A8    A(6,3,19)             106.4546         calculate D2E/DX2 analytically  !
 ! A9    A(7,3,19)             121.2652         calculate D2E/DX2 analytically  !
 ! A10   A(2,4,13)             128.8308         calculate D2E/DX2 analytically  !
 ! A11   A(2,4,15)             117.8248         calculate D2E/DX2 analytically  !
 ! A12   A(13,4,15)            113.3386         calculate D2E/DX2 analytically  !
 ! A13   A(1,5,6)              107.0909         calculate D2E/DX2 analytically  !
 ! A14   A(1,5,23)             126.6004         calculate D2E/DX2 analytically  !
 ! A15   A(6,5,23)             126.3031         calculate D2E/DX2 analytically  !
 ! A16   A(3,6,5)              108.3027         calculate D2E/DX2 analytically  !
 ! A17   A(3,6,24)             125.7573         calculate D2E/DX2 analytically  !
 ! A18   A(5,6,24)             125.8487         calculate D2E/DX2 analytically  !
 ! A19   A(3,7,8)              110.982          calculate D2E/DX2 analytically  !
 ! A20   A(3,7,9)              109.8207         calculate D2E/DX2 analytically  !
 ! A21   A(3,7,10)             113.3627         calculate D2E/DX2 analytically  !
 ! A22   A(8,7,9)              104.3456         calculate D2E/DX2 analytically  !
 ! A23   A(8,7,10)             109.0866         calculate D2E/DX2 analytically  !
 ! A24   A(9,7,10)             108.8361         calculate D2E/DX2 analytically  !
 ! A25   A(7,10,11)            110.2076         calculate D2E/DX2 analytically  !
 ! A26   A(7,10,12)            109.3249         calculate D2E/DX2 analytically  !
 ! A27   A(7,10,13)            115.3956         calculate D2E/DX2 analytically  !
 ! A28   A(11,10,12)           104.7948         calculate D2E/DX2 analytically  !
 ! A29   A(11,10,13)           109.2999         calculate D2E/DX2 analytically  !
 ! A30   A(12,10,13)           107.249          calculate D2E/DX2 analytically  !
 ! A31   A(4,13,10)            116.4481         calculate D2E/DX2 analytically  !
 ! A32   A(4,13,14)            123.7019         calculate D2E/DX2 analytically  !
 ! A33   A(10,13,14)           119.8476         calculate D2E/DX2 analytically  !
 ! A34   A(2,17,18)            121.3453         calculate D2E/DX2 analytically  !
 ! A35   A(2,17,22)            117.9109         calculate D2E/DX2 analytically  !
 ! A36   A(18,17,22)           120.4965         calculate D2E/DX2 analytically  !
 ! A37   A(1,19,3)             109.6542         calculate D2E/DX2 analytically  !
 ! A38   A(1,19,20)            125.207          calculate D2E/DX2 analytically  !
 ! A39   A(3,19,20)            124.5306         calculate D2E/DX2 analytically  !
 ! D1    D(19,1,5,6)            -4.7198         calculate D2E/DX2 analytically  !
 ! D2    D(19,1,5,23)          176.104          calculate D2E/DX2 analytically  !
 ! D3    D(21,1,5,6)          -179.5082         calculate D2E/DX2 analytically  !
 ! D4    D(21,1,5,23)            1.3156         calculate D2E/DX2 analytically  !
 ! D5    D(5,1,19,3)             8.9252         calculate D2E/DX2 analytically  !
 ! D6    D(5,1,19,20)         -179.7054         calculate D2E/DX2 analytically  !
 ! D7    D(21,1,19,3)         -175.5901         calculate D2E/DX2 analytically  !
 ! D8    D(21,1,19,20)          -4.2208         calculate D2E/DX2 analytically  !
 ! D9    D(16,2,4,13)          179.4107         calculate D2E/DX2 analytically  !
 ! D10   D(16,2,4,15)           -1.5237         calculate D2E/DX2 analytically  !
 ! D11   D(17,2,4,13)            0.3772         calculate D2E/DX2 analytically  !
 ! D12   D(17,2,4,15)          179.4428         calculate D2E/DX2 analytically  !
 ! D13   D(4,2,17,18)          140.4718         calculate D2E/DX2 analytically  !
 ! D14   D(4,2,17,22)          -45.2152         calculate D2E/DX2 analytically  !
 ! D15   D(16,2,17,18)         -38.6163         calculate D2E/DX2 analytically  !
 ! D16   D(16,2,17,22)         135.6967         calculate D2E/DX2 analytically  !
 ! D17   D(7,3,6,5)           -171.8547         calculate D2E/DX2 analytically  !
 ! D18   D(7,3,6,24)             4.8279         calculate D2E/DX2 analytically  !
 ! D19   D(19,3,6,5)             6.3832         calculate D2E/DX2 analytically  !
 ! D20   D(19,3,6,24)         -176.9342         calculate D2E/DX2 analytically  !
 ! D21   D(6,3,7,8)           -158.945          calculate D2E/DX2 analytically  !
 ! D22   D(6,3,7,9)            -44.0913         calculate D2E/DX2 analytically  !
 ! D23   D(6,3,7,10)            77.8829         calculate D2E/DX2 analytically  !
 ! D24   D(19,3,7,8)            23.0322         calculate D2E/DX2 analytically  !
 ! D25   D(19,3,7,9)           137.8858         calculate D2E/DX2 analytically  !
 ! D26   D(19,3,7,10)         -100.14           calculate D2E/DX2 analytically  !
 ! D27   D(6,3,19,1)            -9.4763         calculate D2E/DX2 analytically  !
 ! D28   D(6,3,19,20)          179.0831         calculate D2E/DX2 analytically  !
 ! D29   D(7,3,19,1)           168.998          calculate D2E/DX2 analytically  !
 ! D30   D(7,3,19,20)           -2.4426         calculate D2E/DX2 analytically  !
 ! D31   D(2,4,13,10)          139.0379         calculate D2E/DX2 analytically  !
 ! D32   D(2,4,13,14)          -40.3933         calculate D2E/DX2 analytically  !
 ! D33   D(15,4,13,10)         -40.0622         calculate D2E/DX2 analytically  !
 ! D34   D(15,4,13,14)         140.5067         calculate D2E/DX2 analytically  !
 ! D35   D(1,5,6,3)             -1.0649         calculate D2E/DX2 analytically  !
 ! D36   D(1,5,6,24)          -177.7436         calculate D2E/DX2 analytically  !
 ! D37   D(23,5,6,3)           178.1145         calculate D2E/DX2 analytically  !
 ! D38   D(23,5,6,24)            1.4357         calculate D2E/DX2 analytically  !
 ! D39   D(3,7,10,11)          168.2009         calculate D2E/DX2 analytically  !
 ! D40   D(3,7,10,12)          -77.1265         calculate D2E/DX2 analytically  !
 ! D41   D(3,7,10,13)           43.826          calculate D2E/DX2 analytically  !
 ! D42   D(8,7,10,11)           43.992          calculate D2E/DX2 analytically  !
 ! D43   D(8,7,10,12)          158.6646         calculate D2E/DX2 analytically  !
 ! D44   D(8,7,10,13)          -80.3829         calculate D2E/DX2 analytically  !
 ! D45   D(9,7,10,11)          -69.2774         calculate D2E/DX2 analytically  !
 ! D46   D(9,7,10,12)           45.3951         calculate D2E/DX2 analytically  !
 ! D47   D(9,7,10,13)          166.3476         calculate D2E/DX2 analytically  !
 ! D48   D(7,10,13,4)          -58.9378         calculate D2E/DX2 analytically  !
 ! D49   D(7,10,13,14)         120.5166         calculate D2E/DX2 analytically  !
 ! D50   D(11,10,13,4)         176.2149         calculate D2E/DX2 analytically  !
 ! D51   D(11,10,13,14)         -4.3308         calculate D2E/DX2 analytically  !
 ! D52   D(12,10,13,4)          63.1336         calculate D2E/DX2 analytically  !
 ! D53   D(12,10,13,14)       -117.412          calculate D2E/DX2 analytically  !
 --------------------------------------------------------------------------------
 Trust Radius=1.00D-01 FncErr=1.00D-07 GrdErr=1.00D-06 EigMax=2.50D+02 EigMin=1.00D-04
 Number of steps in this run=     50 maximum allowed number of steps=    144.
 Search for a saddle point of order  1.
 GradGradGradGradGradGradGradGradGradGradGradGradGradGradGradGradGradGrad

                          Input orientation:                          
 ---------------------------------------------------------------------
 Center     Atomic      Atomic             Coordinates (Angstroms)
 Number     Number       Type             X           Y           Z
 ---------------------------------------------------------------------
      1          6           0       -4.834600    3.785400    0.036500
      2          6           0       -1.786500    3.979300    0.038400
      3          6           0       -4.372900    3.350000    2.188500
      4          6           0       -1.748700    3.347800    1.242500
      5          6           0       -4.963100    2.417200    0.214400
      6          6           0       -4.689500    2.150000    1.560600
      7          6           0       -3.841400    3.667900    3.575200
      8          1           0       -4.057600    4.702700    3.849100
      9          1           0       -4.373300    3.074200    4.320400
     10          6           0       -2.314200    3.410500    3.724600
     11          1           0       -1.948400    3.844700    4.655300
     12          1           0       -2.137400    2.340600    3.828400
     13          6           0       -1.446900    3.903900    2.559700
     14          8           0       -0.562800    4.731000    2.763700
     15          1           0       -1.981400    2.294500    1.266300
     16          1           0       -2.020300    3.410600   -0.848500
     17          6           0       -1.528900    5.371800   -0.252200
     18          8           0       -0.911400    5.710900   -1.258300
     19          7           0       -4.596800    4.343300    1.265400
     20          1           0       -4.464900    5.330900    1.442100
     21          1           0       -4.962900    4.412700   -0.835600
     22         35           0       -2.357700    6.747400    0.943000
     23          1           0       -5.213400    1.688100   -0.545800
     24          1           0       -4.669900    1.171600    2.020800
 ---------------------------------------------------------------------
                    Distance matrix (angstroms):
                    1          2          3          4          5
     1  C    0.000000
     2  C    3.054262   0.000000
     3  C    2.243623   3.421756   0.000000
     4  C    3.341962   1.360176   2.789506   0.000000
     5  C    1.385688   3.544280   2.261752   3.500768   0.000000
     6  C    2.240194   3.753777   1.390861   3.191272   1.399467
     7  C    3.677316   4.102260   1.518713   3.150134   3.757318
     8  H    3.997635   4.494734   2.164903   3.736460   4.387993
     9  H    4.366967   5.083922   2.149666   4.054239   4.199851
    10  C    4.482750   3.766971   2.569340   2.546476   4.508306
    11  H    5.446740   4.621698   3.493999   3.454561   5.554076
    12  H    4.872457   4.143980   2.950529   2.802217   4.588185
    13  C    4.225765   2.545185   3.001012   1.461282   4.480443
    14  O    5.155585   3.080545   4.093272   2.373531   5.587060
    15  H    3.446149   2.093866   2.771968   1.078961   3.164188
    16  H    2.973884   1.079201   3.842105   2.109500   3.282784
    17  C    3.677997   1.445636   4.258289   2.525671   4.554240
    18  O    4.558021   2.333596   5.425519   3.541089   5.425272
    19  N    1.370400   3.088011   1.374369   3.017154   2.224553
    20  H    2.121547   3.312253   2.118854   3.369016   3.200796
    21  H    1.081908   3.322834   3.259235   3.972857   2.254888
    22  Br   3.966134   2.967650   4.141815   3.466679   5.105840
    23  H    2.209351   4.163476   3.308285   4.237543   1.082655
    24  H    3.285806   4.486322   2.204940   3.724917   2.213722
                    6          7          8          9         10
     6  C    0.000000
     7  C    2.661185   0.000000
     8  H    3.486088   1.092051   0.000000
     9  H    2.927563   1.091201   1.724472   0.000000
    10  C    3.451638   1.555929   2.173643   2.169785   0.000000
    11  H    4.467976   2.186624   2.415543   2.566314   1.090203
    12  H    3.419424   2.174730   3.044193   2.404055   1.089366
    13  C    3.819531   2.611621   3.019336   3.514582   1.533833
    14  O    5.013847   3.540894   3.659579   4.437140   2.394671
    15  H    2.727874   3.267544   4.096448   3.956848   2.720193
    16  H    3.810184   4.790796   5.280867   5.689227   4.582534
    17  C    4.863706   4.785386   4.864430   5.854763   4.503147
    18  O    5.907643   6.010114   6.082810   7.075227   5.664714
    19  N    2.215017   2.522295   2.663721   3.315659   3.482534
    20  H    3.191021   2.775687   2.520749   3.658647   3.677398
    21  H    3.307013   4.611686   4.780176   5.359435   5.368002
    22  Br   5.191802   4.314297   3.939020   5.381624   4.344432
    23  H    2.219176   4.773325   5.453332   5.129030   5.441354
    24  H    1.081404   3.055174   4.023215   2.999336   3.669459
                   11         12         13         14         15
    11  H    0.000000
    12  H    1.726789   0.000000
    13  C    2.155585   2.128449   0.000000
    14  O    2.506704   3.054008   1.227739   0.000000
    15  H    3.726866   2.567259   2.132778   3.192360   0.000000
    16  H    5.521361   4.799167   3.491126   4.112876   2.391563
    17  C    5.156702   5.119545   3.173048   3.231041   3.461268
    18  O    6.287188   6.223867   4.257832   4.154300   4.380673
    19  N    4.330594   4.077797   3.433679   4.320691   3.322333
    20  H    4.343526   4.478122   3.520466   4.163279   3.926627
    21  H    6.289660   5.833519   4.914183   5.693607   4.218305
    22  Br   4.730155   5.271997   3.395404   3.256145   4.480451
    23  H    6.508655   5.387129   5.361009   6.468393   3.754631
    24  H    4.636013   3.323783   4.259531   5.485390   3.009686
                   16         17         18         19         20
    16  H    0.000000
    17  C    2.107926   0.000000
    18  O    2.586305   1.228223   0.000000
    19  N    3.460759   3.573924   4.671356   0.000000
    20  H    3.861408   3.390047   4.479277   1.011916   0.000000
    21  H    3.108579   3.612836   4.275354   2.133787   2.505796
    22  Br   3.802308   2.001921   2.830519   3.301092   2.587637
    23  H    3.640676   5.218370   5.932772   3.272725   4.216870
    24  H    4.501820   5.716125   6.744187   3.261235   4.204366
                   21         22         23         24
    21  H    0.000000
    22  Br   3.924450   0.000000
    23  H    2.751396   5.997338   0.000000
    24  H    4.330081   6.131677   2.673874   0.000000
 Stoichiometry    C10H10BrNO2
 Framework group  C1[X(C10H10BrNO2)]
 Deg. of freedom    66
 Full point group                 C1      NOp   1
 Largest Abelian subgroup         C1      NOp   1
 Largest concise Abelian subgroup C1      NOp   1
                         Standard orientation:                         
 ---------------------------------------------------------------------
 Center     Atomic      Atomic             Coordinates (Angstroms)
 Number     Number       Type             X           Y           Z
 ---------------------------------------------------------------------
      1          6           0       -1.379697   -2.143047   -0.353390
      2          6           0        0.429416   -0.570145    1.539122
      3          6           0       -2.192377   -0.066515   -0.601199
      4          6           0       -0.442862    0.472897    1.503458
      5          6           0       -2.559081   -2.075504    0.370919
      6          6           0       -3.071791   -0.784274    0.202508
      7          6           0       -2.129704    1.400214   -0.990133
      8          1           0       -1.547139    1.538022   -1.903479
      9          1           0       -3.127698    1.757179   -1.249563
     10          6           0       -1.545494    2.310673    0.128204
     11          1           0       -1.329172    3.302798   -0.268577
     12          1           0       -2.304648    2.475911    0.891814
     13          6           0       -0.299154    1.765116    0.836476
     14          8           0        0.747521    2.406371    0.811854
     15          1           0       -1.385296    0.359043    2.016305
     16          1           0        0.167044   -1.458643    2.092662
     17          6           0        1.736040   -0.667535    0.928293
     18          8           0        2.674046   -1.207629    1.508790
     19          7           0       -1.239514   -0.959440   -1.029717
     20          1           0       -0.470441   -0.726473   -1.644719
     21          1           0       -0.672652   -2.948093   -0.503434
     22         35           0        1.933319   -0.050448   -0.965901
     23          1           0       -2.996428   -2.866081    0.967457
     24          1           0       -3.967439   -0.393129    0.665385
 ---------------------------------------------------------------------
 Rotational constants (GHZ):           0.7534360           0.4482985           0.3879509
 Standard basis: def2SVP (5D, 7F)
 There are   280 symmetry adapted cartesian basis functions of A   symmetry.
 There are   264 symmetry adapted basis functions of A   symmetry.
   264 basis functions,   475 primitive gaussians,   280 cartesian basis functions
    64 alpha electrons       64 beta electrons
       nuclear repulsion energy      1242.6543910295 Hartrees.
 NAtoms=   24 NActive=   24 NUniq=   24 SFac= 1.00D+00 NAtFMM=   60 NAOKFM=F Big=F
 Integral buffers will be    131072 words long.
 Raffenetti 2 integral format.
 Two-electron integral symmetry is turned on.
 Nuclear repulsion after empirical dispersion term =     1242.6336201186 Hartrees.
 Force inversion solution in PCM.
 ------------------------------------------------------------------------------
 Polarizable Continuum Model (PCM)
 =================================
 Model                : PCM.
 Atomic radii         : UFF (Universal Force Field).
 Polarization charges : Total charges.
 Charge compensation  : None.
 Solution method      : Matrix inversion.
 Cavity type          : Scaled VdW (van der Waals Surface) (Alpha=1.100).
 Cavity algorithm     : GePol (No added spheres)
                        Default sphere list used, NSphG=   24.
                        Lebedev-Laikov grids with approx.  5.0 points / Ang**2.
                        Smoothing algorithm: York/Karplus (Gamma=1.0000).
                        Polarization charges: spherical gaussians, with
                                              point-specific exponents (IZeta= 3).
                        Self-potential: point-specific (ISelfS= 7).
                        Self-field    : sphere-specific E.n sum rule (ISelfD= 2).
 1st derivatives      : Analytical E(r).r(x)/FMM algorithm (CHGder, D1EAlg=3).
                        Cavity 1st derivative terms included.
 2nd derivatives      : Analytical E(r).r(xy)/FMM algorithm (CHGder, D2EAlg=3).
                        Cavity 2nd derivative terms included.
 Solvent              : Toluene, Eps=   2.374100 Eps(inf)=   2.238315
 ------------------------------------------------------------------------------
 One-electron integrals computed using PRISM.
   1 Symmetry operations used in ECPInt.
 ECPInt:  NShTT=    7260 NPrTT=   28205 LenC2=    7047 LenP2D=   20225.
 LDataN:  DoStor=T MaxTD1= 4 Len=   56
 NBasis=   264 RedAO= T EigKep=  5.60D-04  NBF=   264
 NBsUse=   264 1.00D-06 EigRej= -1.00D+00 NBFU=   264
 ExpMin= 1.22D-01 ExpMax= 1.13D+05 ExpMxC= 1.70D+04 IAcc=3 IRadAn=         5 AccDes= 0.00D+00
 Harris functional with IExCor= 4639 and IRadAn=       5 diagonalized for initial guess.
 HarFok:  IExCor= 4639 AccDes= 0.00D+00 IRadAn=         5 IDoV= 1 UseB2=F ITyADJ=14
 ICtDFT=  3500011 ScaDFX=  1.000000  1.000000  1.000000  1.000000
 FoFCou: FMM=F IPFlag=           0 FMFlag=      100000 FMFlg1=           0
         NFxFlg=           0 DoJE=T BraDBF=F KetDBF=T FulRan=T
         wScrn=  0.000000 ICntrl=       500 IOpCl=  0 I1Cent=   200000004 NGrid=           0
         NMat0=    1 NMatS0=      1 NMatT0=    0 NMatD0=    1 NMtDS0=    0 NMtDT0=    0
 Petite list used in FoFCou.
 Requested convergence on RMS density matrix=1.00D-08 within 128 cycles.
 Requested convergence on MAX density matrix=1.00D-06.
 Requested convergence on             energy=1.00D-06.
 No special actions if energy rises.
 Inv3:  Mode=1 IEnd=    11607267.
 Iteration    1 A*A^-1 deviation from unit magnitude is 3.55D-15 for    726.
 Iteration    1 A*A^-1 deviation from orthogonality  is 1.78D-15 for   1095    516.
 Iteration    1 A^-1*A deviation from unit magnitude is 3.55D-15 for    726.
 Iteration    1 A^-1*A deviation from orthogonality  is 1.69D-15 for   1924    225.
 Error on total polarization charges =  0.00786
 SCF Done:  E(RwB97XD) =  -3165.52644361     A.U. after   16 cycles
            NFock= 16  Conv=0.41D-08     -V/T= 2.0028
 DoSCS=F DFT=T ScalE2(SS,OS)=  1.000000  1.000000
 Range of M.O.s used for correlation:     1   264
 NBasis=   264 NAE=    64 NBE=    64 NFC=     0 NFV=     0
 NROrb=    264 NOA=    64 NOB=    64 NVA=   200 NVB=   200
   1 Symmetry operations used in ECPInt.
 ECPInt:  NShTT=    7260 NPrTT=   28205 LenC2=    7047 LenP2D=   20225.
 LDataN:  DoStor=T MaxTD1= 5 Len=  102
 Symmetrizing basis deriv contribution to polar:
 IMax=3 JMax=2 DiffMx= 0.00D+00
 G2DrvN: will do    25 centers at a time, making    1 passes.
 Calling FoFCou, ICntrl=  3107 FMM=F I1Cent=   0 AccDes= 0.00D+00.
 NEqPCM:  Using equilibrium solvation (IEInf=0, Eps=   2.3741, EpsInf=   2.2383)
 G2PCM: DoFxE=T DoFxN=T DoGrad=T DoDP/DQ/DG/TGxP=FFFF NFrqRd=   0 IEInf=0 SqF1=F DoCFld=F IF1Alg=4.
 End of G2Drv F.D. properties file   721 does not exist.
 End of G2Drv F.D. properties file   722 does not exist.
 End of G2Drv F.D. properties file   788 does not exist.
          IDoAtm=111111111111111111111111
 NEqPCM:  Using equilibrium solvation (IEInf=0, Eps=   2.3741, EpsInf=   2.2383)
          Differentiating once with respect to nuclear coordinates.
 Keep R1 ints in memory in canonical form, NReq=1246293233.
          There are    75 degrees of freedom in the 1st order CPHF.  IDoFFX=6 NUNeed=     0.
     69 vectors produced by pass  0 Test12= 1.71D-14 1.33D-09 XBig12= 7.63D-02 7.59D-02.
 AX will form    69 AO Fock derivatives at one time.
     69 vectors produced by pass  1 Test12= 1.71D-14 1.33D-09 XBig12= 1.46D-02 2.93D-02.
     69 vectors produced by pass  2 Test12= 1.71D-14 1.33D-09 XBig12= 5.13D-04 4.48D-03.
     69 vectors produced by pass  3 Test12= 1.71D-14 1.33D-09 XBig12= 1.11D-05 4.67D-04.
     69 vectors produced by pass  4 Test12= 1.71D-14 1.33D-09 XBig12= 1.48D-07 4.73D-05.
     69 vectors produced by pass  5 Test12= 1.71D-14 1.33D-09 XBig12= 1.18D-09 3.23D-06.
     67 vectors produced by pass  6 Test12= 1.71D-14 1.33D-09 XBig12= 7.11D-12 2.89D-07.
     29 vectors produced by pass  7 Test12= 1.71D-14 1.33D-09 XBig12= 3.67D-14 1.96D-08.
 InvSVY:  IOpt=1 It=  1 EMax= 4.16D-16
 Solved reduced A of dimension   510 with    75 vectors.
 End of Minotr F.D. properties file   721 does not exist.
 End of Minotr F.D. properties file   722 does not exist.
 End of Minotr F.D. properties file   788 does not exist.

 **********************************************************************

            Population analysis using the SCF Density.

 **********************************************************************

 Orbital symmetries:
       Occupied  (A) (A) (A) (A) (A) (A) (A) (A) (A) (A) (A) (A)
                 (A) (A) (A) (A) (A) (A) (A) (A) (A) (A) (A) (A)
                 (A) (A) (A) (A) (A) (A) (A) (A) (A) (A) (A) (A)
                 (A) (A) (A) (A) (A) (A) (A) (A) (A) (A) (A) (A)
                 (A) (A) (A) (A) (A) (A) (A) (A) (A) (A) (A) (A)
                 (A) (A) (A) (A)
       Virtual   (A) (A) (A) (A) (A) (A) (A) (A) (A) (A) (A) (A)
                 (A) (A) (A) (A) (A) (A) (A) (A) (A) (A) (A) (A)
                 (A) (A) (A) (A) (A) (A) (A) (A) (A) (A) (A) (A)
                 (A) (A) (A) (A) (A) (A) (A) (A) (A) (A) (A) (A)
                 (A) (A) (A) (A) (A) (A) (A) (A) (A) (A) (A) (A)
                 (A) (A) (A) (A) (A) (A) (A) (A) (A) (A) (A) (A)
                 (A) (A) (A) (A) (A) (A) (A) (A) (A) (A) (A) (A)
                 (A) (A) (A) (A) (A) (A) (A) (A) (A) (A) (A) (A)
                 (A) (A) (A) (A) (A) (A) (A) (A) (A) (A) (A) (A)
                 (A) (A) (A) (A) (A) (A) (A) (A) (A) (A) (A) (A)
                 (A) (A) (A) (A) (A) (A) (A) (A) (A) (A) (A) (A)
                 (A) (A) (A) (A) (A) (A) (A) (A) (A) (A) (A) (A)
                 (A) (A) (A) (A) (A) (A) (A) (A) (A) (A) (A) (A)
                 (A) (A) (A) (A) (A) (A) (A) (A) (A) (A) (A) (A)
                 (A) (A) (A) (A) (A) (A) (A) (A) (A) (A) (A) (A)
                 (A) (A) (A) (A) (A) (A) (A) (A) (A) (A) (A) (A)
                 (A) (A) (A) (A) (A) (A) (A) (A)
 The electronic state is 1-A.
 Alpha  occ. eigenvalues -- -483.07191 -62.65402 -56.46145 -56.45839 -56.45808
 Alpha  occ. eigenvalues --  -19.30022 -19.26417 -14.49485 -10.46260 -10.40591
 Alpha  occ. eigenvalues --  -10.34855 -10.34296 -10.33549 -10.32611 -10.32511
 Alpha  occ. eigenvalues --  -10.31633 -10.28960 -10.28919  -8.82333  -6.64786
 Alpha  occ. eigenvalues --   -6.63653  -6.63552  -2.75165  -2.74868  -2.74790
 Alpha  occ. eigenvalues --   -2.73889  -2.73887  -1.17140  -1.14192  -1.08108
 Alpha  occ. eigenvalues --   -0.93194  -0.90493  -0.88500  -0.87435  -0.82499
 Alpha  occ. eigenvalues --   -0.79349  -0.74148  -0.68805  -0.68217  -0.66491
 Alpha  occ. eigenvalues --   -0.62388  -0.60568  -0.59399  -0.58134  -0.56124
 Alpha  occ. eigenvalues --   -0.54766  -0.54116  -0.53152  -0.52687  -0.51242
 Alpha  occ. eigenvalues --   -0.50299  -0.49363  -0.48188  -0.47670  -0.47440
 Alpha  occ. eigenvalues --   -0.45398  -0.44042  -0.39366  -0.38849  -0.38013
 Alpha  occ. eigenvalues --   -0.37026  -0.34934  -0.33701  -0.29434
 Alpha virt. eigenvalues --   -0.03575   0.02998   0.05409   0.08972   0.10829
 Alpha virt. eigenvalues --    0.13460   0.14485   0.15536   0.15950   0.17902
 Alpha virt. eigenvalues --    0.19927   0.20211   0.20528   0.22089   0.22804
 Alpha virt. eigenvalues --    0.24667   0.26288   0.27632   0.28946   0.30358
 Alpha virt. eigenvalues --    0.32040   0.32300   0.33775   0.35508   0.38516
 Alpha virt. eigenvalues --    0.39157   0.41241   0.41986   0.44869   0.47170
 Alpha virt. eigenvalues --    0.47883   0.48977   0.49952   0.51730   0.52661
 Alpha virt. eigenvalues --    0.52972   0.53482   0.54780   0.55698   0.56457
 Alpha virt. eigenvalues --    0.57294   0.57906   0.59203   0.60452   0.60583
 Alpha virt. eigenvalues --    0.62478   0.64423   0.65307   0.65938   0.66221
 Alpha virt. eigenvalues --    0.66636   0.68230   0.69989   0.71381   0.71556
 Alpha virt. eigenvalues --    0.72110   0.73279   0.73825   0.74577   0.75303
 Alpha virt. eigenvalues --    0.75856   0.76616   0.77208   0.78075   0.78455
 Alpha virt. eigenvalues --    0.79583   0.80675   0.81533   0.82366   0.83344
 Alpha virt. eigenvalues --    0.84519   0.85357   0.87798   0.88671   0.90958
 Alpha virt. eigenvalues --    0.91809   0.93733   0.95643   0.97163   0.99752
 Alpha virt. eigenvalues --    1.01734   1.03239   1.03933   1.05963   1.09467
 Alpha virt. eigenvalues --    1.11534   1.12939   1.13860   1.16426   1.20265
 Alpha virt. eigenvalues --    1.21088   1.23717   1.24075   1.26573   1.27133
 Alpha virt. eigenvalues --    1.29530   1.30294   1.32773   1.34848   1.37348
 Alpha virt. eigenvalues --    1.42405   1.43740   1.44596   1.49546   1.50105
 Alpha virt. eigenvalues --    1.51468   1.53837   1.55586   1.59047   1.65295
 Alpha virt. eigenvalues --    1.71484   1.71816   1.73857   1.74940   1.76405
 Alpha virt. eigenvalues --    1.77280   1.78653   1.80099   1.80924   1.82716
 Alpha virt. eigenvalues --    1.83988   1.84803   1.86258   1.88866   1.89512
 Alpha virt. eigenvalues --    1.90198   1.91707   1.93536   1.94231   1.94962
 Alpha virt. eigenvalues --    1.96257   1.97768   1.98110   2.01267   2.02026
 Alpha virt. eigenvalues --    2.02229   2.04069   2.05654   2.06737   2.07400
 Alpha virt. eigenvalues --    2.10551   2.12833   2.14554   2.18660   2.22402
 Alpha virt. eigenvalues --    2.23195   2.24273   2.25116   2.27741   2.30736
 Alpha virt. eigenvalues --    2.33551   2.36676   2.37402   2.40908   2.42618
 Alpha virt. eigenvalues --    2.44174   2.46267   2.48266   2.49987   2.53084
 Alpha virt. eigenvalues --    2.54194   2.56825   2.59117   2.66829   2.67720
 Alpha virt. eigenvalues --    2.71956   2.72224   2.74622   2.75917   2.77185
 Alpha virt. eigenvalues --    2.78374   2.80598   2.82650   2.84090   2.85227
 Alpha virt. eigenvalues --    2.87842   2.89245   2.92598   2.94946   2.96684
 Alpha virt. eigenvalues --    3.03434   3.05608   3.10652   3.11817   3.12378
 Alpha virt. eigenvalues --    3.14418   3.21816   3.25825   3.32586   3.40010
 Alpha virt. eigenvalues --    3.51851   3.54170   3.54876   3.55967   3.58724
 Alpha virt. eigenvalues --    3.63584   3.66408   3.68308   3.70762   3.87769
          Condensed to atoms (all electrons):
               1          2          3          4          5          6
     1  C    4.957345   0.007288  -0.149166  -0.013019   0.409301  -0.010825
     2  C    0.007288   5.067165  -0.010130   0.517507   0.002081  -0.005836
     3  C   -0.149166  -0.010130   5.203616   0.024430  -0.005936   0.411942
     4  C   -0.013019   0.517507   0.024430   5.150258  -0.007565  -0.004202
     5  C    0.409301   0.002081  -0.005936  -0.007565   5.016585   0.348468
     6  C   -0.010825  -0.005836   0.411942  -0.004202   0.348468   5.114200
     7  C    0.007902   0.000699   0.341184  -0.004292   0.009533  -0.080144
     8  H    0.000199   0.000517  -0.007347  -0.002314  -0.000711   0.009905
     9  H   -0.000272  -0.000114   0.005093   0.000455   0.000084  -0.009652
    10  C    0.000780   0.003885  -0.055658  -0.184132   0.000606   0.000706
    11  H   -0.000020  -0.000443   0.007984   0.014986   0.000010  -0.000157
    12  H    0.000012   0.001397  -0.009648   0.000960  -0.000282   0.004211
    13  C    0.001454  -0.009372  -0.015034   0.209453  -0.000219  -0.004360
    14  O    0.000012  -0.008675  -0.000391  -0.091330  -0.000005   0.000006
    15  H   -0.000594   0.003018   0.006237   0.361188   0.000690   0.006159
    16  H    0.006166   0.396728  -0.000786  -0.005774   0.001655   0.000656
    17  C    0.002882   0.243112  -0.000848  -0.022581   0.000143   0.000250
    18  O   -0.000034  -0.079768  -0.000005   0.005168  -0.000008   0.000000
    19  N    0.387392  -0.002184   0.417470  -0.004966  -0.054407  -0.098688
    20  H   -0.027502   0.002203  -0.021879  -0.001824   0.007248   0.010049
    21  H    0.435588  -0.001953   0.004422   0.000023  -0.052943   0.009820
    22  Br   0.000391  -0.121089  -0.002048   0.011547  -0.000018  -0.000142
    23  H   -0.062555   0.000134   0.013593  -0.000062   0.460430  -0.061563
    24  H    0.013316  -0.000010  -0.059715  -0.000242  -0.063279   0.459889
               7          8          9         10         11         12
     1  C    0.007902   0.000199  -0.000272   0.000780  -0.000020   0.000012
     2  C    0.000699   0.000517  -0.000114   0.003885  -0.000443   0.001397
     3  C    0.341184  -0.007347   0.005093  -0.055658   0.007984  -0.009648
     4  C   -0.004292  -0.002314   0.000455  -0.184132   0.014986   0.000960
     5  C    0.009533  -0.000711   0.000084   0.000606   0.000010  -0.000282
     6  C   -0.080144   0.009905  -0.009652   0.000706  -0.000157   0.004211
     7  C    4.627021   0.367898   0.358426   0.371601  -0.010521  -0.005904
     8  H    0.367898   0.650356  -0.025607  -0.023003  -0.010289   0.007497
     9  H    0.358426  -0.025607   0.639767  -0.015992  -0.000731  -0.013028
    10  C    0.371601  -0.023003  -0.015992   4.957701   0.341504   0.359835
    11  H   -0.010521  -0.010289  -0.000731   0.341504   0.621086  -0.016725
    12  H   -0.005904   0.007497  -0.013028   0.359835  -0.016725   0.627848
    13  C   -0.033936  -0.003519   0.006546   0.348199  -0.004634  -0.020646
    14  O    0.002765   0.000761  -0.000157  -0.086183   0.007962   0.002573
    15  H   -0.005863   0.000041   0.000036   0.008414  -0.000312   0.000417
    16  H    0.000009   0.000008  -0.000004  -0.000108   0.000003   0.000017
    17  C   -0.000417  -0.000129   0.000009   0.001755  -0.000015  -0.000086
    18  O    0.000001   0.000000   0.000000  -0.000006   0.000000   0.000000
    19  N   -0.049670  -0.007574   0.004638  -0.008759  -0.000011  -0.000062
    20  H   -0.010149   0.004603  -0.000036   0.000481  -0.000046   0.000012
    21  H   -0.000341  -0.000001   0.000010   0.000012  -0.000000  -0.000000
    22  Br   0.002713   0.000853   0.000016  -0.004053   0.000058   0.000040
    23  H   -0.000232   0.000006   0.000001   0.000006  -0.000000   0.000001
    24  H   -0.006642   0.000022   0.002100  -0.000452  -0.000009   0.000304
              13         14         15         16         17         18
     1  C    0.001454   0.000012  -0.000594   0.006166   0.002882  -0.000034
     2  C   -0.009372  -0.008675   0.003018   0.396728   0.243112  -0.079768
     3  C   -0.015034  -0.000391   0.006237  -0.000786  -0.000848  -0.000005
     4  C    0.209453  -0.091330   0.361188  -0.005774  -0.022581   0.005168
     5  C   -0.000219  -0.000005   0.000690   0.001655   0.000143  -0.000008
     6  C   -0.004360   0.000006   0.006159   0.000656   0.000250   0.000000
     7  C   -0.033936   0.002765  -0.005863   0.000009  -0.000417   0.000001
     8  H   -0.003519   0.000761   0.000041   0.000008  -0.000129   0.000000
     9  H    0.006546  -0.000157   0.000036  -0.000004   0.000009   0.000000
    10  C    0.348199  -0.086183   0.008414  -0.000108   0.001755  -0.000006
    11  H   -0.004634   0.007962  -0.000312   0.000003  -0.000015   0.000000
    12  H   -0.020646   0.002573   0.000417   0.000017  -0.000086   0.000000
    13  C    4.832981   0.690531  -0.030755   0.006900  -0.021172  -0.000264
    14  O    0.690531   7.702995   0.002402  -0.000096   0.010994  -0.000062
    15  H   -0.030755   0.002402   0.589987  -0.012015   0.008412  -0.000104
    16  H    0.006900  -0.000096  -0.012015   0.558767  -0.040084   0.000530
    17  C   -0.021172   0.010994   0.008412  -0.040084   4.759756   0.655835
    18  O   -0.000264  -0.000062  -0.000104   0.000530   0.655835   7.666642
    19  N    0.004293   0.000021  -0.001810  -0.001612  -0.003762  -0.000001
    20  H   -0.000109  -0.000043  -0.000038  -0.000025  -0.001591   0.000021
    21  H    0.000012   0.000000  -0.000021   0.000042   0.000540   0.000010
    22  Br   0.001188  -0.005253  -0.000143   0.003758   0.254726  -0.058897
    23  H   -0.000014  -0.000000  -0.000020  -0.000010  -0.000014  -0.000000
    24  H    0.000119  -0.000000   0.000812  -0.000012   0.000004  -0.000000
              19         20         21         22         23         24
     1  C    0.387392  -0.027502   0.435588   0.000391  -0.062555   0.013316
     2  C   -0.002184   0.002203  -0.001953  -0.121089   0.000134  -0.000010
     3  C    0.417470  -0.021879   0.004422  -0.002048   0.013593  -0.059715
     4  C   -0.004966  -0.001824   0.000023   0.011547  -0.000062  -0.000242
     5  C   -0.054407   0.007248  -0.052943  -0.000018   0.460430  -0.063279
     6  C   -0.098688   0.010049   0.009820  -0.000142  -0.061563   0.459889
     7  C   -0.049670  -0.010149  -0.000341   0.002713  -0.000232  -0.006642
     8  H   -0.007574   0.004603  -0.000001   0.000853   0.000006   0.000022
     9  H    0.004638  -0.000036   0.000010   0.000016   0.000001   0.002100
    10  C   -0.008759   0.000481   0.000012  -0.004053   0.000006  -0.000452
    11  H   -0.000011  -0.000046  -0.000000   0.000058  -0.000000  -0.000009
    12  H   -0.000062   0.000012  -0.000000   0.000040   0.000001   0.000304
    13  C    0.004293  -0.000109   0.000012   0.001188  -0.000014   0.000119
    14  O    0.000021  -0.000043   0.000000  -0.005253  -0.000000  -0.000000
    15  H   -0.001810  -0.000038  -0.000021  -0.000143  -0.000020   0.000812
    16  H   -0.001612  -0.000025   0.000042   0.003758  -0.000010  -0.000012
    17  C   -0.003762  -0.001591   0.000540   0.254726  -0.000014   0.000004
    18  O   -0.000001   0.000021   0.000010  -0.058897  -0.000000  -0.000000
    19  N    6.218097   0.366304  -0.036089  -0.011592   0.004406   0.005381
    20  H    0.366304   0.506863  -0.004802   0.022506  -0.000175  -0.000199
    21  H   -0.036089  -0.004802   0.608460   0.000870  -0.004030  -0.000192
    22  Br  -0.011592   0.022506   0.000870  35.027055   0.000001   0.000001
    23  H    0.004406  -0.000175  -0.004030   0.000001   0.634327  -0.006485
    24  H    0.005381  -0.000199  -0.000192   0.000001  -0.006485   0.646462
 Mulliken charges:
               1
     1  C    0.033959
     2  C   -0.006160
     3  C   -0.097378
     4  C    0.046328
     5  C   -0.071463
     6  C   -0.100692
     7  C    0.118358
     8  H    0.037827
     9  H    0.048414
    10  C   -0.017141
    11  H    0.050319
    12  H    0.061257
    13  C    0.042358
    14  O   -0.228827
    15  H    0.063860
    16  H    0.085288
    17  C    0.152280
    18  O   -0.189058
    19  N   -0.126817
    20  H    0.148127
    21  H    0.040564
    22  Br  -0.122488
    23  H    0.022256
    24  H    0.008827
 Sum of Mulliken charges =  -0.00000
 Mulliken charges with hydrogens summed into heavy atoms:
               1
     1  C    0.074523
     2  C    0.079128
     3  C   -0.097378
     4  C    0.110188
     5  C   -0.049206
     6  C   -0.091866
     7  C    0.204599
    10  C    0.094436
    13  C    0.042358
    14  O   -0.228827
    17  C    0.152280
    18  O   -0.189058
    19  N    0.021310
    22  Br  -0.122488
 APT charges:
               1
     1  C   -0.426812
     2  C   -0.464786
     3  C   -0.338416
     4  C   -0.262192
     5  C   -0.539413
     6  C   -0.616113
     7  C   -0.643450
     8  H    0.227432
     9  H    0.691524
    10  C   -0.737522
    11  H    0.531809
    12  H    0.487888
    13  C   -0.576227
    14  O    0.225950
    15  H    0.441361
    16  H    0.475740
    17  C   -0.941019
    18  O    0.851707
    19  N   -0.321235
    20  H    0.198213
    21  H    0.371369
    22  Br  -0.058075
    23  H    0.753749
    24  H    0.668519
 Sum of APT charges =  -0.00000
 APT charges with hydrogens summed into heavy atoms:
               1
     1  C   -0.055443
     2  C    0.010954
     3  C   -0.338416
     4  C    0.179168
     5  C    0.214336
     6  C    0.052405
     7  C    0.275506
    10  C    0.282175
    13  C   -0.576227
    14  O    0.225950
    17  C   -0.941019
    18  O    0.851707
    19  N   -0.123022
    22  Br  -0.058075
 Electronic spatial extent (au):  <R**2>=           3106.9129
 Charge=             -0.0000 electrons
 Dipole moment (field-independent basis, Debye):
    X=             -4.6564    Y=             -0.1996    Z=             -0.8535  Tot=              4.7382
 Quadrupole moment (field-independent basis, Debye-Ang):
   XX=           -101.9459   YY=            -94.4657   ZZ=            -89.9334
   XY=             -6.5162   XZ=             -7.8475   YZ=             -2.5549
 Traceless Quadrupole moment (field-independent basis, Debye-Ang):
   XX=             -6.4976   YY=              0.9826   ZZ=              5.5149
   XY=             -6.5162   XZ=             -7.8475   YZ=             -2.5549
 Octapole moment (field-independent basis, Debye-Ang**2):
  XXX=             41.4922  YYY=            -13.5944  ZZZ=            -33.6797  XYY=              4.6678
  XXY=             24.7943  XXZ=             -8.4610  XZZ=             15.9766  YZZ=              4.3931
  YYZ=            -11.9211  XYZ=              7.7949
 Hexadecapole moment (field-independent basis, Debye-Ang**3):
 XXXX=          -2078.1960 YYYY=          -1170.8580 ZZZZ=           -625.9909 XXXY=            -18.4836
 XXXZ=           -119.5389 YYYX=            -50.2937 YYYZ=            -26.3305 ZZZX=            -71.0829
 ZZZY=             -2.2636 XXYY=           -545.7325 XXZZ=           -461.5876 YYZZ=           -301.4311
 XXYZ=             -7.7135 YYXZ=            -44.0274 ZZXY=             -4.0225
 N-N= 1.242633620119D+03 E-N=-1.001362891201D+04  KE= 3.156738349271D+03
  Exact polarizability:       0.000       0.000       0.000       0.000       0.000       0.000
 Approx polarizability:     164.886     -13.094     156.735      -4.969     -21.067     141.421
   1 Symmetry operations used in ECPInt.
 ECPInt:  NShTT=    7260 NPrTT=   28205 LenC2=    7047 LenP2D=   20225.
 LDataN:  DoStor=T MaxTD1= 6 Len=  172
 D2PCM: PCM CHGder 2nd derivatives, FixD1E=F FixD2E=F DoIter=F DoCFld=F I1PDM=0
 Calling FoFJK, ICntrl=    100127 FMM=F ISym2X=0 I1Cent= 0 IOpClX= 0 NMat=1 NMatS=1 NMatT=0.
 ***** Axes restored to original set *****
 -------------------------------------------------------------------
 Center     Atomic                   Forces (Hartrees/Bohr)
 Number     Number              X              Y              Z
 -------------------------------------------------------------------
      1        6          -0.012510632    0.002442579    0.008033072
      2        6          -0.003776658   -0.019605864    0.036306126
      3        6          -0.011646536    0.010062875    0.007858096
      4        6           0.001050866    0.005776876   -0.028856114
      5        6           0.001585506    0.009406928   -0.011173690
      6        6           0.010284781    0.000279037    0.013584346
      7        6           0.004864483   -0.006440751   -0.011494521
      8        1          -0.000574314    0.007030982   -0.003591295
      9        1          -0.001335593   -0.005496761    0.003308686
     10        6          -0.006413238    0.000711511   -0.007554757
     11        1           0.003425889    0.006456090    0.002045850
     12        1          -0.000307362   -0.011118340   -0.002601564
     13        6           0.013402642    0.033230360    0.033701002
     14        8          -0.015174890   -0.019280747   -0.010774748
     15        1          -0.001561300   -0.009930276   -0.004350547
     16        1           0.001249581   -0.006247075   -0.007574574
     17        6           0.036685586    0.033157204   -0.059850093
     18        8          -0.036861767   -0.008915144    0.060440401
     19        7           0.007851640   -0.013206785   -0.002086858
     20        1           0.002960614   -0.000415922   -0.001497797
     21        1          -0.002808584    0.001498206   -0.003656159
     22       35           0.008872310   -0.003444243   -0.010139066
     23        1          -0.000436791   -0.001518532   -0.003716598
     24        1           0.001173768   -0.004432208    0.003640801
 -------------------------------------------------------------------
 Cartesian Forces:  Max     0.060440401 RMS     0.016329453
 FormGI is forming the generalized inverse of G from B-inverse, IUseBI=4.

 GradGradGradGradGradGradGradGradGradGradGradGradGradGradGradGradGradGrad
 Berny optimization.
 Internal  Forces:  Max     0.070505149 RMS     0.010405699
 Search for a saddle point.
 Step number   1 out of a maximum of   50
 All quantities printed in internal units (Hartrees-Bohrs-Radians)
 Swapping is turned off.
 Second derivative matrix not updated -- analytic derivatives used.
 ITU=  0
     Eigenvalues ---   -0.00415  -0.00248   0.00010   0.00770   0.01209
     Eigenvalues ---    0.01257   0.01358   0.01545   0.01586   0.02214
     Eigenvalues ---    0.02409   0.02497   0.03284   0.03939   0.04476
     Eigenvalues ---    0.04574   0.05002   0.05450   0.05847   0.07339
     Eigenvalues ---    0.07402   0.07793   0.08626   0.09350   0.09357
     Eigenvalues ---    0.10186   0.10703   0.11122   0.11299   0.11834
     Eigenvalues ---    0.11984   0.13298   0.15310   0.16236   0.18487
     Eigenvalues ---    0.19944   0.21698   0.22164   0.23272   0.23761
     Eigenvalues ---    0.25977   0.28474   0.30043   0.31542   0.35818
     Eigenvalues ---    0.35896   0.36195   0.36478   0.36675   0.36932
     Eigenvalues ---    0.37292   0.38437   0.38950   0.39051   0.39519
     Eigenvalues ---    0.39553   0.39776   0.44227   0.45379   0.47692
     Eigenvalues ---    0.52711   0.54488   0.60741   0.74087   0.81325
     Eigenvalues ---    1.54198
 Eigenvectors required to have negative eigenvalues:
                          D14       D16       D13       D15       D34
   1                    0.48764   0.45175   0.42273   0.38684  -0.21994
                          D32       D33       D31       A10       D41
   1                   -0.18453  -0.15331  -0.11790   0.10168  -0.09561
 RFO step:  Lambda0=9.835997412D-04 Lambda=-2.41861668D-02.
 Linear search not attempted -- option 19 set.
 Maximum step size (   0.100) exceeded in Quadratic search.
    -- Step size scaled by   0.417
 Iteration  1 RMS(Cart)=  0.08483793 RMS(Int)=  0.00201147
 Iteration  2 RMS(Cart)=  0.00367580 RMS(Int)=  0.00006218
 Iteration  3 RMS(Cart)=  0.00000657 RMS(Int)=  0.00006208
 Iteration  4 RMS(Cart)=  0.00000000 RMS(Int)=  0.00006208
 Variable       Old X    -DE/DX   Delta X   Delta X   Delta X     New X
                                 (Linear)    (Quad)   (Total)
    R1        2.61857  -0.00356   0.00000  -0.00499  -0.00497   2.61360
    R2        2.58968  -0.00438   0.00000  -0.00363  -0.00366   2.58602
    R3        2.04451   0.00415   0.00000   0.00383   0.00383   2.04833
    R4        2.57036  -0.01950   0.00000  -0.01841  -0.01841   2.55195
    R5        2.03939   0.00924   0.00000   0.01023   0.01023   2.04963
    R6        2.73186   0.02351   0.00000   0.02216   0.02216   2.75401
    R7        2.62835  -0.00361   0.00000  -0.00454  -0.00453   2.62381
    R8        2.86995  -0.00964   0.00000  -0.01369  -0.01369   2.85626
    R9        2.59718  -0.00507   0.00000  -0.00555  -0.00559   2.59159
   R10        2.76142   0.01496   0.00000   0.02710   0.02710   2.78852
   R11        2.03894   0.00993   0.00000   0.01105   0.01105   2.04999
   R12        2.64461   0.01542   0.00000   0.01592   0.01596   2.66057
   R13        2.04592   0.00374   0.00000   0.00386   0.00386   2.04978
   R14        2.04356   0.00558   0.00000   0.00551   0.00551   2.04907
   R15        2.06368   0.00587   0.00000   0.00593   0.00593   2.06961
   R16        2.06207   0.00590   0.00000   0.00660   0.00660   2.06868
   R17        2.94028   0.00051   0.00000  -0.01029  -0.01029   2.92999
   R18        2.06018   0.00547   0.00000   0.00614   0.00614   2.06633
   R19        2.05860   0.01062   0.00000   0.01117   0.01117   2.06977
   R20        2.89853  -0.00304   0.00000  -0.01317  -0.01317   2.88536
   R21        2.32009  -0.02571   0.00000  -0.01564  -0.01564   2.30445
   R22        2.32101  -0.07051   0.00000  -0.04157  -0.04157   2.27944
   R23        3.78308  -0.01209   0.00000  -0.00894  -0.00894   3.77414
   R24        1.91224  -0.00028   0.00000   0.00084   0.00084   1.91309
    A1        1.87857  -0.00152   0.00000   0.00121   0.00101   1.87958
    A2        2.29827  -0.00041   0.00000  -0.00425  -0.00423   2.29404
    A3        2.10294   0.00218   0.00000   0.00443   0.00446   2.10739
    A4        2.08160  -0.00395   0.00000  -0.00327  -0.00328   2.07832
    A5        2.23981   0.00621   0.00000   0.01107   0.01106   2.25087
    A6        1.96167  -0.00232   0.00000  -0.00767  -0.00769   1.95398
    A7        2.30833  -0.00583   0.00000  -0.01509  -0.01502   2.29331
    A8        1.85798   0.00040   0.00000   0.00414   0.00397   1.86195
    A9        2.11648   0.00546   0.00000   0.01068   0.01074   2.12722
   A10        2.24852  -0.00593   0.00000  -0.00432  -0.00436   2.24416
   A11        2.05643  -0.00148   0.00000  -0.00674  -0.00678   2.04965
   A12        1.97813   0.00745   0.00000   0.01128   0.01124   1.98937
   A13        1.86909  -0.00077   0.00000  -0.00031  -0.00041   1.86868
   A14        2.20959  -0.00109   0.00000  -0.00386  -0.00383   2.20577
   A15        2.20440   0.00189   0.00000   0.00428   0.00431   2.20872
   A16        1.89024  -0.00357   0.00000  -0.00418  -0.00430   1.88594
   A17        2.19488   0.00002   0.00000  -0.00197  -0.00194   2.19294
   A18        2.19647   0.00370   0.00000   0.00675   0.00679   2.20326
   A19        1.93700  -0.01006   0.00000  -0.00354  -0.00357   1.93343
   A20        1.91673  -0.00926   0.00000  -0.00618  -0.00619   1.91054
   A21        1.97855   0.02819   0.00000   0.00609   0.00607   1.98462
   A22        1.82117   0.00585   0.00000   0.01027   0.01030   1.83148
   A23        1.90392  -0.00428   0.00000   0.00620   0.00620   1.91012
   A24        1.89955  -0.01252   0.00000  -0.01275  -0.01274   1.88681
   A25        1.92349  -0.00840   0.00000   0.00341   0.00344   1.92693
   A26        1.90808  -0.00993   0.00000  -0.00550  -0.00550   1.90258
   A27        2.01403   0.03300   0.00000   0.01064   0.01066   2.02469
   A28        1.82901   0.00660   0.00000   0.01234   0.01233   1.84134
   A29        1.90764  -0.01535   0.00000  -0.01959  -0.01958   1.88806
   A30        1.87185  -0.00822   0.00000  -0.00106  -0.00105   1.87080
   A31        2.03240   0.01264   0.00000   0.00660   0.00651   2.03892
   A32        2.15900  -0.01459   0.00000  -0.02156  -0.02164   2.13736
   A33        2.09173   0.00202   0.00000   0.01517   0.01508   2.10681
   A34        2.11787   0.00863   0.00000   0.02803   0.02802   2.14590
   A35        2.05793   0.00867   0.00000  -0.00915  -0.00916   2.04877
   A36        2.10306  -0.01693   0.00000  -0.01824  -0.01825   2.08481
   A37        1.91383   0.00677   0.00000   0.00621   0.00595   1.91977
   A38        2.18527  -0.00358   0.00000  -0.00245  -0.00243   2.18285
   A39        2.17347  -0.00246   0.00000  -0.00080  -0.00077   2.17270
    D1       -0.08238   0.00476   0.00000   0.02198   0.02192  -0.06046
    D2        3.07360   0.00271   0.00000   0.01438   0.01434   3.08794
    D3       -3.13301   0.00134   0.00000   0.00331   0.00332  -3.12969
    D4        0.02296  -0.00070   0.00000  -0.00428  -0.00425   0.01871
    D5        0.15577  -0.00690   0.00000  -0.03741  -0.03744   0.11834
    D6       -3.13645  -0.00185   0.00000  -0.01656  -0.01659   3.13014
    D7       -3.06463  -0.00407   0.00000  -0.02176  -0.02174  -3.08636
    D8       -0.07367   0.00098   0.00000  -0.00091  -0.00089  -0.07456
    D9        3.13131  -0.00152   0.00000  -0.02737  -0.02733   3.10397
   D10       -0.02659   0.00218   0.00000  -0.00883  -0.00886  -0.03545
   D11        0.00658   0.00334   0.00000  -0.03778  -0.03775  -0.03117
   D12        3.13187   0.00705   0.00000  -0.01924  -0.01928   3.11259
   D13        2.45170  -0.00264   0.00000   0.07891   0.07890   2.53060
   D14       -0.78915   0.00055   0.00000   0.08510   0.08510  -0.70405
   D15       -0.67398   0.00197   0.00000   0.06906   0.06907  -0.60492
   D16        2.36835   0.00516   0.00000   0.07526   0.07526   2.44362
   D17       -2.99943  -0.00545   0.00000  -0.01386  -0.01388  -3.01331
   D18        0.08426  -0.00285   0.00000  -0.00273  -0.00279   0.08147
   D19        0.11141  -0.00432   0.00000  -0.02400  -0.02395   0.08746
   D20       -3.08808  -0.00171   0.00000  -0.01286  -0.01286  -3.10094
   D21       -2.77411   0.00135   0.00000  -0.06392  -0.06392  -2.83803
   D22       -0.76954  -0.00279   0.00000  -0.05710  -0.05710  -0.82664
   D23        1.35931  -0.00618   0.00000  -0.07388  -0.07387   1.28545
   D24        0.40199   0.00019   0.00000  -0.05236  -0.05237   0.34961
   D25        2.40656  -0.00394   0.00000  -0.04555  -0.04555   2.36101
   D26       -1.74777  -0.00734   0.00000  -0.06232  -0.06232  -1.81009
   D27       -0.16539   0.00642   0.00000   0.03753   0.03761  -0.12778
   D28        3.12559   0.00154   0.00000   0.01704   0.01709  -3.14050
   D29        2.94957   0.00717   0.00000   0.02822   0.02818   2.97775
   D30       -0.04263   0.00229   0.00000   0.00773   0.00766  -0.03497
   D31        2.42667   0.01068   0.00000  -0.05730  -0.05743   2.36924
   D32       -0.70500   0.00363   0.00000  -0.08231  -0.08210  -0.78709
   D33       -0.69922   0.00718   0.00000  -0.07503  -0.07524  -0.77445
   D34        2.45230   0.00013   0.00000  -0.10004  -0.09991   2.35239
   D35       -0.01859  -0.00022   0.00000   0.00148   0.00146  -0.01712
   D36       -3.10221  -0.00267   0.00000  -0.00930  -0.00934  -3.11155
   D37        3.10868   0.00179   0.00000   0.00896   0.00896   3.11765
   D38        0.02506  -0.00067   0.00000  -0.00183  -0.00184   0.02322
   D39        2.93566   0.00331   0.00000   0.04120   0.04121   2.97687
   D40       -1.34611   0.00096   0.00000   0.05480   0.05481  -1.29130
   D41        0.76491   0.00553   0.00000   0.05660   0.05660   0.82151
   D42        0.76781  -0.00043   0.00000   0.03677   0.03675   0.80456
   D43        2.76922  -0.00279   0.00000   0.05037   0.05035   2.81957
   D44       -1.40295   0.00178   0.00000   0.05217   0.05214  -1.35080
   D45       -1.20912   0.00145   0.00000   0.02810   0.02812  -1.18100
   D46        0.79229  -0.00090   0.00000   0.04170   0.04172   0.83401
   D47        2.90331   0.00366   0.00000   0.04350   0.04351   2.94682
   D48       -1.02866  -0.00422   0.00000   0.02596   0.02583  -1.00283
   D49        2.10341   0.00243   0.00000   0.04972   0.04982   2.15323
   D50        3.07553  -0.00533   0.00000   0.02943   0.02934   3.10487
   D51       -0.07559   0.00133   0.00000   0.05320   0.05333  -0.02225
   D52        1.10189  -0.00134   0.00000   0.02512   0.02501   1.12690
   D53       -2.04923   0.00532   0.00000   0.04889   0.04900  -2.00022
         Item               Value     Threshold  Converged?
 Maximum Force            0.070505     0.000450     NO 
 RMS     Force            0.010406     0.000300     NO 
 Maximum Displacement     0.317502     0.001800     NO 
 RMS     Displacement     0.085065     0.001200     NO 
 Predicted change in Energy=-8.427003D-03
 GradGradGradGradGradGradGradGradGradGradGradGradGradGradGradGradGradGrad

                          Input orientation:                          
 ---------------------------------------------------------------------
 Center     Atomic      Atomic             Coordinates (Angstroms)
 Number     Number       Type             X           Y           Z
 ---------------------------------------------------------------------
      1          6           0       -4.911400    3.724597    0.017710
      2          6           0       -1.744731    4.015620    0.051670
      3          6           0       -4.380356    3.370911    2.169409
      4          6           0       -1.721339    3.343791    1.222898
      5          6           0       -5.000745    2.362550    0.240633
      6          6           0       -4.681068    2.143519    1.594166
      7          6           0       -3.835240    3.728972    3.532923
      8          1           0       -4.009009    4.787203    3.755160
      9          1           0       -4.391095    3.184056    4.302632
     10          6           0       -2.328806    3.405749    3.706673
     11          1           0       -1.952179    3.833865    4.639682
     12          1           0       -2.206115    2.322398    3.811194
     13          6           0       -1.412175    3.856243    2.571703
     14          8           0       -0.464999    4.592354    2.790997
     15          1           0       -1.955402    2.284866    1.196480
     16          1           0       -1.960171    3.473568   -0.862746
     17          6           0       -1.506852    5.431680   -0.197500
     18          8           0       -0.961842    5.840180   -1.193026
     19          7           0       -4.625582    4.323977    1.214263
     20          1           0       -4.493841    5.318537    1.349813
     21          1           0       -5.083491    4.318622   -0.872475
     22         35           0       -2.266934    6.735072    1.111015
     23          1           0       -5.261310    1.606397   -0.492109
     24          1           0       -4.630217    1.182273    2.093335
 ---------------------------------------------------------------------
                    Distance matrix (angstroms):
                    1          2          3          4          5
     1  C    0.000000
     2  C    3.180195   0.000000
     3  C    2.244306   3.441945   0.000000
     4  C    3.431323   1.350435   2.822585   0.000000
     5  C    1.383057   3.656497   2.263151   3.561205   0.000000
     6  C    2.244566   3.808691   1.388462   3.215352   1.407913
     7  C    3.676257   4.070813   1.511466   3.154863   3.750292
     8  H    3.988982   4.408870   2.158329   3.705297   4.383421
     9  H    4.350110   5.075964   2.141418   4.078954   4.188840
    10  C    4.514411   3.751284   2.563835   2.557733   4.498995
    11  H    5.489223   4.596295   3.494656   3.459462   5.550690
    12  H    4.865722   4.148963   2.919274   2.824452   4.534366
    13  C    4.334142   2.546872   3.034383   1.475624   4.532421
    14  O    5.311743   3.078027   4.148290   2.365637   5.661217
    15  H    3.492885   2.085780   2.829573   1.084806   3.192771
    16  H    3.089979   1.084616   3.880953   2.103281   3.420072
    17  C    3.814629   1.457360   4.255120   2.534328   4.671060
    18  O    4.641184   2.343331   5.393467   3.556049   5.519241
    19  N    1.368463   3.121860   1.371413   3.065202   2.221689
    20  H    2.118844   3.307623   2.116096   3.406243   3.197669
    21  H    1.083932   3.477524   3.262761   4.079822   2.252126
    22  Br   4.153490   2.964849   4.111487   3.436711   5.229745
    23  H    2.206609   4.297253   3.312592   4.300137   1.084699
    24  H    3.294039   4.530152   2.204168   3.727115   2.227746
                    6          7          8          9         10
     6  C    0.000000
     7  C    2.643458   0.000000
     8  H    3.480032   1.095188   0.000000
     9  H    2.915920   1.094696   1.736605   0.000000
    10  C    3.404269   1.550485   2.175741   2.158089   0.000000
    11  H    4.424848   2.186742   2.433472   2.546403   1.093452
    12  H    3.327552   2.170238   3.054313   2.399604   1.095275
    13  C    3.817678   2.609863   3.001800   3.510258   1.526865
    14  O    5.020402   3.557303   3.677986   4.436504   2.391709
    15  H    2.758149   3.328393   4.126237   4.048372   2.774325
    16  H    3.899837   4.785710   5.220003   5.716147   4.584767
    17  C    4.908942   4.715576   4.722251   5.798435   4.474659
    18  O    5.938551   5.920153   5.905805   7.001216   5.639335
    19  N    2.214002   2.520884   2.655352   3.300367   3.511471
    20  H    3.189906   2.779648   2.510592   3.644956   3.728394
    21  H    3.313206   4.616638   4.773791   5.343068   5.421275
    22  Br   5.209975   4.166757   3.717597   5.225725   4.222045
    23  H    2.231081   4.768635   5.452071   5.122091   5.428353
    24  H    1.084320   3.031514   4.017845   2.990870   3.583740
                   11         12         13         14         15
    11  H    0.000000
    12  H    1.742242   0.000000
    13  C    2.137439   2.125879   0.000000
    14  O    2.490912   3.037266   1.219464   0.000000
    15  H    3.775586   2.626975   2.157675   3.176206   0.000000
    16  H    5.514218   4.819896   3.498882   4.103299   2.377697
    17  C    5.113674   5.121155   3.187389   3.274300   3.470852
    18  O    6.247123   6.242213   4.279251   4.204327   4.397403
    19  N    4.372732   4.074824   3.519573   4.457417   3.359784
    20  H    4.414469   4.502103   3.623255   4.340037   3.958578
    21  H    6.357985   5.848158   5.055167   5.901391   4.266342
    22  Br   4.579036   5.173622   3.339443   3.265050   4.461915
    23  H    6.499788   5.325907   5.409675   6.534472   3.773682
    24  H    4.548265   3.182325   4.211264   5.428114   3.028976
                   16         17         18         19         20
    16  H    0.000000
    17  C    2.117134   0.000000
    18  O    2.589710   1.206226   0.000000
    19  N    3.484477   3.598132   4.638631   0.000000
    20  H    3.836510   3.365869   4.383282   1.012362   0.000000
    21  H    3.235636   3.806157   4.405211   2.136395   2.507205
    22  Br   3.824559   1.997189   2.795121   3.374501   2.650040
    23  H    3.810672   5.368011   6.074671   3.271254   4.214459
    24  H    4.595388   5.749851   6.778882   3.262376   4.204771
                   21         22         23         24
    21  H    0.000000
    22  Br   4.207904   0.000000
    23  H    2.744533   6.151391   0.000000
    24  H    4.340296   6.114216   2.694936   0.000000
 Stoichiometry    C10H10BrNO2
 Framework group  C1[X(C10H10BrNO2)]
 Deg. of freedom    66
 Full point group                 C1      NOp   1
 Largest Abelian subgroup         C1      NOp   1
 Largest concise Abelian subgroup C1      NOp   1
                         Standard orientation:                         
 ---------------------------------------------------------------------
 Center     Atomic      Atomic             Coordinates (Angstroms)
 Number     Number       Type             X           Y           Z
 ---------------------------------------------------------------------
      1          6           0       -1.626698   -2.136326   -0.343599
      2          6           0        0.428213   -0.611584    1.544825
      3          6           0       -2.170026    0.023416   -0.621489
      4          6           0       -0.389922    0.462622    1.524511
      5          6           0       -2.784409   -1.911435    0.378881
      6          6           0       -3.131895   -0.559883    0.192388
      7          6           0       -1.946135    1.460773   -1.031864
      8          1           0       -1.294694    1.516995   -1.910443
      9          1           0       -2.895211    1.899739   -1.355782
     10          6           0       -1.365518    2.348759    0.098786
     11          1           0       -1.069641    3.324356   -0.296570
     12          1           0       -2.154085    2.556183    0.830062
     13          6           0       -0.180686    1.766386    0.865813
     14          8           0        0.875818    2.371661    0.933148
     15          1           0       -1.331779    0.383726    2.056944
     16          1           0        0.133543   -1.487975    2.111836
     17          6           0        1.720807   -0.791513    0.896193
     18          8           0        2.619773   -1.426569    1.389695
     19          7           0       -1.323224   -0.981863   -1.012786
     20          1           0       -0.519696   -0.852624   -1.614881
     21          1           0       -1.030545   -3.030771   -0.483162
     22         35           0        1.926606   -0.074830   -0.956583
     23          1           0       -3.318684   -2.638650    0.980778
     24          1           0       -3.974947   -0.046926    0.641708
 ---------------------------------------------------------------------
 Rotational constants (GHZ):           0.7520004           0.4456074           0.3846099
 Standard basis: def2SVP (5D, 7F)
 There are   280 symmetry adapted cartesian basis functions of A   symmetry.
 There are   264 symmetry adapted basis functions of A   symmetry.
   264 basis functions,   475 primitive gaussians,   280 cartesian basis functions
    64 alpha electrons       64 beta electrons
       nuclear repulsion energy      1240.8970423731 Hartrees.
 NAtoms=   24 NActive=   24 NUniq=   24 SFac= 1.00D+00 NAtFMM=   60 NAOKFM=F Big=F
 Integral buffers will be    131072 words long.
 Raffenetti 2 integral format.
 Two-electron integral symmetry is turned on.
 Nuclear repulsion after empirical dispersion term =     1240.8764331044 Hartrees.
 ------------------------------------------------------------------------------
 Polarizable Continuum Model (PCM)
 =================================
 Model                : PCM.
 Atomic radii         : UFF (Universal Force Field).
 Polarization charges : Total charges.
 Charge compensation  : None.
 Solution method      : Matrix inversion.
 Cavity type          : Scaled VdW (van der Waals Surface) (Alpha=1.100).
 Cavity algorithm     : GePol (No added spheres)
                        Default sphere list used, NSphG=   24.
                        Lebedev-Laikov grids with approx.  5.0 points / Ang**2.
                        Smoothing algorithm: York/Karplus (Gamma=1.0000).
                        Polarization charges: spherical gaussians, with
                                              point-specific exponents (IZeta= 3).
                        Self-potential: point-specific (ISelfS= 7).
                        Self-field    : sphere-specific E.n sum rule (ISelfD= 2).
 1st derivatives      : Analytical E(r).r(x)/FMM algorithm (CHGder, D1EAlg=3).
                        Cavity 1st derivative terms included.
 Solvent              : Toluene, Eps=   2.374100 Eps(inf)=   2.238315
 ------------------------------------------------------------------------------
 One-electron integrals computed using PRISM.
   1 Symmetry operations used in ECPInt.
 ECPInt:  NShTT=    7260 NPrTT=   28205 LenC2=    7045 LenP2D=   20205.
 LDataN:  DoStor=T MaxTD1= 4 Len=   56
 NBasis=   264 RedAO= T EigKep=  5.84D-04  NBF=   264
 NBsUse=   264 1.00D-06 EigRej= -1.00D+00 NBFU=   264
 Initial guess from the checkpoint file:  "imda-2_1_opt_dft.chk"
 B after Tr=     0.000000   -0.000000   -0.000000
         Rot=    0.999575   -0.006622   -0.000342    0.028399 Ang=  -3.34 deg.
 ExpMin= 1.22D-01 ExpMax= 1.13D+05 ExpMxC= 1.70D+04 IAcc=3 IRadAn=         5 AccDes= 0.00D+00
 Harris functional with IExCor= 4639 and IRadAn=       5 diagonalized for initial guess.
 HarFok:  IExCor= 4639 AccDes= 0.00D+00 IRadAn=         5 IDoV= 1 UseB2=F ITyADJ=14
 ICtDFT=  3500011 ScaDFX=  1.000000  1.000000  1.000000  1.000000
 FoFCou: FMM=F IPFlag=           0 FMFlag=      100000 FMFlg1=           0
         NFxFlg=           0 DoJE=T BraDBF=F KetDBF=T FulRan=T
         wScrn=  0.000000 ICntrl=       500 IOpCl=  0 I1Cent=   200000004 NGrid=           0
         NMat0=    1 NMatS0=      1 NMatT0=    0 NMatD0=    1 NMtDS0=    0 NMtDT0=    0
 Petite list used in FoFCou.
 Requested convergence on RMS density matrix=1.00D-08 within 128 cycles.
 Requested convergence on MAX density matrix=1.00D-06.
 Requested convergence on             energy=1.00D-06.
 No special actions if energy rises.
 Inv3:  Mode=1 IEnd=    11773083.
 Iteration    1 A*A^-1 deviation from unit magnitude is 2.78D-15 for    765.
 Iteration    1 A*A^-1 deviation from orthogonality  is 1.93D-15 for   1700    188.
 Iteration    1 A^-1*A deviation from unit magnitude is 2.78D-15 for    364.
 Iteration    1 A^-1*A deviation from orthogonality  is 2.12D-15 for   1120    300.
 Error on total polarization charges =  0.00761
 SCF Done:  E(RwB97XD) =  -3165.53481908     A.U. after   15 cycles
            NFock= 15  Conv=0.31D-08     -V/T= 2.0028
   1 Symmetry operations used in ECPInt.
 ECPInt:  NShTT=    7260 NPrTT=   28205 LenC2=    7045 LenP2D=   20205.
 LDataN:  DoStor=T MaxTD1= 5 Len=  102
 D1PCM: PCM CHGder 1st derivatives, ID1Alg=3 FixD1E=F DoIter=F DoCFld=F I1PDM=0.
 Calling FoFJK, ICntrl=      2127 FMM=F ISym2X=0 I1Cent= 0 IOpClX= 0 NMat=1 NMatS=1 NMatT=0.
 ***** Axes restored to original set *****
 -------------------------------------------------------------------
 Center     Atomic                   Forces (Hartrees/Bohr)
 Number     Number              X              Y              Z
 -------------------------------------------------------------------
      1        6          -0.008819561    0.001743376    0.005338864
      2        6          -0.003256196   -0.012912805    0.021434551
      3        6          -0.008897345    0.006547882    0.005333023
      4        6           0.000802407    0.002868364   -0.017047829
      5        6           0.001059693    0.005351482   -0.007112492
      6        6           0.007781075    0.000320740    0.007691766
      7        6           0.002749721   -0.004945628   -0.006730975
      8        1           0.000199708    0.004419945   -0.003141003
      9        1          -0.000987563   -0.002919170    0.002359134
     10        6          -0.003752646   -0.000226153   -0.004139863
     11        1           0.002104159    0.003943012    0.001297027
     12        1          -0.000440997   -0.006824861   -0.002337223
     13        6           0.008131670    0.021032996    0.021725417
     14        8          -0.009129603   -0.011060092   -0.006777792
     15        1          -0.000794014   -0.005963999   -0.002974480
     16        1           0.001287364   -0.003657243   -0.004929462
     17        6           0.019335615    0.021987259   -0.033781047
     18        8          -0.018812701   -0.006985789    0.034910145
     19        7           0.005828742   -0.007807274   -0.001471104
     20        1           0.002453592   -0.000366596   -0.001038450
     21        1          -0.002049302    0.000751614   -0.002172830
     22       35           0.004641454   -0.001786937   -0.006520413
     23        1          -0.000328179   -0.000938455   -0.002281415
     24        1           0.000892908   -0.002571670    0.002366453
 -------------------------------------------------------------------
 Cartesian Forces:  Max     0.034910145 RMS     0.009689564

 GradGradGradGradGradGradGradGradGradGradGradGradGradGradGradGradGradGrad
 Berny optimization.
 FormGI is forming the generalized inverse of G from B-inverse, IUseBI=4.
 Internal  Forces:  Max     0.039678173 RMS     0.006171838
 Search for a saddle point.
 Step number   2 out of a maximum of   50
 All quantities printed in internal units (Hartrees-Bohrs-Radians)
 Swapping is turned off.
 Update second derivatives using D2CorX and points    1    2
 ITU=  0  0
     Eigenvalues ---   -0.00412  -0.00219   0.00009   0.00769   0.01210
     Eigenvalues ---    0.01259   0.01358   0.01547   0.01586   0.02214
     Eigenvalues ---    0.02406   0.02498   0.03285   0.03937   0.04476
     Eigenvalues ---    0.04573   0.05003   0.05420   0.05838   0.07339
     Eigenvalues ---    0.07402   0.07793   0.08625   0.09349   0.09353
     Eigenvalues ---    0.10184   0.10700   0.11118   0.11297   0.11835
     Eigenvalues ---    0.11985   0.13298   0.15315   0.16239   0.18483
     Eigenvalues ---    0.19943   0.21713   0.22161   0.23254   0.23758
     Eigenvalues ---    0.25976   0.28472   0.30044   0.31553   0.35818
     Eigenvalues ---    0.35895   0.36189   0.36469   0.36676   0.36919
     Eigenvalues ---    0.37284   0.38436   0.38951   0.39051   0.39517
     Eigenvalues ---    0.39553   0.39775   0.44222   0.45371   0.47697
     Eigenvalues ---    0.52744   0.54506   0.60738   0.74323   0.81336
     Eigenvalues ---    1.54175
 Eigenvectors required to have negative eigenvalues:
                          D14       D16       D13       D15       D34
   1                   -0.48258  -0.45631  -0.41864  -0.39237   0.21093
                          D32       D33       D41       A10       D31
   1                    0.17243   0.14067   0.11292  -0.10375   0.10216
 RFO step:  Lambda0=7.005896589D-04 Lambda=-1.06456954D-02.
 Linear search not attempted -- option 19 set.
 Maximum step size (   0.100) exceeded in Quadratic search.
    -- Step size scaled by   0.564
 Iteration  1 RMS(Cart)=  0.13178686 RMS(Int)=  0.00455585
 Iteration  2 RMS(Cart)=  0.00945564 RMS(Int)=  0.00009462
[...]
      2          6           0        0.386980   -0.584243    1.612730
      3          6           0       -2.056071    0.124720   -0.676029
      4          6           0       -0.281865    0.574909    1.567990
      5          6           0       -3.062654   -1.567209    0.444136
      6          6           0       -3.065388   -0.161919    0.228502
      7          6           0       -1.548258    1.438853   -1.190182
      8          1           0       -0.724231    1.260727   -1.896950
      9          1           0       -2.337078    1.954128   -1.759631
     10          6           0       -1.071224    2.389521   -0.080617
     11          1           0       -0.701211    3.333424   -0.504212
     12          1           0       -1.926863    2.634036    0.573769
     13          6           0        0.020273    1.850052    0.822162
     14          8           0        1.035784    2.460267    1.053685
     15          1           0       -1.152516    0.655649    2.227540
     16          1           0        0.063206   -1.352285    2.320244
     17          6           0        1.571622   -1.031313    0.857974
     18          8           0        2.290125   -1.913275    1.183899
     19          7           0       -1.472565   -1.062298   -1.016679
     20          1           0       -0.664106   -1.146063   -1.620263
     21          1           0       -1.725717   -3.120883   -0.478013
     22         35           0        1.922947   -0.149332   -0.883572
     23          1           0       -3.729513   -2.132075    1.092085
     24          1           0       -3.730308    0.568496    0.686926
 ---------------------------------------------------------------------
 Rotational constants (GHZ):           0.7267769           0.4568578           0.3837987

 **********************************************************************

            Population analysis using the SCF Density.

 **********************************************************************

 Orbital symmetries:
       Occupied  (A) (A) (A) (A) (A) (A) (A) (A) (A) (A) (A) (A)
                 (A) (A) (A) (A) (A) (A) (A) (A) (A) (A) (A) (A)
                 (A) (A) (A) (A) (A) (A) (A) (A) (A) (A) (A) (A)
                 (A) (A) (A) (A) (A) (A) (A) (A) (A) (A) (A) (A)
                 (A) (A) (A) (A) (A) (A) (A) (A) (A) (A) (A) (A)
                 (A) (A) (A) (A)
       Virtual   (A) (A) (A) (A) (A) (A) (A) (A) (A) (A) (A) (A)
                 (A) (A) (A) (A) (A) (A) (A) (A) (A) (A) (A) (A)
                 (A) (A) (A) (A) (A) (A) (A) (A) (A) (A) (A) (A)
                 (A) (A) (A) (A) (A) (A) (A) (A) (A) (A) (A) (A)
                 (A) (A) (A) (A) (A) (A) (A) (A) (A) (A) (A) (A)
                 (A) (A) (A) (A) (A) (A) (A) (A) (A) (A) (A) (A)
                 (A) (A) (A) (A) (A) (A) (A) (A) (A) (A) (A) (A)
                 (A) (A) (A) (A) (A) (A) (A) (A) (A) (A) (A) (A)
                 (A) (A) (A) (A) (A) (A) (A) (A) (A) (A) (A) (A)
                 (A) (A) (A) (A) (A) (A) (A) (A) (A) (A) (A) (A)
                 (A) (A) (A) (A) (A) (A) (A) (A) (A) (A) (A) (A)
                 (A) (A) (A) (A) (A) (A) (A) (A) (A) (A) (A) (A)
                 (A) (A) (A) (A) (A) (A) (A) (A) (A) (A) (A) (A)
                 (A) (A) (A) (A) (A) (A) (A) (A) (A) (A) (A) (A)
                 (A) (A) (A) (A) (A) (A) (A) (A) (A) (A) (A) (A)
                 (A) (A) (A) (A) (A) (A) (A) (A) (A) (A) (A) (A)
                 (A) (A) (A) (A) (A) (A) (A) (A)
 The electronic state is 1-A.
 Alpha  occ. eigenvalues -- -483.06641 -62.64872 -56.45598 -56.45315 -56.45280
 Alpha  occ. eigenvalues --  -19.29965 -19.26608 -14.49555 -10.45745 -10.41014
 Alpha  occ. eigenvalues --  -10.34946 -10.34311 -10.33036 -10.32326 -10.32322
 Alpha  occ. eigenvalues --  -10.31916 -10.28808 -10.28777  -8.81820  -6.64231
 Alpha  occ. eigenvalues --   -6.63169  -6.63056  -2.74624  -2.74345  -2.74258
 Alpha  occ. eigenvalues --   -2.73413  -2.73411  -1.19628  -1.15515  -1.08133
 Alpha  occ. eigenvalues --   -0.93083  -0.90652  -0.88335  -0.87013  -0.82600
 Alpha  occ. eigenvalues --   -0.78383  -0.74240  -0.68315  -0.67961  -0.66538
 Alpha  occ. eigenvalues --   -0.62006  -0.60955  -0.59638  -0.58488  -0.56164
 Alpha  occ. eigenvalues --   -0.55134  -0.54307  -0.53586  -0.52195  -0.51886
 Alpha  occ. eigenvalues --   -0.50846  -0.49974  -0.48101  -0.47570  -0.46975
 Alpha  occ. eigenvalues --   -0.45602  -0.44047  -0.39224  -0.38860  -0.38149
 Alpha  occ. eigenvalues --   -0.37201  -0.35018  -0.33368  -0.29255
 Alpha virt. eigenvalues --   -0.02312   0.04108   0.06151   0.09763   0.11658
 Alpha virt. eigenvalues --    0.13408   0.13802   0.14794   0.15692   0.17575
 Alpha virt. eigenvalues --    0.19704   0.20164   0.20581   0.21565   0.23374
 Alpha virt. eigenvalues --    0.23533   0.26900   0.27938   0.28642   0.30614
 Alpha virt. eigenvalues --    0.31332   0.32493   0.33905   0.35569   0.37619
 Alpha virt. eigenvalues --    0.39948   0.40481   0.42282   0.43020   0.46634
 Alpha virt. eigenvalues --    0.48288   0.49610   0.50169   0.50721   0.51952
 Alpha virt. eigenvalues --    0.52795   0.53995   0.54277   0.55800   0.56403
 Alpha virt. eigenvalues --    0.57055   0.57925   0.59885   0.60323   0.60840
 Alpha virt. eigenvalues --    0.61920   0.64773   0.65198   0.65986   0.67246
 Alpha virt. eigenvalues --    0.67711   0.69968   0.70203   0.70942   0.71928
 Alpha virt. eigenvalues --    0.72882   0.73949   0.74695   0.74918   0.75448
 Alpha virt. eigenvalues --    0.75668   0.76663   0.77500   0.78355   0.79095
 Alpha virt. eigenvalues --    0.79584   0.81389   0.81934   0.82525   0.83602
 Alpha virt. eigenvalues --    0.84549   0.87195   0.88470   0.89677   0.89862
 Alpha virt. eigenvalues --    0.91080   0.93592   0.94218   0.96486   0.98816
 Alpha virt. eigenvalues --    1.01861   1.02304   1.03470   1.06489   1.06840
 Alpha virt. eigenvalues --    1.11167   1.11817   1.12369   1.16041   1.19632
 Alpha virt. eigenvalues --    1.21057   1.22625   1.24249   1.26196   1.28000
 Alpha virt. eigenvalues --    1.29040   1.32301   1.34314   1.37358   1.37596
 Alpha virt. eigenvalues --    1.40490   1.42088   1.42741   1.47016   1.49233
 Alpha virt. eigenvalues --    1.51646   1.52043   1.57456   1.60748   1.65436
 Alpha virt. eigenvalues --    1.70280   1.72123   1.72484   1.74190   1.75553
 Alpha virt. eigenvalues --    1.76355   1.79041   1.79206   1.80154   1.82260
 Alpha virt. eigenvalues --    1.83244   1.84105   1.85024   1.86078   1.88043
 Alpha virt. eigenvalues --    1.88401   1.91913   1.92622   1.93149   1.93769
 Alpha virt. eigenvalues --    1.95592   1.97395   1.98487   1.99756   2.01054
 Alpha virt. eigenvalues --    2.02707   2.04261   2.05141   2.07614   2.09184
 Alpha virt. eigenvalues --    2.10542   2.12083   2.14511   2.16468   2.20254
 Alpha virt. eigenvalues --    2.22589   2.23929   2.24676   2.26368   2.31455
 Alpha virt. eigenvalues --    2.34739   2.35623   2.37333   2.40335   2.42298
 Alpha virt. eigenvalues --    2.43601   2.45224   2.46607   2.49878   2.52263
 Alpha virt. eigenvalues --    2.53521   2.55103   2.58425   2.64930   2.69988
 Alpha virt. eigenvalues --    2.73107   2.74405   2.75205   2.75719   2.77158
 Alpha virt. eigenvalues --    2.79084   2.79369   2.81726   2.82813   2.85679
 Alpha virt. eigenvalues --    2.87262   2.88979   2.92237   2.93955   2.96897
 Alpha virt. eigenvalues --    3.02488   3.04694   3.07017   3.10812   3.11892
 Alpha virt. eigenvalues --    3.20179   3.24661   3.27055   3.37670   3.40766
 Alpha virt. eigenvalues --    3.50265   3.53629   3.54758   3.57941   3.59735
 Alpha virt. eigenvalues --    3.67217   3.68969   3.69705   3.71846   3.89346
          Condensed to atoms (all electrons):
               1          2          3          4          5          6
     1  C    4.926593   0.004441  -0.144488  -0.004402   0.447065  -0.023689
     2  C    0.004441   5.103181  -0.010075   0.499351   0.000496  -0.005148
     3  C   -0.144488  -0.010075   5.184833   0.020843  -0.012075   0.418586
     4  C   -0.004402   0.499351   0.020843   5.157667  -0.000699  -0.002673
     5  C    0.447065   0.000496  -0.012075  -0.000699   4.972172   0.368348
     6  C   -0.023689  -0.005148   0.418586  -0.002673   0.368348   5.124962
     7  C    0.008522  -0.001136   0.327334   0.002913   0.010397  -0.098959
     8  H    0.000183   0.001361  -0.010335  -0.004377  -0.000640   0.011496
     9  H   -0.000169  -0.000054   0.004469   0.000093   0.000076  -0.008477
    10  C    0.000059   0.003226  -0.051262  -0.186471   0.000498   0.002492
    11  H   -0.000002  -0.000423   0.008114   0.014943   0.000005   0.000051
    12  H    0.000049   0.001423  -0.015131  -0.000334  -0.000284   0.007368
    13  C    0.000400  -0.004473  -0.016823   0.220125   0.000167  -0.005908
    14  O    0.000000  -0.002370  -0.000170  -0.091852  -0.000001   0.000012
    15  H    0.000113   0.017379  -0.000369   0.359008  -0.000715   0.008703
    16  H    0.002043   0.390509  -0.000337  -0.011492   0.001545  -0.000032
    17  C    0.002260   0.256609  -0.001481  -0.012322  -0.000121   0.000004
    18  O   -0.000068  -0.080352   0.000010   0.005355  -0.000003   0.000000
    19  N    0.394747   0.000982   0.444500  -0.004462  -0.061011  -0.098471
    20  H   -0.027205   0.001115  -0.020503  -0.001102   0.007057   0.010846
    21  H    0.431619  -0.000617   0.003987   0.000090  -0.049789   0.009210
    22  Br  -0.000068  -0.135807  -0.001794   0.014840  -0.000085  -0.000109
    23  H   -0.057778   0.000029   0.012730   0.000014   0.452552  -0.058608
    24  H    0.012170   0.000145  -0.056891  -0.000448  -0.057611   0.453455
               7          8          9         10         11         12
     1  C    0.008522   0.000183  -0.000169   0.000059  -0.000002   0.000049
     2  C   -0.001136   0.001361  -0.000054   0.003226  -0.000423   0.001423
     3  C    0.327334  -0.010335   0.004469  -0.051262   0.008114  -0.015131
     4  C    0.002913  -0.004377   0.000093  -0.186471   0.014943  -0.000334
     5  C    0.010397  -0.000640   0.000076   0.000498   0.000005  -0.000284
     6  C   -0.098959   0.011496  -0.008477   0.002492   0.000051   0.007368
     7  C    4.680517   0.364352   0.353665   0.358594  -0.008607  -0.011874
     8  H    0.364352   0.659483  -0.024122  -0.023767  -0.007040   0.007475
     9  H    0.353665  -0.024122   0.632686  -0.014368  -0.004097  -0.009531
    10  C    0.358594  -0.023767  -0.014368   5.012232   0.333602   0.368516
    11  H   -0.008607  -0.007040  -0.004097   0.333602   0.616783  -0.014025
    12  H   -0.011874   0.007475  -0.009531   0.368516  -0.014025   0.608278
    13  C   -0.028010  -0.004592   0.006650   0.323286  -0.005074  -0.019770
    14  O    0.002903   0.000681  -0.000160  -0.088510   0.009851   0.001794
    15  H   -0.003344   0.000046   0.000040   0.006703  -0.000259   0.000009
    16  H    0.000030   0.000010  -0.000003  -0.000229   0.000007   0.000021
    17  C   -0.000055  -0.000483   0.000008   0.000721  -0.000003  -0.000048
    18  O    0.000000   0.000003   0.000000  -0.000003   0.000000   0.000000
    19  N   -0.049236  -0.008690   0.003230  -0.003366  -0.000078   0.000008
    20  H   -0.012960   0.005104   0.000065   0.000387  -0.000023   0.000005
    21  H   -0.000301  -0.000007   0.000010   0.000007  -0.000000  -0.000000
    22  Br   0.001095   0.007385   0.000156  -0.007762   0.000043   0.000127
    23  H   -0.000263   0.000007   0.000004   0.000003  -0.000000   0.000005
    24  H   -0.007698  -0.000004   0.001362  -0.000057  -0.000036   0.001355
              13         14         15         16         17         18
     1  C    0.000400   0.000000   0.000113   0.002043   0.002260  -0.000068
     2  C   -0.004473  -0.002370   0.017379   0.390509   0.256609  -0.080352
     3  C   -0.016823  -0.000170  -0.000369  -0.000337  -0.001481   0.000010
     4  C    0.220125  -0.091852   0.359008  -0.011492  -0.012322   0.005355
     5  C    0.000167  -0.000001  -0.000715   0.001545  -0.000121  -0.000003
     6  C   -0.005908   0.000012   0.008703  -0.000032   0.000004   0.000000
     7  C   -0.028010   0.002903  -0.003344   0.000030  -0.000055   0.000000
     8  H   -0.004592   0.000681   0.000046   0.000010  -0.000483   0.000003
     9  H    0.006650  -0.000160   0.000040  -0.000003   0.000008   0.000000
    10  C    0.323286  -0.088510   0.006703  -0.000229   0.000721  -0.000003
    11  H   -0.005074   0.009851  -0.000259   0.000007  -0.000003   0.000000
    12  H   -0.019770   0.001794   0.000009   0.000021  -0.000048   0.000000
    13  C    4.798841   0.715622  -0.036244   0.006127  -0.022489  -0.000062
    14  O    0.715622   7.661323   0.001005  -0.000173   0.001529  -0.000002
    15  H   -0.036244   0.001005   0.565647  -0.013456   0.007100  -0.000077
    16  H    0.006127  -0.000173  -0.013456   0.576461  -0.036170   0.002846
    17  C   -0.022489   0.001529   0.007100  -0.036170   4.719438   0.702899
    18  O   -0.000062  -0.000002  -0.000077   0.002846   0.702899   7.585274
    19  N    0.001248   0.000004  -0.000487  -0.000805   0.001173  -0.000018
    20  H   -0.000041   0.000001  -0.000035  -0.000059  -0.001110  -0.000069
    21  H    0.000005   0.000000  -0.000008   0.000085   0.000168   0.000019
    22  Br   0.008122  -0.005150  -0.000015   0.004673   0.261180  -0.073333
    23  H   -0.000006  -0.000000  -0.000037  -0.000001  -0.000008  -0.000000
    24  H    0.000029  -0.000001   0.000719  -0.000010  -0.000003  -0.000000
              19         20         21         22         23         24
     1  C    0.394747  -0.027205   0.431619  -0.000068  -0.057778   0.012170
     2  C    0.000982   0.001115  -0.000617  -0.135807   0.000029   0.000145
     3  C    0.444500  -0.020503   0.003987  -0.001794   0.012730  -0.056891
     4  C   -0.004462  -0.001102   0.000090   0.014840   0.000014  -0.000448
     5  C   -0.061011   0.007057  -0.049789  -0.000085   0.452552  -0.057611
     6  C   -0.098471   0.010846   0.009210  -0.000109  -0.058608   0.453455
     7  C   -0.049236  -0.012960  -0.000301   0.001095  -0.000263  -0.007698
     8  H   -0.008690   0.005104  -0.000007   0.007385   0.000007  -0.000004
     9  H    0.003230   0.000065   0.000010   0.000156   0.000004   0.001362
    10  C   -0.003366   0.000387   0.000007  -0.007762   0.000003  -0.000057
    11  H   -0.000078  -0.000023  -0.000000   0.000043  -0.000000  -0.000036
    12  H    0.000008   0.000005  -0.000000   0.000127   0.000005   0.001355
    13  C    0.001248  -0.000041   0.000005   0.008122  -0.000006   0.000029
    14  O    0.000004   0.000001   0.000000  -0.005150  -0.000000  -0.000001
    15  H   -0.000487  -0.000035  -0.000008  -0.000015  -0.000037   0.000719
    16  H   -0.000805  -0.000059   0.000085   0.004673  -0.000001  -0.000010
    17  C    0.001173  -0.001110   0.000168   0.261180  -0.000008  -0.000003
    18  O   -0.000018  -0.000069   0.000019  -0.073333  -0.000000  -0.000000
    19  N    6.159992   0.365364  -0.034099  -0.004352   0.004397   0.005236
    20  H    0.365364   0.515396  -0.005078   0.014395  -0.000188  -0.000223
    21  H   -0.034099  -0.005078   0.606561   0.000035  -0.004156  -0.000182
    22  Br  -0.004352   0.014395   0.000035  35.061399   0.000000  -0.000000
    23  H    0.004397  -0.000188  -0.004156   0.000000   0.633660  -0.005499
    24  H    0.005236  -0.000223  -0.000182  -0.000000  -0.005499   0.642258
 Mulliken charges:
               1
     1  C    0.027606
     2  C   -0.039792
     3  C   -0.083672
     4  C    0.025393
     5  C   -0.077344
     6  C   -0.113457
     7  C    0.112121
     8  H    0.026469
     9  H    0.058468
    10  C   -0.034531
    11  H    0.056266
    12  H    0.074564
    13  C    0.062871
    14  O   -0.206335
    15  H    0.088571
    16  H    0.078410
    17  C    0.121204
    18  O   -0.142419
    19  N   -0.115803
    20  H    0.148861
    21  H    0.042442
    22  Br  -0.144971
    23  H    0.023144
    24  H    0.011936
 Sum of Mulliken charges =  -0.00000
 Mulliken charges with hydrogens summed into heavy atoms:
               1
     1  C    0.070048
     2  C    0.038618
     3  C   -0.083672
     4  C    0.113964
     5  C   -0.054200
     6  C   -0.101522
     7  C    0.197057
    10  C    0.096299
    13  C    0.062871
    14  O   -0.206335
    17  C    0.121204
    18  O   -0.142419
    19  N    0.033058
    22  Br  -0.144971
 Electronic spatial extent (au):  <R**2>=           3122.9417
 Charge=              0.0000 electrons
 Dipole moment (field-independent basis, Debye):
    X=             -3.9757    Y=              0.2494    Z=             -0.7863  Tot=              4.0604
 Quadrupole moment (field-independent basis, Debye-Ang):
   XX=           -103.8719   YY=            -94.4476   ZZ=            -88.4533
   XY=             -4.2590   XZ=             -6.6460   YZ=             -1.3914
 Traceless Quadrupole moment (field-independent basis, Debye-Ang):
   XX=             -8.2810   YY=              1.1433   ZZ=              7.1376
   XY=             -4.2590   XZ=             -6.6460   YZ=             -1.3914
 Octapole moment (field-independent basis, Debye-Ang**2):
  XXX=             66.5964  YYY=            -15.1724  ZZZ=            -24.8349  XYY=             -8.1993
  XXY=             17.9939  XXZ=             -0.7314  XZZ=             17.2772  YZZ=             -1.2266
  YYZ=            -21.8053  XYZ=              1.5354
 Hexadecapole moment (field-independent basis, Debye-Ang**3):
 XXXX=          -2075.5054 YYYY=          -1219.9876 ZZZZ=           -623.8904 XXXY=            -25.4411
 XXXZ=           -109.3107 YYYX=            -26.8766 YYYZ=             -6.7815 ZZZX=            -61.7048
 ZZZY=              1.0128 XXYY=           -560.7057 XXZZ=           -446.0060 YYZZ=           -313.5705
 XXYZ=             -8.9014 YYXZ=            -45.9226 ZZXY=            -10.2079
 N-N= 1.240047404606D+03 E-N=-1.000869042077D+04  KE= 3.156864072570D+03
 Unable to Open any file for archive entry.
 1\1\GINC-NODE-008\FTS\RwB97XD\def2SVP\C10H10Br1N1O2\JP2658\22-Dec-2023
 \0\\# wb97xd def2svp scrf=(iefpcm,solvent=toluene) opt=(calcfc,ts,noei
 gen,maxcycles=50,maxstep=10)\\3g_exo_ts_6_reopt.out\\0,1\C,-5.11609245
 77,3.6697393234,0.00679721\C,-1.6643037776,4.0235009403,0.1023485603\C
 ,-4.3713624467,3.4395611447,2.1124208237\C,-1.6141867262,3.3127555208,
 1.2360671619\C,-5.0250176272,2.3166113179,0.2570713354\C,-4.5556127395
 ,2.1694334341,1.5909917408\C,-3.8092558257,3.8833356528,3.4300973673\H
 ,-3.8172091075,4.9823405815,3.4790607496\H,-4.4505228951,3.5332484087,
 4.253646783\C,-2.3838799379,3.3719600433,3.6932755785\H,-2.0115859371,
 3.7282788088,4.6637032606\H,-2.4007341941,2.2681389637,3.7309848798\C,
 -1.3477458592,3.7510207765,2.6539774798\O,-0.2913755504,4.2594757654,2
 .941697373\H,-1.7082531331,2.2267675594,1.129573022\H,-1.749135638,3.4
 920030819,-0.8492857892\C,-1.5911181691,5.4797571267,-0.1141397416\O,-
 1.3094247479,5.9995405555,-1.1392272643\N,-4.734565896,4.3291518179,1.
 1417268494\H,-4.6453576546,5.3338339313,1.2288541514\H,-5.4423834939,4
 .2114154548,-0.8774688692\Br,-2.1019602712,6.6488536991,1.4045952194\H
 ,-5.2773088761,1.5207106857,-0.4404275172\H,-4.3665070384,1.2355654059
 ,2.1181596357\\Version=ES64L-G16RevC.01\State=1-A\HF=-3165.5415433\RMS
 D=6.620e-09\RMSF=3.291e-06\Dipole=-1.1467558,-1.0180145,0.447813\Quadr
 upole=-6.4600078,3.8467565,2.6132513,-5.8533619,-0.7499855,1.5497933\P
 G=C01 [X(C10H10Br1N1O2)]\\@
 The archive entry for this job was punched.


 WE LEARN WISDOM FROM FAILURE MUCH MORE THAN FROM SUCCESS.
 WE DISCOVER WHAT WILL DO BY FINDING OUT WHAT WILL NOT DO...
 AND HE WHO NEVER MADE A MISTAKE NEVER MADE A DISCOVERY
 Job cpu time:       0 days  4 hours 28 minutes 43.5 seconds.
 Elapsed time:       0 days  0 hours 22 minutes 56.2 seconds.
 File lengths (MBytes):  RWF=    287 Int=      0 D2E=      0 Chk=     13 Scr=      1
 Normal termination of Gaussian 16 at Fri Dec 22 17:59:35 2023.
