Unloading slurm/anatra/current
  ERROR: No such file or directory on
    '/cm/local/modulefiles/slurm/anatra/current'
environment: line 0: unalias: gv: not found
environment: line 0: unalias: sl: not found
 Entering Gaussian System, Link 0=g16
 Initial command:
 /apps/gaussian/g16/C.01/g16/l1.exe "/local/jobs/1150745/Gau-2002511.inp" -scrdir="/local/jobs/1150745/"
 Entering Link 1 = /apps/gaussian/g16/C.01/g16/l1.exe PID=   2002514.
  
 Copyright (c) 1988-2019, Gaussian, Inc.  All Rights Reserved.
  
 This is part of the Gaussian(R) 16 program.  It is based on
 the Gaussian(R) 09 system (copyright 2009, Gaussian, Inc.),
 the Gaussian(R) 03 system (copyright 2003, Gaussian, Inc.),
 the Gaussian(R) 98 system (copyright 1998, Gaussian, Inc.),
 the Gaussian(R) 94 system (copyright 1995, Gaussian, Inc.),
 the Gaussian 92(TM) system (copyright 1992, Gaussian, Inc.),
 the Gaussian 90(TM) system (copyright 1990, Gaussian, Inc.),
 the Gaussian 88(TM) system (copyright 1988, Gaussian, Inc.),
 the Gaussian 86(TM) system (copyright 1986, Carnegie Mellon
 University), and the Gaussian 82(TM) system (copyright 1983,
 Carnegie Mellon University). Gaussian is a federally registered
 trademark of Gaussian, Inc.
  
 This software contains proprietary and confidential information,
 including trade secrets, belonging to Gaussian, Inc.
  
 This software is provided under written license and may be
 used, copied, transmitted, or stored only in accord with that
 written license.
  
 The following legend is applicable only to US Government
 contracts under FAR:
  
                    RESTRICTED RIGHTS LEGEND
  
 Use, reproduction and disclosure by the US Government is
 subject to restrictions as set forth in subparagraphs (a)
 and (c) of the Commercial Computer Software - Restricted
 Rights clause in FAR 52.227-19.
  
 Gaussian, Inc.
 340 Quinnipiac St., Bldg. 40, Wallingford CT 06492
  
  
 ---------------------------------------------------------------
 Warning -- This program may not be used in any manner that
 competes with the business of Gaussian, Inc. or will provide
 assistance to any competitor of Gaussian, Inc.  The licensee
 of this program is prohibited from giving any competitor of
 Gaussian, Inc. access to this program.  By using this program,
 the user acknowledges that Gaussian, Inc. is engaged in the
 business of creating and licensing software in the field of
 computational chemistry and represents and warrants to the
 licensee that it is not a competitor of Gaussian, Inc. and that
 it will not use this program in any manner prohibited above.
 ---------------------------------------------------------------
  

 Cite this work as:
 Gaussian 16, Revision C.01,
 M. J. Frisch, G. W. Trucks, H. B. Schlegel, G. E. Scuseria, 
 M. A. Robb, J. R. Cheeseman, G. Scalmani, V. Barone, 
 G. A. Petersson, H. Nakatsuji, X. Li, M. Caricato, A. V. Marenich, 
 J. Bloino, B. G. Janesko, R. Gomperts, B. Mennucci, H. P. Hratchian, 
 J. V. Ortiz, A. F. Izmaylov, J. L. Sonnenberg, D. Williams-Young, 
 F. Ding, F. Lipparini, F. Egidi, J. Goings, B. Peng, A. Petrone, 
 T. Henderson, D. Ranasinghe, V. G. Zakrzewski, J. Gao, N. Rega, 
 G. Zheng, W. Liang, M. Hada, M. Ehara, K. Toyota, R. Fukuda, 
 J. Hasegawa, M. Ishida, T. Nakajima, Y. Honda, O. Kitao, H. Nakai, 
 T. Vreven, K. Throssell, J. A. Montgomery, Jr., J. E. Peralta, 
 F. Ogliaro, M. J. Bearpark, J. J. Heyd, E. N. Brothers, K. N. Kudin, 
 V. N. Staroverov, T. A. Keith, R. Kobayashi, J. Normand, 
 K. Raghavachari, A. P. Rendell, J. C. Burant, S. S. Iyengar, 
 J. Tomasi, M. Cossi, J. M. Millam, M. Klene, C. Adamo, R. Cammi, 
 J. W. Ochterski, R. L. Martin, K. Morokuma, O. Farkas, 
 J. B. Foresman, and D. J. Fox, Gaussian, Inc., Wallingford CT, 2019.
 
 ******************************************
 Gaussian 16:  ES64L-G16RevC.01  3-Jul-2019
                18-Dec-2023 
 ******************************************
 %chk=TS-249_opt_dft.chk
 %nprocshared=12
 Will use up to   12 processors via shared memory.
 %mem=48GB
 ----------------------------------------------------------------------
 # wb97xd def2svp scrf=(iefpcm,solvent=toluene) opt=(calcfc,ts,noeigen,
 maxcycles=50,maxstep=10)
 ----------------------------------------------------------------------
 1/5=1,6=50,8=10,10=4,11=1,18=20,26=3,38=1/1,3;
 2/9=110,12=2,17=6,18=5,40=1/2;
 3/5=43,7=101,11=2,25=1,30=1,70=2201,71=2,72=13,74=-58,140=1/1,2,3;
 4//1;
 5/5=2,38=5,53=13/2;
 8/6=4,10=90,11=11/1;
 11/6=1,8=1,9=11,15=111,16=1/1,2,10;
 10/6=1,13=1/2;
 6/7=2,8=2,9=2,10=2,28=1/1;
 7/10=1,25=1/1,2,3,16;
 1/5=1,6=50,8=10,10=4,11=1,18=20,26=3/3(2);
 2/9=110/2;
 99//99;
 2/9=110/2;
 3/5=43,7=101,11=2,25=1,30=1,70=2205,71=1,72=13,74=-58/1,2,3;
 4/5=5,16=3,69=1/1;
 5/5=2,38=5,53=13/2;
 7//1,2,3,16;
 1/5=1,6=50,8=10,11=1,18=20,26=3/3(-5);
 2/9=110/2;
 6/7=2,8=2,9=2,10=2,19=2,28=1/1;
 99/9=1/99;
 ----------
 TS-249.out
 ----------
 Symbolic Z-matrix:
 Charge =  0 Multiplicity = 1
 C                    -0.98025   0.69195  -0.20894 
 C                    -1.92168  -0.31      0.32291 
 O                    -3.01226  -0.50219  -0.2006 
 C                     0.22829   0.86754   0.36619 
 C                     2.98171  -0.36432   0.09422 
 H                     3.0227   -0.73989   1.12039 
 H                     3.50996  -1.0641   -0.55969 
 H                     3.48667   0.6048    0.05611 
 N                     1.58522  -0.22082  -0.33301 
 H                     1.18839  -1.16551  -0.35932 
 H                     1.60848   0.04987  -1.32227 
 H                     0.80126   1.75285   0.06792 
 H                     0.42254   0.43147   1.35258 
 H                    -1.29964   1.25724  -1.0751 
 H                    -1.5872   -0.87442   1.20893 
 
 Add virtual bond connecting atoms N9         and C4         Dist= 3.54D+00.

 GradGradGradGradGradGradGradGradGradGradGradGradGradGradGradGradGradGrad
 Berny optimization.
 Initialization pass.
                           ----------------------------
                           !    Initial Parameters    !
                           ! (Angstroms and Degrees)  !
 --------------------------                            --------------------------
 ! Name  Definition              Value          Derivative Info.                !
 --------------------------------------------------------------------------------
 ! R1    R(1,2)                  1.4741         calculate D2E/DX2 analytically  !
 ! R2    R(1,4)                  1.3499         calculate D2E/DX2 analytically  !
 ! R3    R(1,14)                 1.0825         calculate D2E/DX2 analytically  !
 ! R4    R(2,3)                  1.2249         calculate D2E/DX2 analytically  !
 ! R5    R(2,15)                 1.1025         calculate D2E/DX2 analytically  !
 ! R6    R(4,9)                  1.8747         calculate D2E/DX2 analytically  !
 ! R7    R(4,12)                 1.0959         calculate D2E/DX2 analytically  !
 ! R8    R(4,13)                 1.0958         calculate D2E/DX2 analytically  !
 ! R9    R(5,6)                  1.0935         calculate D2E/DX2 analytically  !
 ! R10   R(5,7)                  1.0938         calculate D2E/DX2 analytically  !
 ! R11   R(5,8)                  1.0934         calculate D2E/DX2 analytically  !
 ! R12   R(5,9)                  1.4674         calculate D2E/DX2 analytically  !
 ! R13   R(9,10)                 1.025          calculate D2E/DX2 analytically  !
 ! R14   R(9,11)                 1.0259         calculate D2E/DX2 analytically  !
 ! A1    A(2,1,4)              120.4284         calculate D2E/DX2 analytically  !
 ! A2    A(2,1,14)             117.0776         calculate D2E/DX2 analytically  !
 ! A3    A(4,1,14)             122.4892         calculate D2E/DX2 analytically  !
 ! A4    A(1,2,3)              121.4029         calculate D2E/DX2 analytically  !
 ! A5    A(1,2,15)             116.3699         calculate D2E/DX2 analytically  !
 ! A6    A(3,2,15)             122.2266         calculate D2E/DX2 analytically  !
 ! A7    A(1,4,9)              114.4307         calculate D2E/DX2 analytically  !
 ! A8    A(1,4,12)             117.2067         calculate D2E/DX2 analytically  !
 ! A9    A(1,4,13)             119.37           calculate D2E/DX2 analytically  !
 ! A10   A(9,4,12)              89.3727         calculate D2E/DX2 analytically  !
 ! A11   A(9,4,13)              88.6472         calculate D2E/DX2 analytically  !
 ! A12   A(12,4,13)            118.2791         calculate D2E/DX2 analytically  !
 ! A13   A(6,5,7)              108.8561         calculate D2E/DX2 analytically  !
 ! A14   A(6,5,8)              108.6508         calculate D2E/DX2 analytically  !
 ! A15   A(6,5,9)              110.0278         calculate D2E/DX2 analytically  !
 ! A16   A(7,5,8)              108.8547         calculate D2E/DX2 analytically  !
 ! A17   A(7,5,9)              110.3726         calculate D2E/DX2 analytically  !
 ! A18   A(8,5,9)              110.0394         calculate D2E/DX2 analytically  !
 ! A19   A(4,9,5)              129.5684         calculate D2E/DX2 analytically  !
 ! A20   A(4,9,10)             105.3319         calculate D2E/DX2 analytically  !
 ! A21   A(4,9,11)             102.8777         calculate D2E/DX2 analytically  !
 ! A22   A(5,9,10)             106.6058         calculate D2E/DX2 analytically  !
 ! A23   A(5,9,11)             106.5574         calculate D2E/DX2 analytically  !
 ! A24   A(10,9,11)            103.1331         calculate D2E/DX2 analytically  !
 ! D1    D(4,1,2,3)           -178.5729         calculate D2E/DX2 analytically  !
 ! D2    D(4,1,2,15)             1.151          calculate D2E/DX2 analytically  !
 ! D3    D(14,1,2,3)             0.6526         calculate D2E/DX2 analytically  !
 ! D4    D(14,1,2,15)         -179.6235         calculate D2E/DX2 analytically  !
 ! D5    D(2,1,4,9)             89.4706         calculate D2E/DX2 analytically  !
 ! D6    D(2,1,4,12)          -167.82           calculate D2E/DX2 analytically  !
 ! D7    D(2,1,4,13)           -13.5851         calculate D2E/DX2 analytically  !
 ! D8    D(14,1,4,9)           -89.7119         calculate D2E/DX2 analytically  !
 ! D9    D(14,1,4,12)           12.9975         calculate D2E/DX2 analytically  !
 ! D10   D(14,1,4,13)          167.2324         calculate D2E/DX2 analytically  !
 ! D11   D(1,4,9,5)           -175.7245         calculate D2E/DX2 analytically  !
 ! D12   D(1,4,9,10)           -48.0647         calculate D2E/DX2 analytically  !
 ! D13   D(1,4,9,11)            59.6548         calculate D2E/DX2 analytically  !
 ! D14   D(12,4,9,5)            64.4592         calculate D2E/DX2 analytically  !
 ! D15   D(12,4,9,10)         -167.881          calculate D2E/DX2 analytically  !
 ! D16   D(12,4,9,11)          -60.1615         calculate D2E/DX2 analytically  !
 ! D17   D(13,4,9,5)           -53.8472         calculate D2E/DX2 analytically  !
 ! D18   D(13,4,9,10)           73.8126         calculate D2E/DX2 analytically  !
 ! D19   D(13,4,9,11)         -178.4679         calculate D2E/DX2 analytically  !
 ! D20   D(6,5,9,4)             61.8552         calculate D2E/DX2 analytically  !
 ! D21   D(6,5,9,10)           -65.3281         calculate D2E/DX2 analytically  !
 ! D22   D(6,5,9,11)          -174.9628         calculate D2E/DX2 analytically  !
 ! D23   D(7,5,9,4)           -177.9916         calculate D2E/DX2 analytically  !
 ! D24   D(7,5,9,10)            54.8251         calculate D2E/DX2 analytically  !
 ! D25   D(7,5,9,11)           -54.8096         calculate D2E/DX2 analytically  !
 ! D26   D(8,5,9,4)            -57.8328         calculate D2E/DX2 analytically  !
 ! D27   D(8,5,9,10)           174.9839         calculate D2E/DX2 analytically  !
 ! D28   D(8,5,9,11)            65.3492         calculate D2E/DX2 analytically  !
 --------------------------------------------------------------------------------
 Trust Radius=1.00D-01 FncErr=1.00D-07 GrdErr=1.00D-06 EigMax=2.50D+02 EigMin=1.00D-04
 Number of steps in this run=     50 maximum allowed number of steps=    100.
 Search for a saddle point of order  1.
 GradGradGradGradGradGradGradGradGradGradGradGradGradGradGradGradGradGrad

                          Input orientation:                          
 ---------------------------------------------------------------------
 Center     Atomic      Atomic             Coordinates (Angstroms)
 Number     Number       Type             X           Y           Z
 ---------------------------------------------------------------------
      1          6           0       -0.980250    0.691950   -0.208940
      2          6           0       -1.921680   -0.310000    0.322910
      3          8           0       -3.012260   -0.502190   -0.200600
      4          6           0        0.228290    0.867540    0.366190
      5          6           0        2.981710   -0.364320    0.094220
      6          1           0        3.022700   -0.739890    1.120390
      7          1           0        3.509960   -1.064100   -0.559690
      8          1           0        3.486670    0.604800    0.056110
      9          7           0        1.585220   -0.220820   -0.333010
     10          1           0        1.188390   -1.165510   -0.359320
     11          1           0        1.608480    0.049870   -1.322270
     12          1           0        0.801260    1.752850    0.067920
     13          1           0        0.422540    0.431470    1.352580
     14          1           0       -1.299640    1.257240   -1.075100
     15          1           0       -1.587200   -0.874420    1.208930
 ---------------------------------------------------------------------
                    Distance matrix (angstroms):
                    1          2          3          4          5
     1  C    0.000000
     2  C    1.474130   0.000000
     3  O    2.356927   1.224894   0.000000
     4  C    1.349880   2.451702   3.563506   0.000000
     5  C    4.111537   4.909021   6.002800   3.028658   0.000000
     6  H    4.454312   5.026696   6.182415   3.310797   1.093507
     7  H    4.834121   5.554310   6.556222   3.918909   1.093773
     8  H    4.475625   5.491656   6.597531   3.283629   1.093449
     9  N    2.725835   3.568828   4.607985   1.874745   1.467413
    10  H    2.859331   3.296949   4.255660   2.362509   2.015837
    11  H    2.890206   3.911285   4.786873   2.329035   2.015876
    12  H    2.091874   3.425605   4.438496   1.095917   3.039319
    13  H    2.115187   2.665589   3.883547   1.095835   2.960760
    14  H    1.082495   2.190344   2.606417   2.136294   4.725116
    15  H    2.198240   1.102487   2.038658   2.653420   4.730509
                    6          7          8          9         10
     6  H    0.000000
     7  H    1.779102   0.000000
     8  H    1.776556   1.779039   0.000000
     9  N    2.109065   2.113558   2.109164   0.000000
    10  H    2.394867   2.332406   2.930643   1.024990   0.000000
    11  H    2.930926   2.331970   2.394885   1.025890   1.606517
    12  H    3.500892   3.958050   2.920545   2.161183   2.974765
    13  H    2.861263   3.927552   3.331632   2.149074   2.463224
    14  H    5.243217   5.365307   4.961258   3.325323   3.545751
    15  H    4.612712   5.398614   5.409366   3.587342   3.201256
                   11         12         13         14         15
    11  H    0.000000
    12  H    2.341874   0.000000
    13  H    2.950745   1.881442   0.000000
    14  H    3.158480   2.442520   3.088921   0.000000
    15  H    4.180150   3.729503   2.401050   3.137429   0.000000
 Stoichiometry    C4H9NO
 Framework group  C1[X(C4H9NO)]
 Deg. of freedom    39
 Full point group                 C1      NOp   1
 Largest Abelian subgroup         C1      NOp   1
 Largest concise Abelian subgroup C1      NOp   1
                         Standard orientation:                         
 ---------------------------------------------------------------------
 Center     Atomic      Atomic             Coordinates (Angstroms)
 Number     Number       Type             X           Y           Z
 ---------------------------------------------------------------------
      1          6           0       -0.980252    0.691948   -0.208939
      2          6           0       -1.921681   -0.310003    0.322911
      3          8           0       -3.012260   -0.502195   -0.200599
      4          6           0        0.228288    0.867539    0.366191
      5          6           0        2.981710   -0.364318    0.094221
      6          1           0        3.022700   -0.739888    1.120391
      7          1           0        3.509960   -1.064098   -0.559689
      8          1           0        3.486669    0.604802    0.056111
      9          7           0        1.585219   -0.220820   -0.333009
     10          1           0        1.188390   -1.165510   -0.359319
     11          1           0        1.608479    0.049870   -1.322269
     12          1           0        0.801257    1.752849    0.067921
     13          1           0        0.422539    0.431469    1.352581
     14          1           0       -1.299642    1.257237   -1.075099
     15          1           0       -1.587200   -0.874423    1.208931
 ---------------------------------------------------------------------
 Rotational constants (GHZ):          11.2493120           1.2678582           1.2133754
 Standard basis: def2SVP (5D, 7F)
 There are   135 symmetry adapted cartesian basis functions of A   symmetry.
 There are   129 symmetry adapted basis functions of A   symmetry.
   129 basis functions,   213 primitive gaussians,   135 cartesian basis functions
    24 alpha electrons       24 beta electrons
       nuclear repulsion energy       225.5433525727 Hartrees.
 NAtoms=   15 NActive=   15 NUniq=   15 SFac= 1.00D+00 NAtFMM=   60 NAOKFM=F Big=F
 Integral buffers will be    131072 words long.
 Raffenetti 2 integral format.
 Two-electron integral symmetry is turned on.
 Nuclear repulsion after empirical dispersion term =      225.5367160727 Hartrees.
 Force inversion solution in PCM.
 ------------------------------------------------------------------------------
 Polarizable Continuum Model (PCM)
 =================================
 Model                : PCM.
 Atomic radii         : UFF (Universal Force Field).
 Polarization charges : Total charges.
 Charge compensation  : None.
 Solution method      : Matrix inversion.
 Cavity type          : Scaled VdW (van der Waals Surface) (Alpha=1.100).
 Cavity algorithm     : GePol (No added spheres)
                        Default sphere list used, NSphG=   15.
                        Lebedev-Laikov grids with approx.  5.0 points / Ang**2.
                        Smoothing algorithm: York/Karplus (Gamma=1.0000).
                        Polarization charges: spherical gaussians, with
                                              point-specific exponents (IZeta= 3).
                        Self-potential: point-specific (ISelfS= 7).
                        Self-field    : sphere-specific E.n sum rule (ISelfD= 2).
 1st derivatives      : Analytical E(r).r(x)/FMM algorithm (CHGder, D1EAlg=3).
                        Cavity 1st derivative terms included.
 2nd derivatives      : Analytical E(r).r(xy)/FMM algorithm (CHGder, D2EAlg=3).
                        Cavity 2nd derivative terms included.
 Solvent              : Toluene, Eps=   2.374100 Eps(inf)=   2.238315
 ------------------------------------------------------------------------------
 Spheres list:
 ISph  on   Nord     Re0    Alpha      Xe            Ye            Ze
    1   C      1    1.9255  1.100     -0.980252      0.691948     -0.208939
    2   C      2    1.9255  1.100     -1.921681     -0.310003      0.322911
    3   O      3    1.7500  1.100     -3.012260     -0.502195     -0.200599
    4   C      4    1.9255  1.100      0.228288      0.867539      0.366191
    5   C      5    1.9255  1.100      2.981710     -0.364318      0.094221
    6   H      6    1.4430  1.100      3.022700     -0.739888      1.120391
    7   H      7    1.4430  1.100      3.509960     -1.064098     -0.559689
    8   H      8    1.4430  1.100      3.486669      0.604802      0.056111
    9   N      9    1.8300  1.100      1.585219     -0.220820     -0.333009
   10   H     10    1.4430  1.100      1.188390     -1.165510     -0.359319
   11   H     11    1.4430  1.100      1.608479      0.049870     -1.322269
   12   H     12    1.4430  1.100      0.801257      1.752849      0.067921
   13   H     13    1.4430  1.100      0.422539      0.431469      1.352581
   14   H     14    1.4430  1.100     -1.299642      1.257237     -1.075099
   15   H     15    1.4430  1.100     -1.587200     -0.874423      1.208931
 ------------------------------------------------------------------------------
 One-electron integrals computed using PRISM.
   1 Symmetry operations used in ECPInt.
 ECPInt:  NShTT=    2016 NPrTT=    7008 LenC2=    1982 LenP2D=    5672.
 LDataN:  DoStor=T MaxTD1= 4 Len=   56
 NBasis=   129 RedAO= T EigKep=  2.00D-03  NBF=   129
 NBsUse=   129 1.00D-06 EigRej= -1.00D+00 NBFU=   129
 ExpMin= 1.22D-01 ExpMax= 2.27D+03 ExpMxC= 3.41D+02 IAcc=3 IRadAn=         5 AccDes= 0.00D+00
 Harris functional with IExCor= 4639 and IRadAn=       5 diagonalized for initial guess.
 HarFok:  IExCor= 4639 AccDes= 0.00D+00 IRadAn=         5 IDoV= 1 UseB2=F ITyADJ=14
 ICtDFT=  3500011 ScaDFX=  1.000000  1.000000  1.000000  1.000000
 FoFCou: FMM=F IPFlag=           0 FMFlag=      100000 FMFlg1=           0
         NFxFlg=           0 DoJE=T BraDBF=F KetDBF=T FulRan=T
         wScrn=  0.000000 ICntrl=       500 IOpCl=  0 I1Cent=   200000004 NGrid=           0
         NMat0=    1 NMatS0=      1 NMatT0=    0 NMatD0=    1 NMtDS0=    0 NMtDT0=    0
 Petite list used in FoFCou.
 Requested convergence on RMS density matrix=1.00D-08 within 128 cycles.
 Requested convergence on MAX density matrix=1.00D-06.
 Requested convergence on             energy=1.00D-06.
 No special actions if energy rises.
 Inv3:  Mode=1 IEnd=     4961388.
 Iteration    1 A*A^-1 deviation from unit magnitude is 2.78D-15 for    971.
 Iteration    1 A*A^-1 deviation from orthogonality  is 1.70D-15 for    926    308.
 Iteration    1 A^-1*A deviation from unit magnitude is 3.11D-15 for    752.
 Iteration    1 A^-1*A deviation from orthogonality  is 2.00D-15 for   1164    774.
 Error on total polarization charges =  0.00613
 SCF Done:  E(RwB97XD) =  -287.436588189     A.U. after   15 cycles
            NFock= 15  Conv=0.37D-08     -V/T= 2.0097
 DoSCS=F DFT=T ScalE2(SS,OS)=  1.000000  1.000000
 Range of M.O.s used for correlation:     1   129
 NBasis=   129 NAE=    24 NBE=    24 NFC=     0 NFV=     0
 NROrb=    129 NOA=    24 NOB=    24 NVA=   105 NVB=   105
   1 Symmetry operations used in ECPInt.
 ECPInt:  NShTT=    2016 NPrTT=    7008 LenC2=    1982 LenP2D=    5672.
 LDataN:  DoStor=T MaxTD1= 5 Len=  102
 Symmetrizing basis deriv contribution to polar:
 IMax=3 JMax=2 DiffMx= 0.00D+00
 G2DrvN: will do    16 centers at a time, making    1 passes.
 Calling FoFCou, ICntrl=  3107 FMM=F I1Cent=   0 AccDes= 0.00D+00.
 NEqPCM:  Using equilibrium solvation (IEInf=0, Eps=   2.3741, EpsInf=   2.2383)
 G2PCM: DoFxE=T DoFxN=T DoGrad=T DoDP/DQ/DG/TGxP=FFFF NFrqRd=   0 IEInf=0 SqF1=F DoCFld=F IF1Alg=4.
 End of G2Drv F.D. properties file   721 does not exist.
 End of G2Drv F.D. properties file   722 does not exist.
 End of G2Drv F.D. properties file   788 does not exist.
          IDoAtm=111111111111111
 NEqPCM:  Using equilibrium solvation (IEInf=0, Eps=   2.3741, EpsInf=   2.2383)
          Differentiating once with respect to nuclear coordinates.
 Keep R1 ints in memory in canonical form, NReq=82911873.
          There are    48 degrees of freedom in the 1st order CPHF.  IDoFFX=6 NUNeed=     0.
     42 vectors produced by pass  0 Test12= 5.25D-15 2.08D-09 XBig12= 9.55D-02 1.21D-01.
 AX will form    42 AO Fock derivatives at one time.
     42 vectors produced by pass  1 Test12= 5.25D-15 2.08D-09 XBig12= 3.46D-02 5.79D-02.
     42 vectors produced by pass  2 Test12= 5.25D-15 2.08D-09 XBig12= 8.67D-04 5.50D-03.
     42 vectors produced by pass  3 Test12= 5.25D-15 2.08D-09 XBig12= 1.01D-05 5.96D-04.
     42 vectors produced by pass  4 Test12= 5.25D-15 2.08D-09 XBig12= 9.51D-08 5.27D-05.
     42 vectors produced by pass  5 Test12= 5.25D-15 2.08D-09 XBig12= 5.99D-10 3.32D-06.
     26 vectors produced by pass  6 Test12= 5.25D-15 2.08D-09 XBig12= 2.54D-12 2.12D-07.
      6 vectors produced by pass  7 Test12= 5.25D-15 2.08D-09 XBig12= 9.31D-15 1.45D-08.
 InvSVY:  IOpt=1 It=  1 EMax= 1.44D-15
 Solved reduced A of dimension   284 with    42 vectors.
 End of Minotr F.D. properties file   721 does not exist.
 End of Minotr F.D. properties file   722 does not exist.
 End of Minotr F.D. properties file   788 does not exist.

 **********************************************************************

            Population analysis using the SCF Density.

 **********************************************************************

 Orbital symmetries:
       Occupied  (A) (A) (A) (A) (A) (A) (A) (A) (A) (A) (A) (A)
                 (A) (A) (A) (A) (A) (A) (A) (A) (A) (A) (A) (A)
       Virtual   (A) (A) (A) (A) (A) (A) (A) (A) (A) (A) (A) (A)
                 (A) (A) (A) (A) (A) (A) (A) (A) (A) (A) (A) (A)
                 (A) (A) (A) (A) (A) (A) (A) (A) (A) (A) (A) (A)
                 (A) (A) (A) (A) (A) (A) (A) (A) (A) (A) (A) (A)
                 (A) (A) (A) (A) (A) (A) (A) (A) (A) (A) (A) (A)
                 (A) (A) (A) (A) (A) (A) (A) (A) (A) (A) (A) (A)
                 (A) (A) (A) (A) (A) (A) (A) (A) (A) (A) (A) (A)
                 (A) (A) (A) (A) (A) (A) (A) (A) (A) (A) (A) (A)
                 (A) (A) (A) (A) (A) (A) (A) (A) (A)
 The electronic state is 1-A.
 Alpha  occ. eigenvalues --  -19.19772 -14.49434 -10.34646 -10.34427 -10.32986
 Alpha  occ. eigenvalues --  -10.24571  -1.07923  -1.03364  -0.86199  -0.78541
 Alpha  occ. eigenvalues --   -0.70613  -0.63745  -0.62389  -0.57483  -0.54009
 Alpha  occ. eigenvalues --   -0.53322  -0.51841  -0.48612  -0.46317  -0.45212
 Alpha  occ. eigenvalues --   -0.44065  -0.42300  -0.29825  -0.26577
 Alpha virt. eigenvalues --    0.07594   0.10808   0.16008   0.16419   0.17342
 Alpha virt. eigenvalues --    0.17846   0.20031   0.20577   0.22180   0.23567
 Alpha virt. eigenvalues --    0.25682   0.26648   0.33158   0.38458   0.42360
 Alpha virt. eigenvalues --    0.45934   0.50184   0.52114   0.52653   0.57562
 Alpha virt. eigenvalues --    0.60192   0.61901   0.63775   0.66857   0.69413
 Alpha virt. eigenvalues --    0.69819   0.71060   0.73172   0.73772   0.75418
 Alpha virt. eigenvalues --    0.75953   0.77332   0.78782   0.79657   0.81425
 Alpha virt. eigenvalues --    0.83685   0.85444   0.89231   0.93761   0.95158
 Alpha virt. eigenvalues --    0.97015   1.07724   1.11002   1.14290   1.18297
 Alpha virt. eigenvalues --    1.20746   1.26286   1.29612   1.34897   1.38538
 Alpha virt. eigenvalues --    1.40631   1.47375   1.48427   1.56178   1.58059
 Alpha virt. eigenvalues --    1.58924   1.61090   1.73002   1.77297   1.77957
 Alpha virt. eigenvalues --    1.82282   1.83197   1.85146   1.86104   1.86885
 Alpha virt. eigenvalues --    1.88531   1.91011   1.93266   1.96277   2.00799
 Alpha virt. eigenvalues --    2.02656   2.03785   2.10898   2.13799   2.15474
 Alpha virt. eigenvalues --    2.17291   2.23922   2.27961   2.31384   2.33841
 Alpha virt. eigenvalues --    2.38857   2.39792   2.44596   2.50874   2.55901
 Alpha virt. eigenvalues --    2.62063   2.64065   2.71854   2.72479   2.75226
 Alpha virt. eigenvalues --    2.80029   2.84382   2.85498   2.91306   2.93487
 Alpha virt. eigenvalues --    3.01219   3.04454   3.04690   3.08144   3.25832
 Alpha virt. eigenvalues --    3.26816   3.39325   3.48937   3.57353   3.73185
          Condensed to atoms (all electrons):
               1          2          3          4          5          6
     1  C    5.529670   0.323429  -0.113672   0.375171   0.002690   0.000170
     2  C    0.323429   4.507579   0.643557  -0.001048   0.000068  -0.000020
     3  O   -0.113672   0.643557   7.837811   0.008075  -0.000000   0.000000
     4  C    0.375171  -0.001048   0.008075   4.753116  -0.001220  -0.001402
     5  C    0.002690   0.000068  -0.000000  -0.001220   4.509239   0.405840
     6  H    0.000170  -0.000020   0.000000  -0.001402   0.405840   0.589671
     7  H   -0.000318  -0.000009   0.000000   0.000919   0.406955  -0.022809
     8  H    0.000232   0.000010  -0.000000  -0.001495   0.405893  -0.018054
     9  N   -0.067548  -0.004006   0.000053  -0.010805   0.300594  -0.025630
    10  H    0.007790   0.002655  -0.000154   0.001002  -0.020352  -0.005316
    11  H    0.005834  -0.000360  -0.000017  -0.001483  -0.022079   0.007450
    12  H    0.001757   0.006306  -0.000203   0.374113   0.001011  -0.000453
    13  H   -0.025515  -0.013752   0.000186   0.398555   0.000911   0.004039
    14  H    0.383320  -0.026119   0.007578  -0.036108  -0.000052   0.000010
    15  H   -0.156626   0.401984  -0.041230   0.021081  -0.000027   0.000002
               7          8          9         10         11         12
     1  C   -0.000318   0.000232  -0.067548   0.007790   0.005834   0.001757
     2  C   -0.000009   0.000010  -0.004006   0.002655  -0.000360   0.006306
     3  O    0.000000  -0.000000   0.000053  -0.000154  -0.000017  -0.000203
     4  C    0.000919  -0.001495  -0.010805   0.001002  -0.001483   0.374113
     5  C    0.406955   0.405893   0.300594  -0.020352  -0.022079   0.001011
     6  H   -0.022809  -0.018054  -0.025630  -0.005316   0.007450  -0.000453
     7  H    0.609395  -0.022669  -0.013701  -0.009746  -0.009293  -0.000376
     8  H   -0.022669   0.590713  -0.025134   0.007448  -0.005614   0.003723
     9  N   -0.013701  -0.025134   6.514355   0.323126   0.328213  -0.038653
    10  H   -0.009746   0.007448   0.323126   0.550839  -0.012989   0.004457
    11  H   -0.009293  -0.005614   0.328213  -0.012989   0.551186  -0.003454
    12  H   -0.000376   0.003723  -0.038653   0.004457  -0.003454   0.655434
    13  H   -0.000341  -0.000537  -0.038651  -0.001782   0.004632  -0.029190
    14  H    0.000001  -0.000016  -0.000770  -0.000184   0.001511  -0.013688
    15  H   -0.000001  -0.000001  -0.000562   0.000479   0.000061  -0.000765
              13         14         15
     1  C   -0.025515   0.383320  -0.156626
     2  C   -0.013752  -0.026119   0.401984
     3  O    0.000186   0.007578  -0.041230
     4  C    0.398555  -0.036108   0.021081
     5  C    0.000911  -0.000052  -0.000027
     6  H    0.004039   0.000010   0.000002
     7  H   -0.000341   0.000001  -0.000001
     8  H   -0.000537  -0.000016  -0.000001
     9  N   -0.038651  -0.000770  -0.000562
    10  H   -0.001782  -0.000184   0.000479
    11  H    0.004632   0.001511   0.000061
    12  H   -0.029190  -0.013688  -0.000765
    13  H    0.645886   0.007884   0.008839
    14  H    0.007884   0.662212   0.009529
    15  H    0.008839   0.009529   0.786600
 Mulliken charges:
               1
     1  C   -0.266383
     2  C    0.159725
     3  O   -0.341984
     4  C    0.121531
     5  C    0.010528
     6  H    0.066502
     7  H    0.061992
     8  H    0.065500
     9  N   -0.240883
    10  H    0.152727
    11  H    0.156402
    12  H    0.039980
    13  H    0.038836
    14  H    0.004892
    15  H   -0.029364
 Sum of Mulliken charges =  -0.00000
 Mulliken charges with hydrogens summed into heavy atoms:
               1
     1  C   -0.261491
     2  C    0.130361
     3  O   -0.341984
     4  C    0.200347
     5  C    0.204521
     9  N    0.068246
 APT charges:
               1
     1  C   -0.583779
     2  C   -0.758903
     3  O    0.398855
     4  C   -0.400577
     5  C   -0.934656
     6  H    0.307669
     7  H    0.509662
     8  H    0.436808
     9  N   -0.676639
    10  H    0.276227
    11  H    0.416503
    12  H    0.350244
    13  H    0.211685
    14  H    0.320937
    15  H    0.125964
 Sum of APT charges =  -0.00000
 APT charges with hydrogens summed into heavy atoms:
               1
     1  C   -0.262842
     2  C   -0.632939
     3  O    0.398855
     4  C    0.161352
     5  C    0.319482
     9  N    0.016092
 Electronic spatial extent (au):  <R**2>=            964.5898
 Charge=             -0.0000 electrons
 Dipole moment (field-independent basis, Debye):
    X=              9.5193    Y=             -0.6000    Z=             -0.0643  Tot=              9.5384
 Quadrupole moment (field-independent basis, Debye-Ang):
   XX=            -47.3290   YY=            -36.6517   ZZ=            -35.3172
   XY=             -3.4338   XZ=             -3.7437   YZ=             -1.1685
 Traceless Quadrupole moment (field-independent basis, Debye-Ang):
   XX=             -7.5631   YY=              3.1143   ZZ=              4.4488
   XY=             -3.4338   XZ=             -3.7437   YZ=             -1.1685
 Octapole moment (field-independent basis, Debye-Ang**2):
  XXX=             84.2795  YYY=             -5.9597  ZZZ=             -3.5969  XYY=              7.0699
  XXY=              5.8313  XXZ=              2.6169  XZZ=              4.2140  YZZ=             -1.8477
  YYZ=             -2.7524  XYZ=              1.7473
 Hexadecapole moment (field-independent basis, Debye-Ang**3):
 XXXX=          -1134.8248 YYYY=           -128.5040 ZZZZ=            -77.8814 XXXY=            -36.6967
 XXXZ=            -21.9827 YYYX=              3.7107 YYYZ=             -1.0972 ZZZX=             -3.0907
 ZZZY=             -1.7743 XXYY=           -189.8666 XXZZ=           -174.4615 YYZZ=            -34.9982
 XXYZ=             -3.1997 YYXZ=             -0.4341 ZZXY=             -0.8725
 N-N= 2.255367160727D+02 E-N=-1.120397854416D+03  KE= 2.846628025073D+02
  Exact polarizability:       0.000       0.000       0.000       0.000       0.000       0.000
 Approx polarizability:      93.437       6.702      52.147       7.159      -3.585      51.593
   1 Symmetry operations used in ECPInt.
 ECPInt:  NShTT=    2016 NPrTT=    7008 LenC2=    1982 LenP2D=    5672.
 LDataN:  DoStor=T MaxTD1= 6 Len=  172
 D2PCM: PCM CHGder 2nd derivatives, FixD1E=F FixD2E=F DoIter=F DoCFld=F I1PDM=0
 Calling FoFJK, ICntrl=    100127 FMM=F ISym2X=0 I1Cent= 0 IOpClX= 0 NMat=1 NMatS=1 NMatT=0.
 ***** Axes restored to original set *****
 -------------------------------------------------------------------
 Center     Atomic                   Forces (Hartrees/Bohr)
 Number     Number              X              Y              Z
 -------------------------------------------------------------------
      1        6          -0.037729232   -0.030307589    0.010335298
      2        6           0.002129946    0.033470524   -0.041196816
      3        8           0.000310047   -0.009172956    0.012117961
      4        6           0.024972043    0.016338367    0.017841362
      5        6          -0.003344916    0.004470194    0.003817985
      6        1          -0.000171397   -0.000645348    0.003421585
      7        1           0.004800944   -0.002429915   -0.000975117
      8        1           0.001231515    0.003276684    0.000309635
      9        7           0.022134777   -0.028166163   -0.029310878
     10        1          -0.005763698    0.003510525    0.001483644
     11        1          -0.004644250    0.000778785    0.002282920
     12        1          -0.001333375    0.003260179    0.010985517
     13        1          -0.003304951    0.009005781    0.004340266
     14        1          -0.002153134    0.002731711   -0.006235519
     15        1           0.002865680   -0.006120780    0.010782155
 -------------------------------------------------------------------
 Cartesian Forces:  Max     0.041196816 RMS     0.014518461
 FormGI is forming the generalized inverse of G from B-inverse, IUseBI=4.

 GradGradGradGradGradGradGradGradGradGradGradGradGradGradGradGradGradGrad
 Berny optimization.
 Internal  Forces:  Max     0.038227012 RMS     0.008495440
 Search for a saddle point.
 Step number   1 out of a maximum of   50
 All quantities printed in internal units (Hartrees-Bohrs-Radians)
 Swapping is turned off.
 Second derivative matrix not updated -- analytic derivatives used.
 ITU=  0
     Eigenvalues ---   -0.02367   0.00076   0.00169   0.01020   0.01218
     Eigenvalues ---    0.01329   0.01659   0.02423   0.04328   0.04761
     Eigenvalues ---    0.04800   0.04852   0.05079   0.08585   0.08961
     Eigenvalues ---    0.09122   0.09616   0.10245   0.10949   0.13356
     Eigenvalues ---    0.13528   0.16146   0.17372   0.17880   0.19508
     Eigenvalues ---    0.23519   0.31813   0.33448   0.34863   0.35142
     Eigenvalues ---    0.35187   0.35677   0.35999   0.37183   0.38545
     Eigenvalues ---    0.43752   0.44059   0.61761   0.82763
 Eigenvectors required to have negative eigenvalues:
                          R6        A19       D6        D10       D9
   1                    0.81038   0.26199  -0.19922   0.18639  -0.17823
                          A11       A10       D7        A21       R2
   1                   -0.17767  -0.16780   0.16539  -0.12488  -0.10332
 RFO step:  Lambda0=1.019498558D-03 Lambda=-2.04802683D-02.
 Linear search not attempted -- option 19 set.
 Maximum step size (   0.100) exceeded in Quadratic search.
    -- Step size scaled by   0.279
 Iteration  1 RMS(Cart)=  0.03172947 RMS(Int)=  0.00061861
 Iteration  2 RMS(Cart)=  0.00100751 RMS(Int)=  0.00015287
 Iteration  3 RMS(Cart)=  0.00000032 RMS(Int)=  0.00015287
 Variable       Old X    -DE/DX   Delta X   Delta X   Delta X     New X
                                 (Linear)    (Quad)   (Total)
    R1        2.78570  -0.02235   0.00000  -0.02720  -0.02720   2.75851
    R2        2.55090   0.03823   0.00000   0.02128   0.02128   2.57218
    R3        2.04562   0.00705   0.00000   0.00535   0.00535   2.05097
    R4        2.31471  -0.00402   0.00000  -0.00008  -0.00008   2.31463
    R5        2.08340   0.01267   0.00000   0.01264   0.01264   2.09604
    R6        3.54275   0.02854   0.00000   0.00155   0.00155   3.54430
    R7        2.07098  -0.00105   0.00000  -0.00024  -0.00024   2.07074
    R8        2.07083  -0.00026   0.00000   0.00120   0.00120   2.07203
    R9        2.06643   0.00343   0.00000   0.00247   0.00247   2.06890
   R10        2.06693   0.00446   0.00000   0.00306   0.00306   2.06999
   R11        2.06632   0.00346   0.00000   0.00249   0.00249   2.06881
   R12        2.77301   0.00385   0.00000  -0.00513  -0.00513   2.76788
   R13        1.93695  -0.00104   0.00000  -0.00144  -0.00144   1.93551
   R14        1.93865  -0.00210   0.00000  -0.00197  -0.00197   1.93668
    A1        2.10187   0.00384   0.00000   0.00094   0.00094   2.10281
    A2        2.04339  -0.00246   0.00000   0.00597   0.00597   2.04936
    A3        2.13784  -0.00139   0.00000  -0.00693  -0.00693   2.13091
    A4        2.11888   0.02214   0.00000   0.02866   0.02866   2.14754
    A5        2.03104  -0.01038   0.00000  -0.01483  -0.01483   2.01620
    A6        2.13326  -0.01176   0.00000  -0.01381  -0.01381   2.11944
    A7        1.99719  -0.01318   0.00000  -0.00805  -0.00803   1.98916
    A8        2.04564   0.00270   0.00000   0.00599   0.00590   2.05154
    A9        2.08340  -0.00170   0.00000  -0.00634  -0.00643   2.07697
   A10        1.55985   0.00778   0.00000   0.01972   0.01973   1.57958
   A11        1.54719   0.01117   0.00000   0.02426   0.02429   1.57147
   A12        2.06436  -0.00380   0.00000  -0.01711  -0.01764   2.04672
   A13        1.89990  -0.00137   0.00000  -0.00042  -0.00042   1.89948
   A14        1.89631   0.00006   0.00000  -0.00028  -0.00029   1.89602
   A15        1.92035  -0.00128   0.00000  -0.00369  -0.00370   1.91665
   A16        1.89987  -0.00140   0.00000  -0.00054  -0.00054   1.89934
   A17        1.92637   0.00513   0.00000   0.00900   0.00900   1.93537
   A18        1.92055  -0.00122   0.00000  -0.00414  -0.00414   1.91641
   A19        2.26139  -0.01488   0.00000  -0.06454  -0.06457   2.19683
   A20        1.83839  -0.00040   0.00000   0.00575   0.00572   1.84411
   A21        1.79556   0.00163   0.00000   0.01505   0.01528   1.81084
   A22        1.86062   0.00960   0.00000   0.02578   0.02521   1.88583
   A23        1.85978   0.00754   0.00000   0.02268   0.02253   1.88231
   A24        1.80001  -0.00176   0.00000   0.00838   0.00789   1.80790
    D1       -3.11669  -0.00055   0.00000   0.00083   0.00083  -3.11585
    D2        0.02009   0.00109   0.00000   0.00476   0.00476   0.02485
    D3        0.01139  -0.00081   0.00000  -0.00073  -0.00073   0.01066
    D4       -3.13502   0.00083   0.00000   0.00320   0.00320  -3.13182
    D5        1.56156   0.00073   0.00000   0.00254   0.00253   1.56409
    D6       -2.92901   0.00385   0.00000   0.02592   0.02589  -2.90312
    D7       -0.23710  -0.00371   0.00000  -0.01955  -0.01951  -0.25662
    D8       -1.56577   0.00101   0.00000   0.00408   0.00407  -1.56170
    D9        0.22685   0.00413   0.00000   0.02746   0.02742   0.25427
   D10        2.91876  -0.00343   0.00000  -0.01801  -0.01797   2.90078
   D11       -3.06697   0.00108   0.00000   0.00579   0.00567  -3.06130
   D12       -0.83889   0.00156   0.00000  -0.00854  -0.00838  -0.84727
   D13        1.04117   0.00011   0.00000   0.00789   0.00783   1.04900
   D14        1.12502  -0.00272   0.00000  -0.00916  -0.00913   1.11589
   D15       -2.93008  -0.00223   0.00000  -0.02349  -0.02318  -2.95326
   D16       -1.05002  -0.00369   0.00000  -0.00706  -0.00697  -1.05699
   D17       -0.93981   0.00162   0.00000   0.00921   0.00896  -0.93085
   D18        1.28827   0.00211   0.00000  -0.00512  -0.00509   1.28318
   D19       -3.11485   0.00065   0.00000   0.01131   0.01112  -3.10373
   D20        1.07958  -0.00128   0.00000  -0.00788  -0.00790   1.07168
   D21       -1.14019   0.00214   0.00000   0.01475   0.01501  -1.12518
   D22       -3.05368  -0.00312   0.00000  -0.01515  -0.01537  -3.06905
   D23       -3.10654  -0.00054   0.00000  -0.00504  -0.00506  -3.11160
   D24        0.95688   0.00289   0.00000   0.01759   0.01784   0.97472
   D25       -0.95661  -0.00237   0.00000  -0.01230  -0.01253  -0.96914
   D26       -1.00937   0.00021   0.00000  -0.00263  -0.00266  -1.01203
   D27        3.05405   0.00364   0.00000   0.02000   0.02025   3.07429
   D28        1.14056  -0.00162   0.00000  -0.00989  -0.01013   1.13043
         Item               Value     Threshold  Converged?
 Maximum Force            0.038227     0.000450     NO 
 RMS     Force            0.008495     0.000300     NO 
 Maximum Displacement     0.093950     0.001800     NO 
 RMS     Displacement     0.032159     0.001200     NO 
 Predicted change in Energy=-4.784734D-03
 GradGradGradGradGradGradGradGradGradGradGradGradGradGradGradGradGradGrad

                          Input orientation:                          
 ---------------------------------------------------------------------
 Center     Atomic      Atomic             Coordinates (Angstroms)
 Number     Number       Type             X           Y           Z
 ---------------------------------------------------------------------
      1          6           0       -0.976215    0.690187   -0.207334
      2          6           0       -1.912844   -0.297091    0.320721
      3          8           0       -3.016695   -0.499798   -0.169871
      4          6           0        0.249988    0.851771    0.361014
      5          6           0        2.962483   -0.355334    0.100988
      6          1           0        2.972984   -0.721461    1.132716
      7          1           0        3.537313   -1.046199   -0.525242
      8          1           0        3.442208    0.628360    0.073997
      9          7           0        1.580969   -0.246842   -0.373339
     10          1           0        1.179220   -1.188649   -0.398609
     11          1           0        1.608346    0.029737   -1.359779
     12          1           0        0.822134    1.745025    0.086242
     13          1           0        0.438244    0.419431    1.350907
     14          1           0       -1.293182    1.269014   -1.068976
     15          1           0       -1.560761   -0.863681    1.206884
 ---------------------------------------------------------------------
                    Distance matrix (angstroms):
                    1          2          3          4          5
     1  C    0.000000
     2  C    1.459738   0.000000
     3  O    2.362419   1.224849   0.000000
     4  C    1.361140   2.449357   3.574883   0.000000
     5  C    4.086750   4.880624   5.987053   2.980327   0.000000
     6  H    4.402801   4.970990   6.133687   3.238100   1.094816
     7  H    4.846446   5.566061   6.586339   3.897980   1.095393
     8  H    4.427803   5.440030   6.561222   3.212875   1.094769
     9  N    2.728511   3.562440   4.609110   1.875563   1.464697
    10  H    2.865748   3.297449   4.258232   2.367238   2.030773
    11  H    2.905904   3.915313   4.804923   2.341368   2.028745
    12  H    2.105452   3.421305   4.454372   1.095789   2.998804
    13  H    2.121819   2.665014   3.885144   1.096470   2.921360
    14  H    1.085328   2.183558   2.628228   2.144840   4.702979
    15  H    2.180874   1.109176   2.036567   2.633834   4.684139
                    6          7          8          9         10
     6  H    0.000000
     7  H    1.781220   0.000000
     8  H    1.778503   1.781090   0.000000
     9  N    2.105035   2.118803   2.104828   0.000000
    10  H    2.404331   2.365783   2.940407   1.024227   0.000000
    11  H    2.939229   2.361145   2.403563   1.024845   1.610113
    12  H    3.435814   3.941705   2.848136   2.180500   2.994835
    13  H    2.788216   3.907971   3.270772   2.173192   2.489131
    14  H    5.197077   5.384194   4.913323   3.323022   3.549968
    15  H    4.536581   5.387386   5.342221   3.570443   3.192289
                   11         12         13         14         15
    11  H    0.000000
    12  H    2.377250   0.000000
    13  H    2.978056   1.871884   0.000000
    14  H    3.168476   2.456761   3.094424   0.000000
    15  H    4.174828   3.706666   2.379735   3.130420   0.000000
 Stoichiometry    C4H9NO
 Framework group  C1[X(C4H9NO)]
 Deg. of freedom    39
 Full point group                 C1      NOp   1
 Largest Abelian subgroup         C1      NOp   1
 Largest concise Abelian subgroup C1      NOp   1
                         Standard orientation:                         
 ---------------------------------------------------------------------
 Center     Atomic      Atomic             Coordinates (Angstroms)
 Number     Number       Type             X           Y           Z
 ---------------------------------------------------------------------
      1          6           0       -0.975901    0.691096   -0.215323
      2          6           0       -1.914585   -0.293289    0.314482
      3          8           0       -3.016202   -0.499252   -0.179758
      4          6           0        0.247736    0.856438    0.357457
      5          6           0        2.961681   -0.351391    0.116626
      6          1           0        2.967725   -0.711344    1.150560
      7          1           0        3.539459   -1.045813   -0.502921
      8          1           0        3.441254    0.632268    0.085875
      9          7           0        1.582246   -0.246146   -0.364435
     10          1           0        1.180868   -1.188207   -0.385850
     11          1           0        1.613904    0.024543   -1.352379
     12          1           0        0.820847    1.748205    0.079880
     13          1           0        0.431736    0.430075    1.350737
     14          1           0       -1.289217    1.264670   -1.081800
     15          1           0       -1.566265   -0.854470    1.205560
 ---------------------------------------------------------------------
 Rotational constants (GHZ):          11.2835734           1.2734198           1.2203492
 Standard basis: def2SVP (5D, 7F)
 There are   135 symmetry adapted cartesian basis functions of A   symmetry.
 There are   129 symmetry adapted basis functions of A   symmetry.
   129 basis functions,   213 primitive gaussians,   135 cartesian basis functions
    24 alpha electrons       24 beta electrons
       nuclear repulsion energy       225.7142718750 Hartrees.
 NAtoms=   15 NActive=   15 NUniq=   15 SFac= 1.00D+00 NAtFMM=   60 NAOKFM=F Big=F
 Integral buffers will be    131072 words long.
 Raffenetti 2 integral format.
 Two-electron integral symmetry is turned on.
 Nuclear repulsion after empirical dispersion term =      225.7075724525 Hartrees.
 ------------------------------------------------------------------------------
 Polarizable Continuum Model (PCM)
 =================================
 Model                : PCM.
 Atomic radii         : UFF (Universal Force Field).
 Polarization charges : Total charges.
 Charge compensation  : None.
 Solution method      : Matrix inversion.
 Cavity type          : Scaled VdW (van der Waals Surface) (Alpha=1.100).
 Cavity algorithm     : GePol (No added spheres)
                        Default sphere list used, NSphG=   15.
                        Lebedev-Laikov grids with approx.  5.0 points / Ang**2.
                        Smoothing algorithm: York/Karplus (Gamma=1.0000).
                        Polarization charges: spherical gaussians, with
                                              point-specific exponents (IZeta= 3).
                        Self-potential: point-specific (ISelfS= 7).
                        Self-field    : sphere-specific E.n sum rule (ISelfD= 2).
 1st derivatives      : Analytical E(r).r(x)/FMM algorithm (CHGder, D1EAlg=3).
                        Cavity 1st derivative terms included.
 Solvent              : Toluene, Eps=   2.374100 Eps(inf)=   2.238315
 ------------------------------------------------------------------------------
 Spheres list:
 ISph  on   Nord     Re0    Alpha      Xe            Ye            Ze
    1   C      1    1.9255  1.100     -0.975901      0.691096     -0.215323
    2   C      2    1.9255  1.100     -1.914585     -0.293289      0.314482
    3   O      3    1.7500  1.100     -3.016202     -0.499252     -0.179758
    4   C      4    1.9255  1.100      0.247736      0.856438      0.357457
    5   C      5    1.9255  1.100      2.961681     -0.351391      0.116626
    6   H      6    1.4430  1.100      2.967725     -0.711344      1.150560
    7   H      7    1.4430  1.100      3.539459     -1.045813     -0.502921
    8   H      8    1.4430  1.100      3.441254      0.632268      0.085875
    9   N      9    1.8300  1.100      1.582246     -0.246146     -0.364435
   10   H     10    1.4430  1.100      1.180868     -1.188207     -0.385850
   11   H     11    1.4430  1.100      1.613904      0.024543     -1.352379
   12   H     12    1.4430  1.100      0.820847      1.748205      0.079880
   13   H     13    1.4430  1.100      0.431736      0.430075      1.350737
   14   H     14    1.4430  1.100     -1.289217      1.264670     -1.081800
   15   H     15    1.4430  1.100     -1.566265     -0.854470      1.205560
 ------------------------------------------------------------------------------
 One-electron integrals computed using PRISM.
   1 Symmetry operations used in ECPInt.
 ECPInt:  NShTT=    2016 NPrTT=    7008 LenC2=    1983 LenP2D=    5677.
 LDataN:  DoStor=T MaxTD1= 4 Len=   56
 NBasis=   129 RedAO= T EigKep=  2.05D-03  NBF=   129
 NBsUse=   129 1.00D-06 EigRej= -1.00D+00 NBFU=   129
 Initial guess from the checkpoint file:  "TS-249_opt_dft.chk"
 B after Tr=    -0.000000   -0.000000   -0.000000
         Rot=    0.999987    0.005034    0.000031    0.000823 Ang=   0.58 deg.
 ExpMin= 1.22D-01 ExpMax= 2.27D+03 ExpMxC= 3.41D+02 IAcc=3 IRadAn=         5 AccDes= 0.00D+00
 Harris functional with IExCor= 4639 and IRadAn=       5 diagonalized for initial guess.
 HarFok:  IExCor= 4639 AccDes= 0.00D+00 IRadAn=         5 IDoV= 1 UseB2=F ITyADJ=14
 ICtDFT=  3500011 ScaDFX=  1.000000  1.000000  1.000000  1.000000
 FoFCou: FMM=F IPFlag=           0 FMFlag=      100000 FMFlg1=           0
         NFxFlg=           0 DoJE=T BraDBF=F KetDBF=T FulRan=T
         wScrn=  0.000000 ICntrl=       500 IOpCl=  0 I1Cent=   200000004 NGrid=           0
         NMat0=    1 NMatS0=      1 NMatT0=    0 NMatD0=    1 NMtDS0=    0 NMtDT0=    0
 Petite list used in FoFCou.
 Requested convergence on RMS density matrix=1.00D-08 within 128 cycles.
 Requested convergence on MAX density matrix=1.00D-06.
 Requested convergence on             energy=1.00D-06.
 No special actions if energy rises.
 Inv3:  Mode=1 IEnd=     4915200.
 Iteration    1 A*A^-1 deviation from unit magnitude is 2.55D-15 for    384.
 Iteration    1 A*A^-1 deviation from orthogonality  is 1.88D-15 for    826    250.
 Iteration    1 A^-1*A deviation from unit magnitude is 2.66D-15 for    382.
 Iteration    1 A^-1*A deviation from orthogonality  is 1.79D-15 for    766    227.
 Error on total polarization charges =  0.00626
 SCF Done:  E(RwB97XD) =  -287.441362841     A.U. after   13 cycles
            NFock= 13  Conv=0.34D-08     -V/T= 2.0099
   1 Symmetry operations used in ECPInt.
 ECPInt:  NShTT=    2016 NPrTT=    7008 LenC2=    1983 LenP2D=    5677.
 LDataN:  DoStor=T MaxTD1= 5 Len=  102
 D1PCM: PCM CHGder 1st derivatives, ID1Alg=3 FixD1E=F DoIter=F DoCFld=F I1PDM=0.
 Calling FoFJK, ICntrl=      2127 FMM=F ISym2X=0 I1Cent= 0 IOpClX= 0 NMat=1 NMatS=1 NMatT=0.
 ***** Axes restored to original set *****
 -------------------------------------------------------------------
 Center     Atomic                   Forces (Hartrees/Bohr)
 Number     Number              X              Y              Z
 -------------------------------------------------------------------
      1        6          -0.027967199   -0.021839176    0.008127554
      2        6           0.000864414    0.024646565   -0.030559010
      3        8           0.000444108   -0.006804266    0.009024855
      4        6           0.018310253    0.011759162    0.012779975
      5        6          -0.002749475    0.003275138    0.002820540
      6        1          -0.000187852   -0.000382294    0.002547334
      7        1           0.003699897   -0.001685948   -0.000509208
      8        1           0.000796717    0.002478716    0.000325602
      9        7           0.017268386   -0.021953264   -0.023567480
     10        1          -0.004568214    0.002745436    0.001746064
     11        1          -0.003588087    0.000989009    0.001807469
     12        1          -0.000848351    0.002289425    0.008804311
     13        1          -0.002323446    0.007006618    0.003260813
     14        1          -0.001442109    0.002022289   -0.004689479
     15        1           0.002290959   -0.004547409    0.008080657
 -------------------------------------------------------------------
 Cartesian Forces:  Max     0.030559010 RMS     0.010894194

 GradGradGradGradGradGradGradGradGradGradGradGradGradGradGradGradGradGrad
 Berny optimization.
 FormGI is forming the generalized inverse of G from B-inverse, IUseBI=4.
 Internal  Forces:  Max     0.028209370 RMS     0.006352795
 Search for a saddle point.
 Step number   2 out of a maximum of   50
 All quantities printed in internal units (Hartrees-Bohrs-Radians)
 Swapping is turned off.
 Update second derivatives using D2CorX and points    1    2
 ITU=  0  0
     Eigenvalues ---   -0.02132   0.00075   0.00170   0.01019   0.01217
     Eigenvalues ---    0.01329   0.01656   0.02540   0.04242   0.04762
     Eigenvalues ---    0.04800   0.04867   0.05079   0.08567   0.08999
     Eigenvalues ---    0.09111   0.09599   0.10236   0.10929   0.13354
     Eigenvalues ---    0.13528   0.16147   0.17368   0.17880   0.19529
     Eigenvalues ---    0.23529   0.31877   0.33443   0.34864   0.35143
     Eigenvalues ---    0.35187   0.35677   0.35999   0.37174   0.38544
     Eigenvalues ---    0.43752   0.44059   0.61707   0.82768
 Eigenvectors required to have negative eigenvalues:
                          R6        A19       D6        D10       A11
   1                    0.82016   0.23401  -0.20033   0.18941  -0.18441
                          D9        A10       D7        A21       R2
   1                   -0.17812  -0.17190   0.16720  -0.11367  -0.10597
 RFO step:  Lambda0=9.623404320D-04 Lambda=-1.26176658D-02.
 Linear search not attempted -- option 19 set.
 Maximum step size (   0.100) exceeded in Quadratic search.
    -- Step size scaled by   0.325
 Iteration  1 RMS(Cart)=  0.03315000 RMS(Int)=  0.00063267
 Iteration  2 RMS(Cart)=  0.00101538 RMS(Int)=  0.00016788
 Iteration  3 RMS(Cart)=  0.00000034 RMS(Int)=  0.00016788
 Variable       Old X    -DE/DX   Delta X   Delta X   Delta X     New X
                                 (Linear)    (Quad)   (Total)
    R1        2.75851  -0.01617   0.00000  -0.02393  -0.02393   2.73458
    R2        2.57218   0.02821   0.00000   0.02082   0.02082   2.59300
    R3        2.05097   0.00522   0.00000   0.00479   0.00479   2.05576
    R4        2.31463  -0.00289   0.00000   0.00034   0.00034   2.31497
    R5        2.09604   0.00951   0.00000   0.01192   0.01192   2.10796
    R6        3.54430   0.02189   0.00000  -0.01078  -0.01078   3.53352
    R7        2.07074  -0.00078   0.00000   0.00024   0.00024   2.07098
    R8        2.07203  -0.00022   0.00000   0.00154   0.00154   2.07357
    R9        2.06890   0.00253   0.00000   0.00213   0.00213   2.07104
   R10        2.06999   0.00330   0.00000   0.00252   0.00252   2.07252
   R11        2.06881   0.00257   0.00000   0.00223   0.00223   2.07104
   R12        2.76788   0.00288   0.00000  -0.00476  -0.00476   2.76312
   R13        1.93551  -0.00078   0.00000  -0.00146  -0.00146   1.93405
   R14        1.93668  -0.00157   0.00000  -0.00195  -0.00195   1.93472
    A1        2.10281   0.00285   0.00000   0.00067   0.00066   2.10348
    A2        2.04936  -0.00172   0.00000   0.00621   0.00621   2.05557
    A3        2.13091  -0.00113   0.00000  -0.00692  -0.00692   2.12399
    A4        2.14754   0.01652   0.00000   0.02648   0.02648   2.17401
    A5        2.01620  -0.00776   0.00000  -0.01387  -0.01387   2.00233
    A6        2.11944  -0.00876   0.00000  -0.01260  -0.01261   2.10684
    A7        1.98916  -0.00958   0.00000  -0.00544  -0.00541   1.98375
    A8        2.05154   0.00221   0.00000   0.00541   0.00524   2.05678
    A9        2.07697  -0.00124   0.00000  -0.00754  -0.00771   2.06926
   A10        1.57958   0.00581   0.00000   0.02142   0.02141   1.60098
   A11        1.57147   0.00836   0.00000   0.02606   0.02609   1.59756
   A12        2.04672  -0.00332   0.00000  -0.01982  -0.02044   2.02628
   A13        1.89948  -0.00105   0.00000   0.00003   0.00004   1.89952
   A14        1.89602  -0.00001   0.00000  -0.00050  -0.00052   1.89550
   A15        1.91665  -0.00095   0.00000  -0.00338  -0.00338   1.91326
   A16        1.89934  -0.00104   0.00000   0.00011   0.00012   1.89945
   A17        1.93537   0.00397   0.00000   0.00798   0.00798   1.94335
   A18        1.91641  -0.00098   0.00000  -0.00433  -0.00434   1.91207
   A19        2.19683  -0.01138   0.00000  -0.06525  -0.06532   2.13151
   A20        1.84411  -0.00037   0.00000   0.00409   0.00402   1.84812
   A21        1.81084   0.00132   0.00000   0.01592   0.01616   1.82700
   A22        1.88583   0.00714   0.00000   0.02413   0.02345   1.90928
   A23        1.88231   0.00568   0.00000   0.02207   0.02192   1.90422
   A24        1.80790  -0.00125   0.00000   0.01114   0.01064   1.81855
    D1       -3.11585  -0.00037   0.00000   0.00208   0.00209  -3.11376
    D2        0.02485   0.00088   0.00000   0.00609   0.00609   0.03095
    D3        0.01066  -0.00062   0.00000  -0.00078  -0.00079   0.00987
    D4       -3.13182   0.00063   0.00000   0.00322   0.00322  -3.12861
    D5        1.56409   0.00058   0.00000   0.00322   0.00320   1.56729
    D6       -2.90312   0.00305   0.00000   0.03013   0.03009  -2.87304
    D7       -0.25662  -0.00290   0.00000  -0.02218  -0.02211  -0.27872
    D8       -1.56170   0.00085   0.00000   0.00610   0.00607  -1.55563
    D9        0.25427   0.00332   0.00000   0.03301   0.03296   0.28723
   D10        2.90078  -0.00263   0.00000  -0.01930  -0.01923   2.88155
   D11       -3.06130   0.00083   0.00000   0.00532   0.00518  -3.05612
   D12       -0.84727   0.00114   0.00000  -0.01160  -0.01142  -0.85869
   D13        1.04900   0.00014   0.00000   0.00809   0.00804   1.05704
   D14        1.11589  -0.00207   0.00000  -0.01048  -0.01048   1.10542
   D15       -2.95326  -0.00175   0.00000  -0.02740  -0.02708  -2.98034
   D16       -1.05699  -0.00276   0.00000  -0.00771  -0.00761  -1.06460
   D17       -0.93085   0.00114   0.00000   0.00897   0.00869  -0.92216
   D18        1.28318   0.00145   0.00000  -0.00796  -0.00791   1.27527
   D19       -3.10373   0.00045   0.00000   0.01173   0.01156  -3.09218
   D20        1.07168  -0.00108   0.00000  -0.00870  -0.00872   1.06296
   D21       -1.12518   0.00196   0.00000   0.01813   0.01838  -1.10681
   D22       -3.06905  -0.00269   0.00000  -0.01665  -0.01686  -3.08591
   D23       -3.11160  -0.00048   0.00000  -0.00575  -0.00577  -3.11737
   D24        0.97472   0.00256   0.00000   0.02108   0.02132   0.99604
   D25       -0.96914  -0.00208   0.00000  -0.01370  -0.01392  -0.98306
   D26       -1.01203   0.00012   0.00000  -0.00334  -0.00337  -1.01540
   D27        3.07429   0.00316   0.00000   0.02349   0.02373   3.09802
   D28        1.13043  -0.00148   0.00000  -0.01128  -0.01151   1.11892
         Item               Value     Threshold  Converged?
 Maximum Force            0.028209     0.000450     NO 
 RMS     Force            0.006353     0.000300     NO 
 Maximum Displacement     0.103293     0.001800     NO 
 RMS     Displacement     0.033623     0.001200     NO 
 Predicted change in Energy=-3.245696D-03
 GradGradGradGradGradGradGradGradGradGradGradGradGradGradGradGradGradGrad

                          Input orientation:                          
 ---------------------------------------------------------------------
 Center     Atomic      Atomic             Coordinates (Angstroms)
 Number     Number       Type             X           Y           Z
 ---------------------------------------------------------------------
      1          6           0       -0.969135    0.687555   -0.206149
      2          6           0       -1.902619   -0.285084    0.319790
      3          8           0       -3.019083   -0.495310   -0.138482
      4          6           0        0.275499    0.832193    0.353117
      5          6           0        2.939549   -0.344687    0.108041
      6          1           0        2.918324   -0.701243    1.144146
      7          1           0        3.559009   -1.025630   -0.488113
      8          1           0        3.393171    0.652826    0.090780
      9          7           0        1.575705   -0.271172   -0.413973
     10          1           0        1.169061   -1.210126   -0.435697
     11          1           0        1.608151    0.011188   -1.397543
     12          1           0        0.846635    1.733944    0.104753
     13          1           0        0.456838    0.404517    1.347220
     14          1           0       -1.283184    1.279985   -1.062799
     15          1           0       -1.533731   -0.854488    1.205229
 ---------------------------------------------------------------------
                    Distance matrix (angstroms):
                    1          2          3          4          5
     1  C    0.000000
     2  C    1.447077   0.000000
     3  O    2.367707   1.225030   0.000000
     4  C    1.372156   2.448186   3.585833   0.000000
     5  C    4.054879   4.847162   5.965631   2.922716   0.000000
     6  H    4.343315   4.908588   6.077856   3.156212   1.095945
     7  H    4.849597   5.570502   6.608689   3.865309   1.096729
     8  H    4.372537   5.383076   6.518264   3.133827   1.095948
     9  N    2.727372   3.554903   4.608493   1.869861   1.462181
    10  H    2.868059   3.295706   4.259089   2.364687   2.044325
    11  H    2.918783   3.919504   4.822143   2.348365   2.041091
    12  H    2.118634   3.417764   4.469061   1.095918   2.949747
    13  H    2.127549   2.664245   3.885746   1.097284   2.874148
    14  H    1.087864   2.178231   2.649410   2.152865   4.673531
    15  H    2.165330   1.115483   2.034905   2.616162   4.634000
                    6          7          8          9         10
     6  H    0.000000
     7  H    1.783248   0.000000
     8  H    1.780045   1.783208   0.000000
     9  N    2.101266   2.123251   2.100412   0.000000
    10  H    2.411387   2.397632   2.948632   1.023457   0.000000
    11  H    2.946912   2.389121   2.411037   1.023811   1.615412
    12  H    3.361899   3.914551   2.766560   2.195703   3.010580
    13  H    2.706078   3.877787   3.203490   2.193222   2.508610
    14  H    5.142813   5.393788   4.857197   3.316671   3.550691
    15  H    4.455110   5.369609   5.271466   3.553965   3.181855
                   11         12         13         14         15
    11  H    0.000000
    12  H    2.409292   0.000000
    13  H    3.002325   1.860925   0.000000
    14  H    3.175172   2.470908   3.098759   0.000000
    15  H    4.170760   3.684721   2.359580   3.124531   0.000000
 Stoichiometry    C4H9NO
 Framework group  C1[X(C4H9NO)]
 Deg. of freedom    39
 Full point group                 C1      NOp   1
 Largest Abelian subgroup         C1      NOp   1
 Largest concise Abelian subgroup C1      NOp   1
                         Standard orientation:                         
 ---------------------------------------------------------------------
 Center     Atomic      Atomic             Coordinates (Angstroms)
 Number     Number       Type             X           Y           Z
 ---------------------------------------------------------------------
      1          6           0       -0.968845    0.690088   -0.220543
      2          6           0       -1.906878   -0.277691    0.306268
      3          8           0       -3.019118   -0.492602   -0.160032
      4          6           0        0.270657    0.840419    0.348532
      5          6           0        2.937016   -0.338074    0.138872
      6          1           0        2.906487   -0.684657    1.178123
      7          1           0        3.561956   -1.024557   -0.445084
      8          1           0        3.390604    0.659344    0.116118
      9          7           0        1.577934   -0.269935   -0.396130
     10          1           0        1.171664   -1.209158   -0.412497
     11          1           0        1.619221    0.002965   -1.382036
     12          1           0        0.843860    1.739888    0.096680
     13          1           0        0.443076    0.422368    1.348300
     14          1           0       -1.275240    1.274172   -1.085653
     15          1           0       -1.545912   -0.838460    1.200440
 ---------------------------------------------------------------------
 Rotational constants (GHZ):          11.3407924           1.2809448           1.2297449
 Standard basis: def2SVP (5D, 7F)
 There are   135 symmetry adapted cartesian basis functions of A   symmetry.
 There are   129 symmetry adapted basis functions of A   symmetry.
   129 basis functions,   213 primitive gaussians,   135 cartesian basis functions
    24 alpha electrons       24 beta electrons
       nuclear repulsion energy       226.0255313358 Hartrees.
 NAtoms=   15 NActive=   15 NUniq=   15 SFac= 1.00D+00 NAtFMM=   60 NAOKFM=F Big=F
 Integral buffers will be    131072 words long.
 Raffenetti 2 integral format.
 Two-electron integral symmetry is turned on.
 Nuclear repulsion after empirical dispersion term =      226.0187620853 Hartrees.
 ------------------------------------------------------------------------------
 Polarizable Continuum Model (PCM)
 =================================
 Model                : PCM.
 Atomic radii         : UFF (Universal Force Field).
 Polarization charges : Total charges.
 Charge compensation  : None.
 Solution method      : Matrix inversion.
 Cavity type          : Scaled VdW (van der Waals Surface) (Alpha=1.100).
 Cavity algorithm     : GePol (No added spheres)
                        Default sphere list used, NSphG=   15.
                        Lebedev-Laikov grids with approx.  5.0 points / Ang**2.
                        Smoothing algorithm: York/Karplus (Gamma=1.0000).
                        Polarization charges: spherical gaussians, with
                                              point-specific exponents (IZeta= 3).
                        Self-potential: point-specific (ISelfS= 7).
                        Self-field    : sphere-specific E.n sum rule (ISelfD= 2).
 1st derivatives      : Analytical E(r).r(x)/FMM algorithm (CHGder, D1EAlg=3).
                        Cavity 1st derivative terms included.
 Solvent              : Toluene, Eps=   2.374100 Eps(inf)=   2.238315
 ------------------------------------------------------------------------------
 Spheres list:
 ISph  on   Nord     Re0    Alpha      Xe            Ye            Ze
    1   C      1    1.9255  1.100     -0.968845      0.690088     -0.220543
    2   C      2    1.9255  1.100     -1.906878     -0.277691      0.306268
    3   O      3    1.7500  1.100     -3.019118     -0.492602     -0.160032
    4   C      4    1.9255  1.100      0.270657      0.840419      0.348532
    5   C      5    1.9255  1.100      2.937016     -0.338074      0.138872
    6   H      6    1.4430  1.100      2.906487     -0.684657      1.178123
    7   H      7    1.4430  1.100      3.561956     -1.024557     -0.445084
    8   H      8    1.4430  1.100      3.390604      0.659344      0.116118
    9   N      9    1.8300  1.100      1.577934     -0.269935     -0.396130
   10   H     10    1.4430  1.100      1.171664     -1.209158     -0.412497
   11   H     11    1.4430  1.100      1.619221      0.002965     -1.382036
   12   H     12    1.4430  1.100      0.843860      1.739888      0.096680
   13   H     13    1.4430  1.100      0.443076      0.422368      1.348300
   14   H     14    1.4430  1.100     -1.275240      1.274172     -1.085653
   15   H     15    1.4430  1.100     -1.545912     -0.838460      1.200440
 ------------------------------------------------------------------------------
 One-electron integrals computed using PRISM.
   1 Symmetry operations used in ECPInt.
 ECPInt:  NShTT=    2016 NPrTT=    7008 LenC2=    1986 LenP2D=    5678.
 LDataN:  DoStor=T MaxTD1= 4 Len=   56
 NBasis=   129 RedAO= T EigKep=  2.09D-03  NBF=   129
 NBsUse=   129 1.00D-06 EigRej= -1.00D+00 NBFU=   129
 Initial guess from the checkpoint file:  "TS-249_opt_dft.chk"
 B after Tr=     0.000000    0.000000    0.000000
         Rot=    0.999992    0.003908    0.000062    0.001062 Ang=   0.46 deg.
 ExpMin= 1.22D-01 ExpMax= 2.27D+03 ExpMxC= 3.41D+02 IAcc=3 IRadAn=         5 AccDes= 0.00D+00
 Harris functional with IExCor= 4639 and IRadAn=       5 diagonalized for initial guess.
 HarFok:  IExCor= 4639 AccDes= 0.00D+00 IRadAn=         5 IDoV= 1 UseB2=F ITyADJ=14
 ICtDFT=  3500011 ScaDFX=  1.000000  1.000000  1.000000  1.000000
 FoFCou: FMM=F IPFlag=           0 FMFlag=      100000 FMFlg1=           0
         NFxFlg=           0 DoJE=T BraDBF=F KetDBF=T FulRan=T
         wScrn=  0.000000 ICntrl=       500 IOpCl=  0 I1Cent=   200000004 NGrid=           0
         NMat0=    1 NMatS0=      1 NMatT0=    0 NMatD0=    1 NMtDS0=    0 NMtDT0=    0
 Petite list used in FoFCou.
 Requested convergence on RMS density matrix=1.00D-08 within 128 cycles.
 Requested convergence on MAX density matrix=1.00D-06.
 Requested convergence on             energy=1.00D-06.
 No special actions if energy rises.
 Inv3:  Mode=1 IEnd=     4876875.
 Iteration    1 A*A^-1 deviation from unit magnitude is 3.11D-15 for   1141.
 Iteration    1 A*A^-1 deviation from orthogonality  is 1.22D-15 for   1121    566.
 Iteration    1 A^-1*A deviation from unit magnitude is 3.11D-15 for   1141.
 Iteration    1 A^-1*A deviation from orthogonality  is 1.55D-15 for   1139    739.
 Error on total polarization charges =  0.00618
 SCF Done:  E(RwB97XD) =  -287.444577026     A.U. after   13 cycles
            NFock= 13  Conv=0.37D-08     -V/T= 2.0101
   1 Symmetry operations used in ECPInt.
 ECPInt:  NShTT=    2016 NPrTT=    7008 LenC2=    1986 LenP2D=    5678.
 LDataN:  DoStor=T MaxTD1= 5 Len=  102
 D1PCM: PCM CHGder 1st derivatives, ID1Alg=3 FixD1E=F DoIter=F DoCFld=F I1PDM=0.
 Calling FoFJK, ICntrl=      2127 FMM=F ISym2X=0 I1Cent= 0 IOpClX= 0 NMat=1 NMatS=1 NMatT=0.
 ***** Axes restored to original set *****
 -------------------------------------------------------------------
 Center     Atomic                   Forces (Hartrees/Bohr)
 Number     Number              X              Y              Z
 -------------------------------------------------------------------
      1        6          -0.019394443   -0.014312957    0.005801007
      2        6          -0.000170800    0.016754768   -0.021070837
      3        8           0.000423968   -0.004725993    0.006256005
      4        6           0.012478334    0.008005570    0.008579707
      5        6          -0.001802953    0.002145459    0.001821013
      6        1          -0.000194646   -0.000208243    0.001759092
      7        1           0.002699496   -0.001067459   -0.000121526
      8        1           0.000578723    0.001679275    0.000300310
      9        7           0.012807065   -0.016016798   -0.017562331
     10        1          -0.003518600    0.002061792    0.001751509
     11        1          -0.002675221    0.001094222    0.001347458
     12        1          -0.000561781    0.001467976    0.006555230
     13        1          -0.001497707    0.004982391    0.002188019
     14        1          -0.000894344    0.001365057   -0.003336905
     15        1           0.001722910   -0.003225059    0.005732249
 -------------------------------------------------------------------
 Cartesian Forces:  Max     0.021070837 RMS     0.007625495

 GradGradGradGradGradGradGradGradGradGradGradGradGradGradGradGradGradGrad
 Berny optimization.
 FormGI is forming the generalized inverse of G from B-inverse, IUseBI=4.
 Internal  Forces:  Max     0.019742072 RMS     0.004439598
 Search for a saddle point.
 Step number   3 out of a maximum of   50
 All quantities printed in internal units (Hartrees-Bohrs-Radians)
 Swapping is turned off.
 Update second derivatives using D2CorX and points    1    2    3
 ITU=  0  0  0
     Eigenvalues ---   -0.01670   0.00079   0.00170   0.01020   0.01217
     Eigenvalues ---    0.01304   0.01647   0.02796   0.04056   0.04773
     Eigenvalues ---    0.04800   0.04916   0.05073   0.08526   0.09014
     Eigenvalues ---    0.09131   0.09564   0.10202   0.10918   0.13353
     Eigenvalues ---    0.13530   0.16146   0.17358   0.17877   0.19640
     Eigenvalues ---    0.23515   0.31984   0.33437   0.34873   0.35159
     Eigenvalues ---    0.35187   0.35678   0.35999   0.37170   0.38543
     Eigenvalues ---    0.43752   0.44060   0.61679   0.82776
 Eigenvectors required to have negative eigenvalues:
                          R6        D6        D10       A11       A10
   1                    0.83394  -0.20793   0.19584  -0.19340  -0.18445
                          D9        A19       D7        R2        A21
   1                   -0.18024   0.17210   0.16815  -0.11023  -0.09026
 RFO step:  Lambda0=1.186126700D-03 Lambda=-6.69378704D-03.
 Linear search not attempted -- option 19 set.
 Maximum step size (   0.100) exceeded in Quadratic search.
    -- Step size scaled by   0.361
 Iteration  1 RMS(Cart)=  0.02896721 RMS(Int)=  0.00046826
 Iteration  2 RMS(Cart)=  0.00059417 RMS(Int)=  0.00020125
 Iteration  3 RMS(Cart)=  0.00000024 RMS(Int)=  0.00020125
 Variable       Old X    -DE/DX   Delta X   Delta X   Delta X     New X
                                 (Linear)    (Quad)   (Total)
    R1        2.73458  -0.01048   0.00000  -0.01922  -0.01922   2.71536
    R2        2.59300   0.01974   0.00000   0.02176   0.02176   2.61476
    R3        2.05576   0.00363   0.00000   0.00386   0.00386   2.05962
    R4        2.31497  -0.00192   0.00000   0.00128   0.00128   2.31625
    R5        2.10796   0.00677   0.00000   0.01082   0.01082   2.11878
    R6        3.53352   0.01596   0.00000  -0.04288  -0.04288   3.49065
    R7        2.07098  -0.00057   0.00000   0.00103   0.00103   2.07202
    R8        2.07357  -0.00021   0.00000   0.00209   0.00209   2.07566
    R9        2.07104   0.00173   0.00000   0.00147   0.00147   2.07251
   R10        2.07252   0.00225   0.00000   0.00143   0.00143   2.07394
   R11        2.07104   0.00177   0.00000   0.00147   0.00147   2.07251
   R12        2.76312   0.00241   0.00000  -0.00177  -0.00177   2.76135
   R13        1.93405  -0.00053   0.00000  -0.00124  -0.00124   1.93281
   R14        1.93472  -0.00108   0.00000  -0.00155  -0.00155   1.93318
    A1        2.10348   0.00197   0.00000   0.00007   0.00007   2.10355
    A2        2.05557  -0.00114   0.00000   0.00634   0.00634   2.06191
    A3        2.12399  -0.00084   0.00000  -0.00645  -0.00646   2.11753
    A4        2.17401   0.01151   0.00000   0.02301   0.02301   2.19702
    A5        2.00233  -0.00540   0.00000  -0.01222  -0.01223   1.99011
    A6        2.10684  -0.00611   0.00000  -0.01080  -0.01080   2.09604
    A7        1.98375  -0.00628   0.00000  -0.00449  -0.00443   1.97932
    A8        2.05678   0.00162   0.00000   0.00182   0.00149   2.05828
    A9        2.06926  -0.00087   0.00000  -0.01078  -0.01107   2.05819
   A10        1.60098   0.00402   0.00000   0.02885   0.02882   1.62980
   A11        1.59756   0.00568   0.00000   0.03105   0.03109   1.62865
   A12        2.02628  -0.00261   0.00000  -0.02177  -0.02274   2.00354
   A13        1.89952  -0.00080   0.00000   0.00058   0.00058   1.90010
   A14        1.89550  -0.00008   0.00000   0.00015   0.00014   1.89564
   A15        1.91326  -0.00073   0.00000  -0.00356  -0.00357   1.90970
   A16        1.89945  -0.00085   0.00000   0.00071   0.00071   1.90016
   A17        1.94335   0.00296   0.00000   0.00456   0.00456   1.94791
   A18        1.91207  -0.00056   0.00000  -0.00248  -0.00248   1.90959
   A19        2.13151  -0.00754   0.00000  -0.05131  -0.05139   2.08012
   A20        1.84812  -0.00062   0.00000  -0.00526  -0.00536   1.84276
   A21        1.82700   0.00076   0.00000   0.01365   0.01394   1.84094
   A22        1.90928   0.00483   0.00000   0.01930   0.01854   1.92782
   A23        1.90422   0.00389   0.00000   0.01964   0.01956   1.92378
   A24        1.81855  -0.00072   0.00000   0.01224   0.01191   1.83045
    D1       -3.11376  -0.00023   0.00000   0.00292   0.00293  -3.11083
    D2        0.03095   0.00066   0.00000   0.00693   0.00693   0.03788
    D3        0.00987  -0.00045   0.00000   0.00009   0.00008   0.00995
    D4       -3.12861   0.00043   0.00000   0.00409   0.00408  -3.12452
    D5        1.56729   0.00040   0.00000   0.00445   0.00442   1.57171
    D6       -2.87304   0.00230   0.00000   0.03949   0.03939  -2.83365
    D7       -0.27872  -0.00207   0.00000  -0.02598  -0.02584  -0.30457
    D8       -1.55563   0.00063   0.00000   0.00726   0.00723  -1.54840
    D9        0.28723   0.00254   0.00000   0.04231   0.04219   0.32942
   D10        2.88155  -0.00184   0.00000  -0.02317  -0.02304   2.85851
   D11       -3.05612   0.00063   0.00000   0.00921   0.00903  -3.04709
   D12       -0.85869   0.00084   0.00000  -0.00972  -0.00950  -0.86819
   D13        1.05704   0.00010   0.00000   0.00724   0.00720   1.06424
   D14        1.10542  -0.00143   0.00000  -0.00685  -0.00684   1.09858
   D15       -2.98034  -0.00122   0.00000  -0.02578  -0.02537  -3.00570
   D16       -1.06460  -0.00195   0.00000  -0.00882  -0.00867  -1.07327
   D17       -0.92216   0.00074   0.00000   0.01221   0.01184  -0.91032
   D18        1.27527   0.00095   0.00000  -0.00672  -0.00669   1.26859
[...]
 ! R9    R(5,6)                  1.0978         -DE/DX =    0.0                 !
 ! R10   R(5,7)                  1.0987         -DE/DX =    0.0                 !
 ! R11   R(5,8)                  1.098          -DE/DX =    0.0                 !
 ! R12   R(5,9)                  1.4624         -DE/DX =    0.0                 !
 ! R13   R(9,10)                 1.0222         -DE/DX =    0.0                 !
 ! R14   R(9,11)                 1.022          -DE/DX =    0.0                 !
 ! A1    A(2,1,4)              120.5849         -DE/DX =    0.0                 !
 ! A2    A(2,1,14)             118.9049         -DE/DX =    0.0                 !
 ! A3    A(4,1,14)             120.4833         -DE/DX =    0.0                 !
 ! A4    A(1,2,3)              128.4737         -DE/DX =    0.0                 !
 ! A5    A(1,2,15)             112.6045         -DE/DX =    0.0                 !
 ! A6    A(3,2,15)             118.9169         -DE/DX =    0.0                 !
 ! A7    A(1,4,9)              112.6345         -DE/DX =    0.0                 !
 ! A8    A(1,4,12)             118.2828         -DE/DX =    0.0                 !
 ! A9    A(1,4,13)             116.4459         -DE/DX =    0.0                 !
 ! A10   A(9,4,12)              96.6294         -DE/DX =    0.0                 !
 ! A11   A(9,4,13)              97.0346         -DE/DX =    0.0                 !
 ! A12   A(12,4,13)            111.8355         -DE/DX =    0.0                 !
 ! A13   A(6,5,7)              109.1164         -DE/DX =    0.0                 !
 ! A14   A(6,5,8)              108.5873         -DE/DX =    0.0                 !
 ! A15   A(6,5,9)              108.9717         -DE/DX =    0.0                 !
 ! A16   A(7,5,8)              109.085          -DE/DX =    0.0                 !
 ! A17   A(7,5,9)              112.0541         -DE/DX =    0.0                 !
 ! A18   A(8,5,9)              108.9639         -DE/DX =    0.0                 !
 ! A19   A(4,9,5)              116.1916         -DE/DX =    0.0                 !
 ! A20   A(4,9,10)             104.2222         -DE/DX =    0.0                 !
 ! A21   A(4,9,11)             104.7241         -DE/DX =    0.0                 !
 ! A22   A(5,9,10)             112.4514         -DE/DX =    0.0                 !
 ! A23   A(5,9,11)             112.296          -DE/DX =    0.0                 !
 ! A24   A(10,9,11)            106.043          -DE/DX =    0.0                 !
 ! D1    D(4,1,2,3)           -177.7966         -DE/DX =    0.0                 !
 ! D2    D(4,1,2,15)             3.0328         -DE/DX =    0.0                 !
 ! D3    D(14,1,2,3)             0.3274         -DE/DX =    0.0                 !
 ! D4    D(14,1,2,15)         -178.8432         -DE/DX =    0.0                 !
 ! D5    D(2,1,4,9)             91.5134         -DE/DX =    0.0                 !
 ! D6    D(2,1,4,12)          -156.9935         -DE/DX =    0.0                 !
 ! D7    D(2,1,4,13)           -19.3167         -DE/DX =    0.0                 !
 ! D8    D(14,1,4,9)           -86.5809         -DE/DX =    0.0                 !
 ! D9    D(14,1,4,12)           24.9122         -DE/DX =    0.0                 !
 ! D10   D(14,1,4,13)          162.5891         -DE/DX =    0.0                 !
 ! D11   D(1,4,9,5)            178.4429         -DE/DX =    0.0                 !
 ! D12   D(1,4,9,10)           -57.2433         -DE/DX =    0.0                 !
 ! D13   D(1,4,9,11)            53.9418         -DE/DX =    0.0                 !
 ! D14   D(12,4,9,5)            54.0212         -DE/DX =    0.0                 !
 ! D15   D(12,4,9,10)          178.3349         -DE/DX =    0.0                 !
 ! D16   D(12,4,9,11)          -70.48           -DE/DX =    0.0                 !
 ! D17   D(13,4,9,5)           -59.0347         -DE/DX =    0.0                 !
 ! D18   D(13,4,9,10)           65.279          -DE/DX =    0.0                 !
 ! D19   D(13,4,9,11)          176.4642         -DE/DX =    0.0                 !
 ! D20   D(6,5,9,4)             58.9354         -DE/DX =    0.0                 !
 ! D21   D(6,5,9,10)           -61.0318         -DE/DX =    0.0                 !
 ! D22   D(6,5,9,11)           179.4548         -DE/DX =    0.0                 !
 ! D23   D(7,5,9,4)            179.7934         -DE/DX =    0.0                 !
 ! D24   D(7,5,9,10)            59.8261         -DE/DX =    0.0                 !
 ! D25   D(7,5,9,11)           -59.6873         -DE/DX =    0.0                 !
 ! D26   D(8,5,9,4)            -59.3934         -DE/DX =    0.0                 !
 ! D27   D(8,5,9,10)          -179.3607         -DE/DX =    0.0                 !
 ! D28   D(8,5,9,11)            61.1259         -DE/DX =    0.0                 !
 --------------------------------------------------------------------------------
 GradGradGradGradGradGradGradGradGradGradGradGradGradGradGradGradGradGrad

                          Input orientation:                          
 ---------------------------------------------------------------------
 Center     Atomic      Atomic             Coordinates (Angstroms)
 Number     Number       Type             X           Y           Z
 ---------------------------------------------------------------------
      1          6           0       -0.925210    0.671213   -0.214546
      2          6           0       -1.890403   -0.251279    0.268043
      3          8           0       -3.024923   -0.458855   -0.151547
      4          6           0        0.357176    0.740565    0.370469
      5          6           0        2.907340   -0.288593    0.082543
      6          1           0        2.891494   -0.570266    1.143439
      7          1           0        3.575836   -0.970515   -0.460848
      8          1           0        3.293575    0.735720   -0.001865
      9          7           0        1.541885   -0.326192   -0.439799
     10          1           0        1.125352   -1.257576   -0.376891
     11          1           0        1.496686   -0.062628   -1.426150
     12          1           0        0.928991    1.671000    0.261221
     13          1           0        0.459213    0.313776    1.378779
     14          1           0       -1.181057    1.306361   -1.067934
     15          1           0       -1.521766   -0.838260    1.165405
 ---------------------------------------------------------------------
                    Distance matrix (angstroms):
                    1          2          3          4          5
     1  C    0.000000
     2  C    1.419676   0.000000
     3  O    2.385334   1.227306   0.000000
     4  C    1.411229   2.458832   3.626252   0.000000
     5  C    3.962061   4.801473   5.939321   2.765032   0.000000
     6  H    4.237053   4.871817   6.057507   2.956099   1.097767
     7  H    4.797431   5.561326   6.627781   3.738804   1.098717
     8  H    4.224634   5.283998   6.432171   2.959914   1.097961
     9  N    2.670601   3.505317   4.577819   1.788306   1.462438
    10  H    2.819821   3.243971   4.232437   2.267423   2.079781
    11  H    2.805724   3.791866   4.714505   2.274080   2.077777
    12  H    2.159627   3.412357   4.509999   1.097550   2.790304
    13  H    2.140811   2.659646   3.883048   1.099659   2.834855
    14  H    1.094140   2.171231   2.712119   2.180663   4.536791
    15  H    2.130412   1.133887   2.034157   2.579735   4.592571
                    6          7          8          9         10
     6  H    0.000000
     7  H    1.789486   0.000000
     8  H    1.782972   1.789295   0.000000
     9  N    2.094674   2.133671   2.094722   0.000000
    10  H    2.429620   2.468668   2.969017   1.022220   0.000000
    11  H    2.967485   2.465548   2.427912   1.021957   1.633014
    12  H    3.106927   3.808513   2.556407   2.203597   3.003715
    13  H    2.598635   3.840178   3.180852   2.211100   2.448523
    14  H    4.999757   5.308554   4.635134   3.236386   3.517220
    15  H    4.421444   5.352358   5.198792   3.496406   3.092206
                   11         12         13         14         15
    11  H    0.000000
    12  H    2.484948   0.000000
    13  H    3.014243   1.819803   0.000000
    14  H    3.028656   2.520301   3.108395   0.000000
    15  H    4.053248   3.622174   2.301520   3.115010   0.000000
 Stoichiometry    C4H9NO
 Framework group  C1[X(C4H9NO)]
 Deg. of freedom    39
 Full point group                 C1      NOp   1
 Largest Abelian subgroup         C1      NOp   1
 Largest concise Abelian subgroup C1      NOp   1
                         Standard orientation:                         
 ---------------------------------------------------------------------
 Center     Atomic      Atomic             Coordinates (Angstroms)
 Number     Number       Type             X           Y           Z
 ---------------------------------------------------------------------
      1          6           0       -0.929611    0.659087   -0.270853
      2          6           0       -1.900143   -0.211587    0.290820
      3          8           0       -3.032542   -0.455839   -0.114513
      4          6           0        0.349264    0.781148    0.313224
      5          6           0        2.898555   -0.275619    0.140720
      6          1           0        2.875360   -0.455334    1.223428
      7          1           0        3.568701   -1.007314   -0.331197
      8          1           0        3.287911    0.735315   -0.037978
      9          7           0        1.536302   -0.359964   -0.384517
     10          1           0        1.117019   -1.280370   -0.236231
     11          1           0        1.497941   -0.191085   -1.391693
     12          1           0        0.924112    1.695912    0.119903
     13          1           0        0.443910    0.451755    1.358112
     14          1           0       -1.178504    1.210895   -1.182281
     15          1           0       -1.538617   -0.711492    1.242184
 ---------------------------------------------------------------------
 Rotational constants (GHZ):          12.1176001           1.2986443           1.2541492

 **********************************************************************

            Population analysis using the SCF Density.

 **********************************************************************

 Orbital symmetries:
       Occupied  (A) (A) (A) (A) (A) (A) (A) (A) (A) (A) (A) (A)
                 (A) (A) (A) (A) (A) (A) (A) (A) (A) (A) (A) (A)
       Virtual   (A) (A) (A) (A) (A) (A) (A) (A) (A) (A) (A) (A)
                 (A) (A) (A) (A) (A) (A) (A) (A) (A) (A) (A) (A)
                 (A) (A) (A) (A) (A) (A) (A) (A) (A) (A) (A) (A)
                 (A) (A) (A) (A) (A) (A) (A) (A) (A) (A) (A) (A)
                 (A) (A) (A) (A) (A) (A) (A) (A) (A) (A) (A) (A)
                 (A) (A) (A) (A) (A) (A) (A) (A) (A) (A) (A) (A)
                 (A) (A) (A) (A) (A) (A) (A) (A) (A) (A) (A) (A)
                 (A) (A) (A) (A) (A) (A) (A) (A) (A) (A) (A) (A)
                 (A) (A) (A) (A) (A) (A) (A) (A) (A)
 The electronic state is 1-A.
 Alpha  occ. eigenvalues --  -19.17621 -14.52851 -10.36181 -10.34791 -10.32767
 Alpha  occ. eigenvalues --  -10.24025  -1.05991  -1.05759  -0.85810  -0.80345
 Alpha  occ. eigenvalues --   -0.71848  -0.65967  -0.61492  -0.59115  -0.55760
 Alpha  occ. eigenvalues --   -0.51938  -0.51352  -0.50211  -0.47113  -0.44924
 Alpha  occ. eigenvalues --   -0.43415  -0.42066  -0.28243  -0.25329
 Alpha virt. eigenvalues --    0.09025   0.10806   0.14934   0.15224   0.17066
 Alpha virt. eigenvalues --    0.17790   0.19848   0.20263   0.22480   0.23417
 Alpha virt. eigenvalues --    0.25426   0.26244   0.34154   0.37049   0.44793
 Alpha virt. eigenvalues --    0.46174   0.48012   0.51102   0.52303   0.57809
 Alpha virt. eigenvalues --    0.60205   0.61407   0.64575   0.67008   0.68927
 Alpha virt. eigenvalues --    0.69576   0.70599   0.72765   0.73662   0.73984
 Alpha virt. eigenvalues --    0.74991   0.77287   0.78935   0.79535   0.80361
 Alpha virt. eigenvalues --    0.81968   0.85094   0.88195   0.90527   0.96155
 Alpha virt. eigenvalues --    1.00228   1.05953   1.10216   1.16120   1.17702
 Alpha virt. eigenvalues --    1.22047   1.28357   1.32095   1.36596   1.37396
 Alpha virt. eigenvalues --    1.39761   1.43472   1.46915   1.56157   1.57535
 Alpha virt. eigenvalues --    1.60857   1.64585   1.74847   1.75972   1.80348
 Alpha virt. eigenvalues --    1.82591   1.83009   1.84174   1.85239   1.86675
 Alpha virt. eigenvalues --    1.87699   1.90119   1.92899   1.97669   2.01024
 Alpha virt. eigenvalues --    2.02730   2.05793   2.08888   2.10579   2.12555
 Alpha virt. eigenvalues --    2.14917   2.20878   2.25988   2.30884   2.36026
 Alpha virt. eigenvalues --    2.36355   2.39016   2.43963   2.48635   2.53184
 Alpha virt. eigenvalues --    2.61607   2.67895   2.68633   2.71691   2.72414
 Alpha virt. eigenvalues --    2.77941   2.81163   2.86159   2.88546   2.96302
 Alpha virt. eigenvalues --    3.02319   3.03066   3.04925   3.07439   3.22378
 Alpha virt. eigenvalues --    3.28634   3.33793   3.46575   3.57107   3.76156
          Condensed to atoms (all electrons):
               1          2          3          4          5          6
     1  C    5.692992   0.282016  -0.112276   0.344911   0.004282   0.000527
     2  C    0.282016   4.495932   0.670431   0.014820   0.000107  -0.000039
     3  O   -0.112276   0.670431   7.852070   0.005483  -0.000000   0.000000
     4  C    0.344911   0.014820   0.005483   4.759653  -0.012356  -0.001889
     5  C    0.004282   0.000107  -0.000000  -0.012356   4.517713   0.406807
     6  H    0.000527  -0.000039   0.000000  -0.001889   0.406807   0.573764
     7  H   -0.000347  -0.000005   0.000000   0.001832   0.404769  -0.020314
     8  H    0.000527   0.000009  -0.000000  -0.002661   0.406508  -0.017257
     9  N   -0.088729  -0.003798   0.000066   0.063428   0.290038  -0.025788
    10  H    0.009987   0.003131  -0.000190  -0.000055  -0.015505  -0.004998
    11  H    0.009569  -0.000522  -0.000030  -0.004350  -0.017189   0.006384
    12  H   -0.006750   0.004598  -0.000108   0.387477   0.002066  -0.001055
    13  H   -0.024155  -0.010257   0.000093   0.391171   0.000697   0.005784
    14  H    0.368169  -0.014703   0.005940  -0.041704  -0.000074   0.000012
    15  H   -0.197992   0.412719  -0.051243   0.017965  -0.000012  -0.000010
               7          8          9         10         11         12
     1  C   -0.000347   0.000527  -0.088729   0.009987   0.009569  -0.006750
     2  C   -0.000005   0.000009  -0.003798   0.003131  -0.000522   0.004598
     3  O    0.000000  -0.000000   0.000066  -0.000190  -0.000030  -0.000108
     4  C    0.001832  -0.002661   0.063428  -0.000055  -0.004350   0.387477
     5  C    0.404769   0.406508   0.290038  -0.015505  -0.017189   0.002066
     6  H   -0.020314  -0.017257  -0.025788  -0.004998   0.006384  -0.001055
     7  H    0.579609  -0.020257  -0.012976  -0.006394  -0.005932  -0.000306
     8  H   -0.020257   0.574857  -0.025137   0.006452  -0.005276   0.006457
     9  N   -0.012976  -0.025137   6.422067   0.326494   0.334052  -0.043239
    10  H   -0.006394   0.006452   0.326494   0.517357  -0.012829   0.005144
    11  H   -0.005932  -0.005276   0.334052  -0.012829   0.514438  -0.002109
    12  H   -0.000306   0.006457  -0.043239   0.005144  -0.002109   0.635154
    13  H   -0.000205  -0.001153  -0.031209  -0.003017   0.004547  -0.027832
    14  H    0.000004  -0.000029  -0.000687  -0.000115   0.001933  -0.009766
    15  H   -0.000001   0.000000  -0.001014   0.001244   0.000108  -0.000404
              13         14         15
     1  C   -0.024155   0.368169  -0.197992
     2  C   -0.010257  -0.014703   0.412719
     3  O    0.000093   0.005940  -0.051243
     4  C    0.391171  -0.041704   0.017965
     5  C    0.000697  -0.000074  -0.000012
     6  H    0.005784   0.000012  -0.000010
     7  H   -0.000205   0.000004  -0.000001
     8  H   -0.001153  -0.000029   0.000000
     9  N   -0.031209  -0.000687  -0.001014
    10  H   -0.003017  -0.000115   0.001244
    11  H    0.004547   0.001933   0.000108
    12  H   -0.027832  -0.009766  -0.000404
    13  H    0.625057   0.007246   0.011758
    14  H    0.007246   0.672776   0.011972
    15  H    0.011758   0.011972   0.859580
 Mulliken charges:
               1
     1  C   -0.282731
     2  C    0.145560
     3  O   -0.370237
     4  C    0.076274
     5  C    0.012147
     6  H    0.078069
     7  H    0.080524
     8  H    0.076960
     9  N   -0.203569
    10  H    0.173293
    11  H    0.177206
    12  H    0.050674
    13  H    0.051475
    14  H   -0.000974
    15  H   -0.064670
 Sum of Mulliken charges =  -0.00000
 Mulliken charges with hydrogens summed into heavy atoms:
               1
     1  C   -0.283705
     2  C    0.080891
     3  O   -0.370237
     4  C    0.178422
     5  C    0.247700
     9  N    0.146930
 Electronic spatial extent (au):  <R**2>=            937.5368
 Charge=             -0.0000 electrons
 Dipole moment (field-independent basis, Debye):
    X=             11.5306    Y=             -0.6970    Z=             -0.2753  Tot=             11.5549
 Quadrupole moment (field-independent basis, Debye-Ang):
   XX=            -48.5855   YY=            -36.6598   ZZ=            -35.2906
   XY=             -3.9228   XZ=             -2.7116   YZ=             -0.2827
 Traceless Quadrupole moment (field-independent basis, Debye-Ang):
   XX=             -8.4069   YY=              3.5188   ZZ=              4.8880
   XY=             -3.9228   XZ=             -2.7116   YZ=             -0.2827
 Octapole moment (field-independent basis, Debye-Ang**2):
  XXX=             98.3139  YYY=             -7.0099  ZZZ=             -4.2348  XYY=              8.6058
  XXY=              5.5484  XXZ=              0.9243  XZZ=              5.8354  YZZ=             -1.5619
  YYZ=             -2.2970  XYZ=              1.1969
 Hexadecapole moment (field-independent basis, Debye-Ang**3):
 XXXX=          -1115.1795 YYYY=           -117.0434 ZZZZ=            -79.0371 XXXY=            -41.1156
 XXXZ=            -15.0185 YYYX=              2.3725 YYYZ=              0.8537 ZZZX=             -2.7816
 ZZZY=              0.4999 XXYY=           -182.1378 XXZZ=           -170.9105 YYZZ=            -34.4167
 XXYZ=             -0.4875 YYXZ=             -0.5114 ZZXY=             -1.8873
 N-N= 2.275104072529D+02 E-N=-1.124051280075D+03  KE= 2.844657596595D+02
 Unable to Open any file for archive entry.
 1\1\GINC-NODE-004\FTS\RwB97XD\def2SVP\C4H9N1O1\JP2658\18-Dec-2023\0\\#
  wb97xd def2svp scrf=(iefpcm,solvent=toluene) opt=(calcfc,ts,noeigen,m
 axcycles=50,maxstep=10)\\TS-249.out\\0,1\C,-0.9252095471,0.6712131272,
 -0.2145456031\C,-1.8904026157,-0.2512790783,0.2680425268\O,-3.02492310
 4,-0.4588548068,-0.1515474263\C,0.3571764124,0.7405646003,0.3704694243
 \C,2.9073403171,-0.2885928593,0.082542691\H,2.8914935274,-0.5702661016
 ,1.1434389015\H,3.5758357385,-0.9705153901,-0.460848276\H,3.2935746363
 ,0.7357201699,-0.0018648499\N,1.5418848104,-0.3261916308,-0.4397992095
 \H,1.1253523732,-1.2575762278,-0.37689052\H,1.496686382,-0.0626279773,
 -1.4261498219\H,0.9289909841,1.6709996523,0.2612213494\H,0.4592133424,
 0.3137757482,1.3787794026\H,-1.181057279,1.3063608,-1.0679338874\H,-1.
 521765978,-0.8382600259,1.1654052985\\Version=ES64L-G16RevC.01\State=1
 -A\HF=-287.4473884\RMSD=5.329e-09\RMSF=6.333e-06\Dipole=4.5362049,-0.2
 51165,-0.1622014\Quadrupole=-6.2646261,2.6511915,3.6134346,-2.7366194,
 -2.2212288,-0.2912243\PG=C01 [X(C4H9N1O1)]\\@
 The archive entry for this job was punched.


 CONFIDENCE: THAT QUIET ASSURED FEELING YOU HAVE
 JUST BEFORE YOU FALL FLAT ON YOUR FACE.
 Job cpu time:       0 days  0 hours 30 minutes 28.0 seconds.
 Elapsed time:       0 days  0 hours  2 minutes 35.9 seconds.
 File lengths (MBytes):  RWF=     63 Int=      0 D2E=      0 Chk=      7 Scr=      1
 Normal termination of Gaussian 16 at Mon Dec 18 20:29:52 2023.
