Unloading slurm/anatra/current
  ERROR: No such file or directory on
    '/cm/local/modulefiles/slurm/anatra/current'
environment: line 0: unalias: gv: not found
environment: line 0: unalias: sl: not found
 Entering Gaussian System, Link 0=g16
 Initial command:
 /apps/gaussian/g16/C.01/g16/l1.exe "/local/jobs/1150747/Gau-708212.inp" -scrdir="/local/jobs/1150747/"
 Entering Link 1 = /apps/gaussian/g16/C.01/g16/l1.exe PID=    708215.
  
 Copyright (c) 1988-2019, Gaussian, Inc.  All Rights Reserved.
  
 This is part of the Gaussian(R) 16 program.  It is based on
 the Gaussian(R) 09 system (copyright 2009, Gaussian, Inc.),
 the Gaussian(R) 03 system (copyright 2003, Gaussian, Inc.),
 the Gaussian(R) 98 system (copyright 1998, Gaussian, Inc.),
 the Gaussian(R) 94 system (copyright 1995, Gaussian, Inc.),
 the Gaussian 92(TM) system (copyright 1992, Gaussian, Inc.),
 the Gaussian 90(TM) system (copyright 1990, Gaussian, Inc.),
 the Gaussian 88(TM) system (copyright 1988, Gaussian, Inc.),
 the Gaussian 86(TM) system (copyright 1986, Carnegie Mellon
 University), and the Gaussian 82(TM) system (copyright 1983,
 Carnegie Mellon University). Gaussian is a federally registered
 trademark of Gaussian, Inc.
  
 This software contains proprietary and confidential information,
 including trade secrets, belonging to Gaussian, Inc.
  
 This software is provided under written license and may be
 used, copied, transmitted, or stored only in accord with that
 written license.
  
 The following legend is applicable only to US Government
 contracts under FAR:
  
                    RESTRICTED RIGHTS LEGEND
  
 Use, reproduction and disclosure by the US Government is
 subject to restrictions as set forth in subparagraphs (a)
 and (c) of the Commercial Computer Software - Restricted
 Rights clause in FAR 52.227-19.
  
 Gaussian, Inc.
 340 Quinnipiac St., Bldg. 40, Wallingford CT 06492
  
  
 ---------------------------------------------------------------
 Warning -- This program may not be used in any manner that
 competes with the business of Gaussian, Inc. or will provide
 assistance to any competitor of Gaussian, Inc.  The licensee
 of this program is prohibited from giving any competitor of
 Gaussian, Inc. access to this program.  By using this program,
 the user acknowledges that Gaussian, Inc. is engaged in the
 business of creating and licensing software in the field of
 computational chemistry and represents and warrants to the
 licensee that it is not a competitor of Gaussian, Inc. and that
 it will not use this program in any manner prohibited above.
 ---------------------------------------------------------------
  

 Cite this work as:
 Gaussian 16, Revision C.01,
 M. J. Frisch, G. W. Trucks, H. B. Schlegel, G. E. Scuseria, 
 M. A. Robb, J. R. Cheeseman, G. Scalmani, V. Barone, 
 G. A. Petersson, H. Nakatsuji, X. Li, M. Caricato, A. V. Marenich, 
 J. Bloino, B. G. Janesko, R. Gomperts, B. Mennucci, H. P. Hratchian, 
 J. V. Ortiz, A. F. Izmaylov, J. L. Sonnenberg, D. Williams-Young, 
 F. Ding, F. Lipparini, F. Egidi, J. Goings, B. Peng, A. Petrone, 
 T. Henderson, D. Ranasinghe, V. G. Zakrzewski, J. Gao, N. Rega, 
 G. Zheng, W. Liang, M. Hada, M. Ehara, K. Toyota, R. Fukuda, 
 J. Hasegawa, M. Ishida, T. Nakajima, Y. Honda, O. Kitao, H. Nakai, 
 T. Vreven, K. Throssell, J. A. Montgomery, Jr., J. E. Peralta, 
 F. Ogliaro, M. J. Bearpark, J. J. Heyd, E. N. Brothers, K. N. Kudin, 
 V. N. Staroverov, T. A. Keith, R. Kobayashi, J. Normand, 
 K. Raghavachari, A. P. Rendell, J. C. Burant, S. S. Iyengar, 
 J. Tomasi, M. Cossi, J. M. Millam, M. Klene, C. Adamo, R. Cammi, 
 J. W. Ochterski, R. L. Martin, K. Morokuma, O. Farkas, 
 J. B. Foresman, and D. J. Fox, Gaussian, Inc., Wallingford CT, 2019.
 
 ******************************************
 Gaussian 16:  ES64L-G16RevC.01  3-Jul-2019
                18-Dec-2023 
 ******************************************
 %chk=TS-898_opt_dft.chk
 %nprocshared=12
 Will use up to   12 processors via shared memory.
 %mem=48GB
 ----------------------------------------------------------------------
 # wb97xd def2svp scrf=(iefpcm,solvent=toluene) opt=(calcfc,ts,noeigen,
 maxcycles=50,maxstep=10)
 ----------------------------------------------------------------------
 1/5=1,6=50,8=10,10=4,11=1,18=20,26=3,38=1/1,3;
 2/9=110,12=2,17=6,18=5,40=1/2;
 3/5=43,7=101,11=2,25=1,30=1,70=2201,71=2,72=13,74=-58,140=1/1,2,3;
 4//1;
 5/5=2,38=5,53=13/2;
 8/6=4,10=90,11=11/1;
 11/6=1,8=1,9=11,15=111,16=1/1,2,10;
 10/6=1,13=1/2;
 6/7=2,8=2,9=2,10=2,28=1/1;
 7/10=1,25=1/1,2,3,16;
 1/5=1,6=50,8=10,10=4,11=1,18=20,26=3/3(2);
 2/9=110/2;
 99//99;
 2/9=110/2;
 3/5=43,7=101,11=2,25=1,30=1,70=2205,71=1,72=13,74=-58/1,2,3;
 4/5=5,16=3,69=1/1;
 5/5=2,38=5,53=13/2;
 7//1,2,3,16;
 1/5=1,6=50,8=10,11=1,18=20,26=3/3(-5);
 2/9=110/2;
 6/7=2,8=2,9=2,10=2,19=2,28=1/1;
 99/9=1/99;
 ----------
 TS-898.out
 ----------
 Symbolic Z-matrix:
 Charge =  0 Multiplicity = 1
 C                    -0.46944  -0.70158  -0.3157 
 C                    -1.80325  -0.37883   0.26459 
 O                    -2.1666   -0.88981   1.32245 
 C                     0.64063  -0.22369   0.32388 
 C                     0.48216   2.80238  -0.36191 
 H                     1.0592    3.479    -0.99873 
 H                    -0.56866   2.85168  -0.65767 
 H                     0.56954   3.13654   0.67555 
 N                     0.98232   1.42813  -0.49487 
 H                     0.9747    1.21586  -1.4994 
 H                     1.99051   1.47348  -0.28996 
 Cl                    2.20424  -1.06498  -0.03906 
 C                     0.5992    0.23794   1.78923 
 H                    -0.22197   0.93682   1.97915 
 H                     0.48467  -0.62723   2.45151 
 H                     1.52984   0.74582   2.06821 
 C                    -0.50617  -1.49801  -1.58355 
 H                     0.43652  -1.45603  -2.13643 
 H                    -0.72787  -2.54679  -1.36119 
 H                    -1.27943  -1.12504  -2.26314 
 C                    -2.69529   0.55705  -0.50643 
 H                    -3.55857   0.003    -0.88378 
 H                    -3.02491   1.36267   0.15514 
 H                    -2.16599   1.00486  -1.35156 
 
 Add virtual bond connecting atoms N9         and C4         Dist= 3.54D+00.

 GradGradGradGradGradGradGradGradGradGradGradGradGradGradGradGradGradGrad
 Berny optimization.
 Initialization pass.
                           ----------------------------
                           !    Initial Parameters    !
                           ! (Angstroms and Degrees)  !
 --------------------------                            --------------------------
 ! Name  Definition              Value          Derivative Info.                !
 --------------------------------------------------------------------------------
 ! R1    R(1,2)                  1.49           calculate D2E/DX2 analytically  !
 ! R2    R(1,4)                  1.3674         calculate D2E/DX2 analytically  !
 ! R3    R(1,17)                 1.4977         calculate D2E/DX2 analytically  !
 ! R4    R(2,3)                  1.2297         calculate D2E/DX2 analytically  !
 ! R5    R(2,21)                 1.5053         calculate D2E/DX2 analytically  !
 ! R6    R(4,9)                  1.875          calculate D2E/DX2 analytically  !
 ! R7    R(4,12)                 1.8123         calculate D2E/DX2 analytically  !
 ! R8    R(4,13)                 1.5369         calculate D2E/DX2 analytically  !
 ! R9    R(5,6)                  1.0938         calculate D2E/DX2 analytically  !
 ! R10   R(5,7)                  1.0928         calculate D2E/DX2 analytically  !
 ! R11   R(5,8)                  1.0934         calculate D2E/DX2 analytically  !
 ! R12   R(5,9)                  1.4685         calculate D2E/DX2 analytically  !
 ! R13   R(9,10)                 1.0267         calculate D2E/DX2 analytically  !
 ! R14   R(9,11)                 1.0298         calculate D2E/DX2 analytically  !
 ! R15   R(13,14)                1.0949         calculate D2E/DX2 analytically  !
 ! R16   R(13,15)                1.0956         calculate D2E/DX2 analytically  !
 ! R17   R(13,16)                1.0963         calculate D2E/DX2 analytically  !
 ! R18   R(17,18)                1.0937         calculate D2E/DX2 analytically  !
 ! R19   R(17,19)                1.0948         calculate D2E/DX2 analytically  !
 ! R20   R(17,20)                1.0949         calculate D2E/DX2 analytically  !
 ! R21   R(21,22)                1.093          calculate D2E/DX2 analytically  !
 ! R22   R(21,23)                1.0933         calculate D2E/DX2 analytically  !
 ! R23   R(21,24)                1.0931         calculate D2E/DX2 analytically  !
 ! A1    A(2,1,4)              117.9612         calculate D2E/DX2 analytically  !
 ! A2    A(2,1,17)             115.0201         calculate D2E/DX2 analytically  !
 ! A3    A(4,1,17)             126.9934         calculate D2E/DX2 analytically  !
 ! A4    A(1,2,3)              120.6333         calculate D2E/DX2 analytically  !
 ! A5    A(1,2,21)             117.7536         calculate D2E/DX2 analytically  !
 ! A6    A(3,2,21)             121.5909         calculate D2E/DX2 analytically  !
 ! A7    A(1,4,9)              104.5717         calculate D2E/DX2 analytically  !
 ! A8    A(1,4,12)             116.3925         calculate D2E/DX2 analytically  !
 ! A9    A(1,4,13)             121.942          calculate D2E/DX2 analytically  !
 ! A10   A(9,4,12)              99.4555         calculate D2E/DX2 analytically  !
 ! A11   A(9,4,13)              99.0118         calculate D2E/DX2 analytically  !
 ! A12   A(12,4,13)            110.7098         calculate D2E/DX2 analytically  !
 ! A13   A(6,5,7)              108.7737         calculate D2E/DX2 analytically  !
 ! A14   A(6,5,8)              108.7359         calculate D2E/DX2 analytically  !
 ! A15   A(6,5,9)              110.2743         calculate D2E/DX2 analytically  !
 ! A16   A(7,5,8)              108.6541         calculate D2E/DX2 analytically  !
 ! A17   A(7,5,9)              110.1965         calculate D2E/DX2 analytically  !
 ! A18   A(8,5,9)              110.1625         calculate D2E/DX2 analytically  !
 ! A19   A(4,9,5)              136.2896         calculate D2E/DX2 analytically  !
 ! A20   A(4,9,10)             104.1071         calculate D2E/DX2 analytically  !
 ! A21   A(4,9,11)              97.488          calculate D2E/DX2 analytically  !
 ! A22   A(5,9,10)             106.2324         calculate D2E/DX2 analytically  !
 ! A23   A(5,9,11)             105.9157         calculate D2E/DX2 analytically  !
 ! A24   A(10,9,11)            102.1836         calculate D2E/DX2 analytically  !
 ! A25   A(4,13,14)            112.1679         calculate D2E/DX2 analytically  !
 ! A26   A(4,13,15)            109.998          calculate D2E/DX2 analytically  !
 ! A27   A(4,13,16)            111.0323         calculate D2E/DX2 analytically  !
 ! A28   A(14,13,15)           108.7118         calculate D2E/DX2 analytically  !
 ! A29   A(14,13,16)           107.2666         calculate D2E/DX2 analytically  !
 ! A30   A(15,13,16)           107.5031         calculate D2E/DX2 analytically  !
 ! A31   A(1,17,18)            112.7305         calculate D2E/DX2 analytically  !
 ! A32   A(1,17,19)            110.0265         calculate D2E/DX2 analytically  !
 ! A33   A(1,17,20)            111.1983         calculate D2E/DX2 analytically  !
 ! A34   A(18,17,19)           108.3006         calculate D2E/DX2 analytically  !
 ! A35   A(18,17,20)           106.3728         calculate D2E/DX2 analytically  !
 ! A36   A(19,17,20)           108.0213         calculate D2E/DX2 analytically  !
 ! A37   A(2,21,22)            109.2519         calculate D2E/DX2 analytically  !
 ! A38   A(2,21,23)            109.0768         calculate D2E/DX2 analytically  !
 ! A39   A(2,21,24)            111.3301         calculate D2E/DX2 analytically  !
 ! A40   A(22,21,23)           110.1396         calculate D2E/DX2 analytically  !
 ! A41   A(22,21,24)           108.8556         calculate D2E/DX2 analytically  !
 ! A42   A(23,21,24)           108.1763         calculate D2E/DX2 analytically  !
 ! D1    D(4,1,2,3)            -70.3005         calculate D2E/DX2 analytically  !
 ! D2    D(4,1,2,21)           111.3855         calculate D2E/DX2 analytically  !
 ! D3    D(17,1,2,3)           111.4016         calculate D2E/DX2 analytically  !
 ! D4    D(17,1,2,21)          -66.9123         calculate D2E/DX2 analytically  !
 ! D5    D(2,1,4,9)            -91.6361         calculate D2E/DX2 analytically  !
 ! D6    D(2,1,4,12)           159.7922         calculate D2E/DX2 analytically  !
 ! D7    D(2,1,4,13)            19.0221         calculate D2E/DX2 analytically  !
 ! D8    D(17,1,4,9)            86.4327         calculate D2E/DX2 analytically  !
 ! D9    D(17,1,4,12)          -22.1391         calculate D2E/DX2 analytically  !
 ! D10   D(17,1,4,13)         -162.9091         calculate D2E/DX2 analytically  !
 ! D11   D(2,1,17,18)          162.4272         calculate D2E/DX2 analytically  !
 ! D12   D(2,1,17,19)          -76.5718         calculate D2E/DX2 analytically  !
 ! D13   D(2,1,17,20)           43.0679         calculate D2E/DX2 analytically  !
 ! D14   D(4,1,17,18)          -15.6904         calculate D2E/DX2 analytically  !
 ! D15   D(4,1,17,19)          105.3106         calculate D2E/DX2 analytically  !
 ! D16   D(4,1,17,20)         -135.0496         calculate D2E/DX2 analytically  !
 ! D17   D(1,2,21,22)          111.7252         calculate D2E/DX2 analytically  !
 ! D18   D(1,2,21,23)         -127.832          calculate D2E/DX2 analytically  !
 ! D19   D(1,2,21,24)           -8.532          calculate D2E/DX2 analytically  !
 ! D20   D(3,2,21,22)          -66.5717         calculate D2E/DX2 analytically  !
 ! D21   D(3,2,21,23)           53.8711         calculate D2E/DX2 analytically  !
 ! D22   D(3,2,21,24)          173.1712         calculate D2E/DX2 analytically  !
 ! D23   D(1,4,9,5)             82.3572         calculate D2E/DX2 analytically  !
 ! D24   D(1,4,9,10)           -50.486          calculate D2E/DX2 analytically  !
 ! D25   D(1,4,9,11)          -155.1123         calculate D2E/DX2 analytically  !
 ! D26   D(12,4,9,5)          -157.0514         calculate D2E/DX2 analytically  !
 ! D27   D(12,4,9,10)           70.1054         calculate D2E/DX2 analytically  !
 ! D28   D(12,4,9,11)          -34.5209         calculate D2E/DX2 analytically  !
 ! D29   D(13,4,9,5)           -44.1342         calculate D2E/DX2 analytically  !
 ! D30   D(13,4,9,10)         -176.9775         calculate D2E/DX2 analytically  !
 ! D31   D(13,4,9,11)           78.3962         calculate D2E/DX2 analytically  !
 ! D32   D(1,4,13,14)          -50.0825         calculate D2E/DX2 analytically  !
 ! D33   D(1,4,13,15)           71.0434         calculate D2E/DX2 analytically  !
 ! D34   D(1,4,13,16)         -170.0859         calculate D2E/DX2 analytically  !
 ! D35   D(9,4,13,14)           63.4373         calculate D2E/DX2 analytically  !
 ! D36   D(9,4,13,15)         -175.4367         calculate D2E/DX2 analytically  !
 ! D37   D(9,4,13,16)          -56.566          calculate D2E/DX2 analytically  !
 ! D38   D(12,4,13,14)         167.1932         calculate D2E/DX2 analytically  !
 ! D39   D(12,4,13,15)         -71.6809         calculate D2E/DX2 analytically  !
 ! D40   D(12,4,13,16)          47.1898         calculate D2E/DX2 analytically  !
 ! D41   D(6,5,9,4)            174.2025         calculate D2E/DX2 analytically  !
 ! D42   D(6,5,9,10)           -53.5824         calculate D2E/DX2 analytically  !
 ! D43   D(6,5,9,11)            54.5726         calculate D2E/DX2 analytically  !
 ! D44   D(7,5,9,4)            -65.7013         calculate D2E/DX2 analytically  !
 ! D45   D(7,5,9,10)            66.5137         calculate D2E/DX2 analytically  !
 ! D46   D(7,5,9,11)           174.6688         calculate D2E/DX2 analytically  !
 ! D47   D(8,5,9,4)             54.1752         calculate D2E/DX2 analytically  !
 ! D48   D(8,5,9,10)          -173.6098         calculate D2E/DX2 analytically  !
 ! D49   D(8,5,9,11)           -65.4548         calculate D2E/DX2 analytically  !
 --------------------------------------------------------------------------------
 Trust Radius=1.00D-01 FncErr=1.00D-07 GrdErr=1.00D-06 EigMax=2.50D+02 EigMin=1.00D-04
 Number of steps in this run=     50 maximum allowed number of steps=    144.
 Search for a saddle point of order  1.
 GradGradGradGradGradGradGradGradGradGradGradGradGradGradGradGradGradGrad

                          Input orientation:                          
 ---------------------------------------------------------------------
 Center     Atomic      Atomic             Coordinates (Angstroms)
 Number     Number       Type             X           Y           Z
 ---------------------------------------------------------------------
      1          6           0       -0.469440   -0.701580   -0.315700
      2          6           0       -1.803250   -0.378830    0.264590
      3          8           0       -2.166600   -0.889810    1.322450
      4          6           0        0.640630   -0.223690    0.323880
      5          6           0        0.482160    2.802380   -0.361910
      6          1           0        1.059200    3.479000   -0.998730
      7          1           0       -0.568660    2.851680   -0.657670
      8          1           0        0.569540    3.136540    0.675550
      9          7           0        0.982320    1.428130   -0.494870
     10          1           0        0.974700    1.215860   -1.499400
     11          1           0        1.990510    1.473480   -0.289960
     12         17           0        2.204240   -1.064980   -0.039060
     13          6           0        0.599200    0.237940    1.789230
     14          1           0       -0.221970    0.936820    1.979150
     15          1           0        0.484670   -0.627230    2.451510
     16          1           0        1.529840    0.745820    2.068210
     17          6           0       -0.506170   -1.498010   -1.583550
     18          1           0        0.436520   -1.456030   -2.136430
     19          1           0       -0.727870   -2.546790   -1.361190
     20          1           0       -1.279430   -1.125040   -2.263140
     21          6           0       -2.695290    0.557050   -0.506430
     22          1           0       -3.558570    0.003000   -0.883780
     23          1           0       -3.024910    1.362670    0.155140
     24          1           0       -2.165990    1.004860   -1.351560
 ---------------------------------------------------------------------
                    Distance matrix (angstroms):
                    1          2          3          4          5
     1  C    0.000000
     2  C    1.489951   0.000000
     3  O    2.366288   1.229712   0.000000
     4  C    1.367369   2.449517   3.053096   0.000000
     5  C    3.631172   3.966825   4.846160   3.106851   0.000000
     6  H    4.503390   4.967137   5.905943   3.954037   1.093768
     7  H    3.571057   3.579242   4.524714   3.447278   1.092761
     8  H    4.097953   4.261085   4.910849   3.379330   1.093445
     9  N    2.583674   3.406066   4.311751   1.874997   1.468469
    10  H    2.676427   3.656734   4.718522   2.346968   2.013337
    11  H    3.283733   4.258074   5.046441   2.253744   2.011535
    12  Cl   2.712407   4.077129   4.581336   1.812283   4.245735
    13  C    2.540752   2.911477   3.023136   1.536903   3.349247
    14  H    2.830536   2.677890   2.747620   2.197904   3.075171
    15  H    2.928021   3.174728   2.893606   2.171170   4.435940
    16  H    3.431489   3.953147   4.110366   2.184795   3.351501
    17  C    1.497696   2.520040   3.401731   2.564631   4.578488
    18  H    2.169105   3.455695   4.365855   2.759248   4.613573
    19  H    2.136501   2.915416   3.466619   3.179473   5.574617
    20  H    2.151261   2.687124   3.701197   3.345405   4.705582
    21  C    2.564164   1.505350   2.391175   3.525242   3.893402
    22  H    3.218986   2.132064   2.757198   4.375284   4.943316
    23  H    3.318621   2.130083   2.678241   3.997649   3.826179
    24  H    2.619776   2.158268   3.277210   3.491926   3.350102
                    6          7          8          9         10
     6  H    0.000000
     7  H    1.777577   0.000000
     8  H    1.777712   1.775984   0.000000
     9  N    2.113257   2.111525   2.111619   0.000000
    10  H    2.319399   2.401328   2.929774   1.026741   0.000000
    11  H    2.322026   2.929846   2.391053   1.029802   1.600307
    12  Cl   4.783287   4.838582   4.564612   2.813618   2.974322
    13  C    4.299859   3.766013   3.105325   2.603929   3.451437
    14  H    4.119690   3.277149   2.676682   2.795080   3.689199
    15  H    5.394012   4.783233   4.162596   3.626750   4.387118
    16  H    4.134960   4.033456   2.928689   2.708266   3.641011
    17  C    5.250050   4.447579   5.266853   3.458775   3.092757
    18  H    5.102608   4.664063   5.386708   3.363182   2.799007
    19  H    6.295645   5.446445   6.175097   4.413077   4.132237
    20  H    5.316494   4.347071   5.496877   3.842001   3.338295
    21  C    4.782922   3.132213   4.325501   3.779382   3.858607
    22  H    5.780968   4.135900   5.412197   4.775136   4.732922
    23  H    4.742386   2.985126   4.041969   4.060134   4.330812
    24  H    4.080160   2.538443   4.017009   3.290126   3.151240
                   11         12         13         14         15
    11  H    0.000000
    12  Cl   2.559768   0.000000
    13  C    2.790221   2.759782   0.000000
    14  H    3.214332   3.737228   1.094908   0.000000
    15  H    3.767784   3.058020   1.095560   1.780089   0.000000
    16  H    2.510512   2.859091   1.096295   1.764441   1.767644
    17  C    4.091032   3.149490   3.951077   4.324581   4.245201
    18  H    3.795572   2.770689   4.278645   4.805969   4.662448
    19  H    4.969879   3.541336   4.409193   4.852767   4.437527
    20  H    4.619335   4.133533   4.669975   4.833892   5.058437
    21  C    4.779480   5.182163   4.028095   3.526988   4.501563
    22  H    5.771241   5.921496   4.948457   4.494584   5.279123
    23  H    5.036351   5.768467   4.131518   3.371177   4.642216
    24  H    4.315448   5.010569   4.254292   3.857133   4.914576
                   16         17         18         19         20
    16  H    0.000000
    17  C    4.745046   0.000000
    18  H    4.870574   1.093665   0.000000
    19  H    5.263014   1.094776   1.773854   0.000000
    20  H    5.491148   1.094934   1.752168   1.771752   0.000000
    21  C    4.951376   3.189938   4.064188   3.772954   2.814270
    22  H    5.929413   3.472730   4.433807   3.839559   2.893024
    23  H    4.978563   4.189342   5.017755   4.781164   3.883746
    24  H    5.041933   3.012172   3.666750   3.831775   2.480613
                   21         22         23         24
    21  C    0.000000
    22  H    1.092985   0.000000
    23  H    1.093320   1.792443   0.000000
    24  H    1.093132   1.778151   1.770852   0.000000
 Stoichiometry    C7H14ClNO
 Framework group  C1[X(C7H14ClNO)]
 Deg. of freedom    66
 Full point group                 C1      NOp   1
 Largest Abelian subgroup         C1      NOp   1
 Largest concise Abelian subgroup C1      NOp   1
                         Standard orientation:                         
 ---------------------------------------------------------------------
 Center     Atomic      Atomic             Coordinates (Angstroms)
 Number     Number       Type             X           Y           Z
 ---------------------------------------------------------------------
      1          6           0       -0.469441   -0.701580   -0.315698
      2          6           0       -1.803251   -0.378831    0.264592
      3          8           0       -2.166601   -0.889811    1.322452
      4          6           0        0.640629   -0.223689    0.323882
      5          6           0        0.482157    2.802381   -0.361908
      6          1           0        1.059196    3.479001   -0.998728
      7          1           0       -0.568663    2.851680   -0.657668
      8          1           0        0.569536    3.136541    0.675552
      9          7           0        0.982317    1.428131   -0.494868
     10          1           0        0.974698    1.215861   -1.499398
     11          1           0        1.990507    1.473482   -0.289958
     12         17           0        2.204239   -1.064978   -0.039058
     13          6           0        0.599198    0.237941    1.789232
     14          1           0       -0.221972    0.936820    1.979152
     15          1           0        0.484669   -0.627229    2.451512
     16          1           0        1.529838    0.745821    2.068212
     17          6           0       -0.506171   -1.498010   -1.583548
     18          1           0        0.436519   -1.456029   -2.136428
     19          1           0       -0.727870   -2.546790   -1.361188
     20          1           0       -1.279431   -1.125041   -2.263138
     21          6           0       -2.695292    0.557049   -0.506428
     22          1           0       -3.558572    0.002998   -0.883778
     23          1           0       -3.024912    1.362668    0.155142
     24          1           0       -2.165992    1.004859   -1.351558
 ---------------------------------------------------------------------
 Rotational constants (GHZ):           1.2552322           0.8692634           0.7181864
 Standard basis: def2SVP (5D, 7F)
 There are   224 symmetry adapted cartesian basis functions of A   symmetry.
 There are   214 symmetry adapted basis functions of A   symmetry.
   214 basis functions,   360 primitive gaussians,   224 cartesian basis functions
    44 alpha electrons       44 beta electrons
       nuclear repulsion energy       665.0561892251 Hartrees.
 NAtoms=   24 NActive=   24 NUniq=   24 SFac= 1.00D+00 NAtFMM=   60 NAOKFM=F Big=F
 Integral buffers will be    131072 words long.
 Raffenetti 2 integral format.
 Two-electron integral symmetry is turned on.
 Nuclear repulsion after empirical dispersion term =      665.0385212876 Hartrees.
 Force inversion solution in PCM.
 ------------------------------------------------------------------------------
 Polarizable Continuum Model (PCM)
 =================================
 Model                : PCM.
 Atomic radii         : UFF (Universal Force Field).
 Polarization charges : Total charges.
 Charge compensation  : None.
 Solution method      : Matrix inversion.
 Cavity type          : Scaled VdW (van der Waals Surface) (Alpha=1.100).
 Cavity algorithm     : GePol (No added spheres)
                        Default sphere list used, NSphG=   24.
                        Lebedev-Laikov grids with approx.  5.0 points / Ang**2.
                        Smoothing algorithm: York/Karplus (Gamma=1.0000).
                        Polarization charges: spherical gaussians, with
                                              point-specific exponents (IZeta= 3).
                        Self-potential: point-specific (ISelfS= 7).
                        Self-field    : sphere-specific E.n sum rule (ISelfD= 2).
 1st derivatives      : Analytical E(r).r(x)/FMM algorithm (CHGder, D1EAlg=3).
                        Cavity 1st derivative terms included.
 2nd derivatives      : Analytical E(r).r(xy)/FMM algorithm (CHGder, D2EAlg=3).
                        Cavity 2nd derivative terms included.
 Solvent              : Toluene, Eps=   2.374100 Eps(inf)=   2.238315
 ------------------------------------------------------------------------------
 One-electron integrals computed using PRISM.
   1 Symmetry operations used in ECPInt.
 ECPInt:  NShTT=    5460 NPrTT=   19488 LenC2=    5399 LenP2D=   15048.
 LDataN:  DoStor=T MaxTD1= 4 Len=   56
 NBasis=   214 RedAO= T EigKep=  1.01D-03  NBF=   214
 NBsUse=   214 1.00D-06 EigRej= -1.00D+00 NBFU=   214
 ExpMin= 1.22D-01 ExpMax= 1.04D+04 ExpMxC= 1.57D+03 IAcc=3 IRadAn=         5 AccDes= 0.00D+00
 Harris functional with IExCor= 4639 and IRadAn=       5 diagonalized for initial guess.
 HarFok:  IExCor= 4639 AccDes= 0.00D+00 IRadAn=         5 IDoV= 1 UseB2=F ITyADJ=14
 ICtDFT=  3500011 ScaDFX=  1.000000  1.000000  1.000000  1.000000
 FoFCou: FMM=F IPFlag=           0 FMFlag=      100000 FMFlg1=           0
         NFxFlg=           0 DoJE=T BraDBF=F KetDBF=T FulRan=T
         wScrn=  0.000000 ICntrl=       500 IOpCl=  0 I1Cent=   200000004 NGrid=           0
         NMat0=    1 NMatS0=      1 NMatT0=    0 NMatD0=    1 NMtDS0=    0 NMtDT0=    0
 Petite list used in FoFCou.
 Requested convergence on RMS density matrix=1.00D-08 within 128 cycles.
 Requested convergence on MAX density matrix=1.00D-06.
 Requested convergence on             energy=1.00D-06.
 No special actions if energy rises.
 Inv3:  Mode=1 IEnd=     9145548.
 Iteration    1 A*A^-1 deviation from unit magnitude is 2.89D-15 for     79.
 Iteration    1 A*A^-1 deviation from orthogonality  is 1.42D-15 for   1259    592.
 Iteration    1 A^-1*A deviation from unit magnitude is 2.89D-15 for   1488.
 Iteration    1 A^-1*A deviation from orthogonality  is 2.44D-15 for   1454    306.
 Error on total polarization charges =  0.00611
 SCF Done:  E(RwB97XD) =  -864.693392011     A.U. after   16 cycles
            NFock= 16  Conv=0.35D-08     -V/T= 2.0060
 DoSCS=F DFT=T ScalE2(SS,OS)=  1.000000  1.000000
 Range of M.O.s used for correlation:     1   214
 NBasis=   214 NAE=    44 NBE=    44 NFC=     0 NFV=     0
 NROrb=    214 NOA=    44 NOB=    44 NVA=   170 NVB=   170
   1 Symmetry operations used in ECPInt.
 ECPInt:  NShTT=    5460 NPrTT=   19488 LenC2=    5399 LenP2D=   15048.
 LDataN:  DoStor=T MaxTD1= 5 Len=  102
 Symmetrizing basis deriv contribution to polar:
 IMax=3 JMax=2 DiffMx= 0.00D+00
 G2DrvN: will do    25 centers at a time, making    1 passes.
 Calling FoFCou, ICntrl=  3107 FMM=F I1Cent=   0 AccDes= 0.00D+00.
 NEqPCM:  Using equilibrium solvation (IEInf=0, Eps=   2.3741, EpsInf=   2.2383)
 G2PCM: DoFxE=T DoFxN=T DoGrad=T DoDP/DQ/DG/TGxP=FFFF NFrqRd=   0 IEInf=0 SqF1=F DoCFld=F IF1Alg=4.
 End of G2Drv F.D. properties file   721 does not exist.
 End of G2Drv F.D. properties file   722 does not exist.
 End of G2Drv F.D. properties file   788 does not exist.
          IDoAtm=111111111111111111111111
 NEqPCM:  Using equilibrium solvation (IEInf=0, Eps=   2.3741, EpsInf=   2.2383)
          Differentiating once with respect to nuclear coordinates.
 Keep R1 ints in memory in canonical form, NReq=546878436.
          There are    75 degrees of freedom in the 1st order CPHF.  IDoFFX=6 NUNeed=     0.
     69 vectors produced by pass  0 Test12= 9.97D-15 1.33D-09 XBig12= 9.18D-02 1.11D-01.
 AX will form    69 AO Fock derivatives at one time.
     69 vectors produced by pass  1 Test12= 9.97D-15 1.33D-09 XBig12= 1.11D-02 2.42D-02.
     69 vectors produced by pass  2 Test12= 9.97D-15 1.33D-09 XBig12= 2.35D-04 3.36D-03.
     69 vectors produced by pass  3 Test12= 9.97D-15 1.33D-09 XBig12= 2.88D-06 2.50D-04.
     69 vectors produced by pass  4 Test12= 9.97D-15 1.33D-09 XBig12= 2.17D-08 2.05D-05.
     69 vectors produced by pass  5 Test12= 9.97D-15 1.33D-09 XBig12= 1.31D-10 1.37D-06.
     56 vectors produced by pass  6 Test12= 9.97D-15 1.33D-09 XBig12= 6.71D-13 8.34D-08.
     10 vectors produced by pass  7 Test12= 9.97D-15 1.33D-09 XBig12= 2.90D-15 4.57D-09.
 InvSVY:  IOpt=1 It=  1 EMax= 2.22D-16
 Solved reduced A of dimension   480 with    75 vectors.
 End of Minotr F.D. properties file   721 does not exist.
 End of Minotr F.D. properties file   722 does not exist.
 End of Minotr F.D. properties file   788 does not exist.

 **********************************************************************

            Population analysis using the SCF Density.

 **********************************************************************

 Orbital symmetries:
       Occupied  (A) (A) (A) (A) (A) (A) (A) (A) (A) (A) (A) (A)
                 (A) (A) (A) (A) (A) (A) (A) (A) (A) (A) (A) (A)
                 (A) (A) (A) (A) (A) (A) (A) (A) (A) (A) (A) (A)
                 (A) (A) (A) (A) (A) (A) (A) (A)
       Virtual   (A) (A) (A) (A) (A) (A) (A) (A) (A) (A) (A) (A)
                 (A) (A) (A) (A) (A) (A) (A) (A) (A) (A) (A) (A)
                 (A) (A) (A) (A) (A) (A) (A) (A) (A) (A) (A) (A)
                 (A) (A) (A) (A) (A) (A) (A) (A) (A) (A) (A) (A)
                 (A) (A) (A) (A) (A) (A) (A) (A) (A) (A) (A) (A)
                 (A) (A) (A) (A) (A) (A) (A) (A) (A) (A) (A) (A)
                 (A) (A) (A) (A) (A) (A) (A) (A) (A) (A) (A) (A)
                 (A) (A) (A) (A) (A) (A) (A) (A) (A) (A) (A) (A)
                 (A) (A) (A) (A) (A) (A) (A) (A) (A) (A) (A) (A)
                 (A) (A) (A) (A) (A) (A) (A) (A) (A) (A) (A) (A)
                 (A) (A) (A) (A) (A) (A) (A) (A) (A) (A) (A) (A)
                 (A) (A) (A) (A) (A) (A) (A) (A) (A) (A) (A) (A)
                 (A) (A) (A) (A) (A) (A) (A) (A) (A) (A) (A) (A)
                 (A) (A) (A) (A) (A) (A) (A) (A) (A) (A) (A) (A)
                 (A) (A)
 The electronic state is 1-A.
 Alpha  occ. eigenvalues -- -101.66665 -19.21865 -14.48242 -10.38088 -10.36397
 Alpha  occ. eigenvalues --  -10.34346 -10.29735 -10.28917 -10.28157 -10.24180
 Alpha  occ. eigenvalues --   -9.57411  -7.32757  -7.31859  -7.31817  -1.09889
 Alpha  occ. eigenvalues --   -1.03172  -0.95164  -0.86444  -0.82615  -0.80702
 Alpha  occ. eigenvalues --   -0.78481  -0.73232  -0.65843  -0.62323  -0.57631
 Alpha  occ. eigenvalues --   -0.57251  -0.55060  -0.54559  -0.53317  -0.50946
 Alpha  occ. eigenvalues --   -0.50655  -0.49176  -0.48375  -0.47899  -0.46988
 Alpha  occ. eigenvalues --   -0.46165  -0.44287  -0.43719  -0.43077  -0.41308
 Alpha  occ. eigenvalues --   -0.38734  -0.38043  -0.30900  -0.23040
 Alpha virt. eigenvalues --    0.05796   0.10006   0.12002   0.13465   0.15258
 Alpha virt. eigenvalues --    0.15724   0.17703   0.19084   0.19300   0.20523
 Alpha virt. eigenvalues --    0.22076   0.22578   0.23052   0.23800   0.24308
 Alpha virt. eigenvalues --    0.24699   0.26593   0.27611   0.28446   0.31624
 Alpha virt. eigenvalues --    0.33822   0.40286   0.42137   0.44353   0.46258
 Alpha virt. eigenvalues --    0.48524   0.50281   0.51646   0.52596   0.54487
 Alpha virt. eigenvalues --    0.56901   0.58073   0.61579   0.61986   0.63740
 Alpha virt. eigenvalues --    0.64614   0.65990   0.67450   0.69170   0.69760
 Alpha virt. eigenvalues --    0.70961   0.72080   0.72634   0.74216   0.74292
 Alpha virt. eigenvalues --    0.75058   0.75338   0.76123   0.76709   0.77148
 Alpha virt. eigenvalues --    0.78415   0.78496   0.78944   0.79399   0.79911
 Alpha virt. eigenvalues --    0.80489   0.81360   0.82484   0.83038   0.84870
 Alpha virt. eigenvalues --    0.85117   0.86684   0.88376   0.89952   0.92017
 Alpha virt. eigenvalues --    0.93346   0.94013   0.96653   0.99753   1.01308
 Alpha virt. eigenvalues --    1.03176   1.04731   1.07589   1.12509   1.15105
 Alpha virt. eigenvalues --    1.16670   1.19080   1.21489   1.23756   1.27691
 Alpha virt. eigenvalues --    1.31047   1.35185   1.37940   1.39241   1.42190
 Alpha virt. eigenvalues --    1.46924   1.48389   1.50274   1.51835   1.56015
 Alpha virt. eigenvalues --    1.59530   1.61054   1.61638   1.64057   1.64868
 Alpha virt. eigenvalues --    1.66401   1.67648   1.69589   1.71400   1.77287
 Alpha virt. eigenvalues --    1.79753   1.80553   1.83483   1.84858   1.84984
 Alpha virt. eigenvalues --    1.85897   1.86262   1.87740   1.88883   1.90014
 Alpha virt. eigenvalues --    1.90925   1.92936   1.94341   1.95541   1.95951
 Alpha virt. eigenvalues --    1.96305   2.00507   2.03720   2.05274   2.06482
 Alpha virt. eigenvalues --    2.10379   2.11558   2.13802   2.14947   2.18064
 Alpha virt. eigenvalues --    2.19138   2.20655   2.22199   2.26451   2.28034
 Alpha virt. eigenvalues --    2.32593   2.35910   2.37830   2.41328   2.42329
 Alpha virt. eigenvalues --    2.45885   2.49562   2.50627   2.52044   2.53414
 Alpha virt. eigenvalues --    2.59501   2.60205   2.64859   2.67045   2.69989
 Alpha virt. eigenvalues --    2.73434   2.75649   2.78212   2.78668   2.81332
 Alpha virt. eigenvalues --    2.81770   2.83250   2.86841   2.89230   2.91927
 Alpha virt. eigenvalues --    2.99497   3.00789   3.02597   3.04362   3.05092
 Alpha virt. eigenvalues --    3.05576   3.05720   3.08761   3.12862   3.15976
 Alpha virt. eigenvalues --    3.27800   3.28888   3.48550   3.53260   3.72447
          Condensed to atoms (all electrons):
               1          2          3          4          5          6
     1  C    5.475563   0.344790  -0.077922   0.545776   0.007011  -0.001028
     2  C    0.344790   4.706736   0.654843  -0.022800   0.001236  -0.000061
     3  O   -0.077922   0.654843   7.804455  -0.028557  -0.000008  -0.000000
     4  C    0.545776  -0.022800  -0.028557   5.235221   0.005466   0.000743
     5  C    0.007011   0.001236  -0.000008   0.005466   4.498045   0.405508
     6  H   -0.001028  -0.000061  -0.000000   0.000743   0.405508   0.620294
     7  H    0.003834   0.001009   0.000000   0.000716   0.403640  -0.025886
     8  H    0.000032  -0.000234  -0.000006  -0.003683   0.403463  -0.022553
     9  N   -0.152383  -0.010565  -0.000035  -0.067467   0.304668  -0.013345
    10  H   -0.001270  -0.000757   0.000010   0.003594  -0.023392  -0.009427
    11  H    0.006702   0.000126  -0.000000  -0.003495  -0.019989  -0.011442
    12  Cl  -0.090572   0.002016  -0.000030   0.267196   0.000993  -0.000089
    13  C   -0.070705   0.005972   0.008838   0.379031   0.000471  -0.000229
    14  H   -0.022855   0.010885  -0.000958   0.013981   0.000896   0.000108
    15  H   -0.006569   0.000111   0.004576  -0.011733   0.000026   0.000011
    16  H    0.012291   0.000228   0.000425  -0.033831  -0.002414   0.000079
    17  C    0.409086  -0.045780   0.000216  -0.041257  -0.000025  -0.000010
    18  H   -0.017435   0.006046  -0.000176  -0.019019  -0.000131   0.000024
    19  H   -0.038328   0.004617   0.002446  -0.006418   0.000023  -0.000002
    20  H   -0.027947  -0.011155  -0.000504   0.007735  -0.000119   0.000019
    21  C   -0.141383   0.364641  -0.080179  -0.015296  -0.001761   0.000067
    22  H    0.006666  -0.001841   0.001654   0.000198   0.000071  -0.000004
    23  H    0.006637  -0.004149   0.001448   0.000895  -0.000186   0.000014
    24  H    0.005455  -0.015127   0.003909   0.000140  -0.000520   0.000032
               7          8          9         10         11         12
     1  C    0.003834   0.000032  -0.152383  -0.001270   0.006702  -0.090572
     2  C    0.001009  -0.000234  -0.010565  -0.000757   0.000126   0.002016
     3  O    0.000000  -0.000006  -0.000035   0.000010  -0.000000  -0.000030
     4  C    0.000716  -0.003683  -0.067467   0.003594  -0.003495   0.267196
     5  C    0.403640   0.403463   0.304668  -0.023392  -0.019989   0.000993
     6  H   -0.025886  -0.022553  -0.013345  -0.009427  -0.011442  -0.000089
     7  H    0.602883  -0.017816  -0.032726  -0.005385   0.008239  -0.000037
     8  H   -0.017816   0.592987  -0.024418   0.007560  -0.005234   0.000045
     9  N   -0.032726  -0.024418   6.627177   0.326660   0.308948  -0.054757
    10  H   -0.005385   0.007560   0.326660   0.557069  -0.011009   0.004785
    11  H    0.008239  -0.005234   0.308948  -0.011009   0.567993   0.015107
    12  Cl  -0.000037   0.000045  -0.054757   0.004785   0.015107  17.028516
    13  C   -0.000348   0.004925  -0.044196   0.004184  -0.002263  -0.054806
    14  H   -0.000372   0.001541  -0.000166   0.000013  -0.000459   0.003774
    15  H   -0.000007  -0.000230   0.004007  -0.000227  -0.000338   0.001394
    16  H   -0.000087   0.000681   0.006826  -0.000309   0.001999   0.000935
    17  C    0.000068  -0.000002  -0.000335   0.001890   0.000121  -0.004053
    18  H   -0.000062  -0.000001   0.002475   0.001003  -0.000345   0.013102
    19  H    0.000016   0.000000  -0.000699   0.000108   0.000023   0.002829
    20  H   -0.000137   0.000000   0.001822  -0.000628  -0.000058   0.000119
    21  C    0.001072   0.000093   0.003658   0.000070  -0.000033  -0.000192
    22  H    0.000030  -0.000001  -0.000120   0.000014   0.000002   0.000005
    23  H    0.000778   0.000018   0.000027  -0.000001  -0.000006   0.000005
    24  H    0.002962  -0.000053   0.000880   0.000062  -0.000027  -0.000009
              13         14         15         16         17         18
     1  C   -0.070705  -0.022855  -0.006569   0.012291   0.409086  -0.017435
     2  C    0.005972   0.010885   0.000111   0.000228  -0.045780   0.006046
     3  O    0.008838  -0.000958   0.004576   0.000425   0.000216  -0.000176
     4  C    0.379031   0.013981  -0.011733  -0.033831  -0.041257  -0.019019
     5  C    0.000471   0.000896   0.000026  -0.002414  -0.000025  -0.000131
     6  H   -0.000229   0.000108   0.000011   0.000079  -0.000010   0.000024
     7  H   -0.000348  -0.000372  -0.000007  -0.000087   0.000068  -0.000062
     8  H    0.004925   0.001541  -0.000230   0.000681  -0.000002  -0.000001
     9  N   -0.044196  -0.000166   0.004007   0.006826  -0.000335   0.002475
    10  H    0.004184   0.000013  -0.000227  -0.000309   0.001890   0.001003
    11  H   -0.002263  -0.000459  -0.000338   0.001999   0.000121  -0.000345
    12  Cl  -0.054806   0.003774   0.001394   0.000935  -0.004053   0.013102
    13  C    4.522742   0.368554   0.394705   0.377328   0.005843   0.000246
    14  H    0.368554   0.613163  -0.013074  -0.023104  -0.000136  -0.000035
    15  H    0.394705  -0.013074   0.577112  -0.018798  -0.000022  -0.000022
    16  H    0.377328  -0.023104  -0.018798   0.656806  -0.000268   0.000018
    17  C    0.005843  -0.000136  -0.000022  -0.000268   4.459794   0.386421
    18  H    0.000246  -0.000035  -0.000022   0.000018   0.386421   0.662354
    19  H    0.000104  -0.000030   0.000055  -0.000025   0.398322  -0.028929
    20  H   -0.000259   0.000006  -0.000001   0.000019   0.377025  -0.017890
    21  C    0.003913  -0.001560   0.000471   0.000108  -0.000214  -0.000100
    22  H   -0.000035   0.000009  -0.000005  -0.000002   0.000144  -0.000023
    23  H   -0.000510   0.000364  -0.000021  -0.000018   0.000325   0.000006
    24  H   -0.000130   0.000102  -0.000040  -0.000013  -0.003482  -0.000008
              19         20         21         22         23         24
     1  C   -0.038328  -0.027947  -0.141383   0.006666   0.006637   0.005455
     2  C    0.004617  -0.011155   0.364641  -0.001841  -0.004149  -0.015127
     3  O    0.002446  -0.000504  -0.080179   0.001654   0.001448   0.003909
     4  C   -0.006418   0.007735  -0.015296   0.000198   0.000895   0.000140
     5  C    0.000023  -0.000119  -0.001761   0.000071  -0.000186  -0.000520
     6  H   -0.000002   0.000019   0.000067  -0.000004   0.000014   0.000032
     7  H    0.000016  -0.000137   0.001072   0.000030   0.000778   0.002962
     8  H    0.000000   0.000000   0.000093  -0.000001   0.000018  -0.000053
     9  N   -0.000699   0.001822   0.003658  -0.000120   0.000027   0.000880
    10  H    0.000108  -0.000628   0.000070   0.000014  -0.000001   0.000062
    11  H    0.000023  -0.000058  -0.000033   0.000002  -0.000006  -0.000027
    12  Cl   0.002829   0.000119  -0.000192   0.000005   0.000005  -0.000009
    13  C    0.000104  -0.000259   0.003913  -0.000035  -0.000510  -0.000130
    14  H   -0.000030   0.000006  -0.001560   0.000009   0.000364   0.000102
    15  H    0.000055  -0.000001   0.000471  -0.000005  -0.000021  -0.000040
    16  H   -0.000025   0.000019   0.000108  -0.000002  -0.000018  -0.000013
    17  C    0.398322   0.377025  -0.000214   0.000144   0.000325  -0.003482
    18  H   -0.028929  -0.017890  -0.000100  -0.000023   0.000006  -0.000008
    19  H    0.657071  -0.031344  -0.001213   0.000433  -0.000056  -0.000056
    20  H   -0.031344   0.681538   0.010206  -0.002281   0.000095   0.002296
    21  C   -0.001213   0.010206   4.766609   0.364527   0.373176   0.364428
    22  H    0.000433  -0.002281   0.364527   0.584895  -0.004334  -0.017676
    23  H   -0.000056   0.000095   0.373176  -0.004334   0.587436  -0.021573
    24  H   -0.000056   0.002296   0.364428  -0.017676  -0.021573   0.647168
 Mulliken charges:
               1
     1  C   -0.175445
     2  C    0.009212
     3  O   -0.294445
     4  C   -0.207138
     5  C    0.017027
     6  H    0.057177
     7  H    0.057619
     8  H    0.062882
     9  N   -0.185935
    10  H    0.145386
    11  H    0.145439
    12  Cl  -0.136276
    13  C    0.096624
    14  H    0.049351
    15  H    0.068620
    16  H    0.021125
    17  C    0.056329
    18  H    0.012479
    19  H    0.041053
    20  H    0.011441
    21  C   -0.011108
    22  H    0.067677
    23  H    0.059628
    24  H    0.031279
 Sum of Mulliken charges =  -0.00000
 Mulliken charges with hydrogens summed into heavy atoms:
               1
     1  C   -0.175445
     2  C    0.009212
     3  O   -0.294445
     4  C   -0.207138
     5  C    0.194704
     9  N    0.104889
    12  Cl  -0.136276
    13  C    0.235719
    17  C    0.121303
    21  C    0.147477
 APT charges:
               1
     1  C   -0.151816
     2  C   -0.683324
     3  O    0.225041
     4  C   -0.415767
     5  C   -0.850866
     6  H    0.606944
     7  H    0.196858
     8  H    0.346546
     9  N   -0.866336
    10  H    0.382503
    11  H    0.478436
    12  Cl  -0.075750
    13  C   -0.714004
    14  H    0.238375
    15  H    0.389820
    16  H    0.380936
    17  C   -0.743102
    18  H    0.238717
    19  H    0.390933
    20  H    0.310282
    21  C   -0.703182
    22  H    0.571111
    23  H    0.366968
    24  H    0.080677
 Sum of APT charges =  -0.00000
 APT charges with hydrogens summed into heavy atoms:
               1
     1  C   -0.151816
     2  C   -0.683324
     3  O    0.225041
     4  C   -0.415767
     5  C    0.299482
     9  N   -0.005397
    12  Cl  -0.075750
    13  C    0.295127
    17  C    0.196830
    21  C    0.315574
 Electronic spatial extent (au):  <R**2>=           1862.3241
 Charge=             -0.0000 electrons
 Dipole moment (field-independent basis, Debye):
    X=              2.3622    Y=              6.1357    Z=             -3.0011  Tot=              7.2273
 Quadrupole moment (field-independent basis, Debye-Ang):
   XX=            -72.0826   YY=            -64.3460   ZZ=            -69.2869
   XY=              1.2624   XZ=              5.0169   YZ=              0.9569
 Traceless Quadrupole moment (field-independent basis, Debye-Ang):
   XX=             -3.5108   YY=              4.2259   ZZ=             -0.7151
   XY=              1.2624   XZ=              5.0169   YZ=              0.9569
 Octapole moment (field-independent basis, Debye-Ang**2):
  XXX=             13.1063  YYY=             22.0886  ZZZ=             -1.7663  XYY=              9.9260
  XXY=             16.3675  XXZ=            -15.9898  XZZ=             13.8602  YZZ=              8.5185
  YYZ=             -4.0436  XYZ=             -8.8515
 Hexadecapole moment (field-independent basis, Debye-Ang**3):
 XXXX=          -1146.0162 YYYY=           -741.4884 ZZZZ=           -474.1926 XXXY=             -1.8283
 XXXZ=             20.0546 YYYX=             12.7028 YYYZ=            -12.9463 ZZZX=             -3.1622
 ZZZY=            -12.4878 XXYY=           -314.5185 XXZZ=           -287.4714 YYZZ=           -208.0811
 XXYZ=             12.7312 YYXZ=             -4.6917 ZZXY=             -5.1014
 N-N= 6.650385212876D+02 E-N=-3.364281417858D+03  KE= 8.595338141121D+02
  Exact polarizability:       0.000       0.000       0.000       0.000       0.000       0.000
 Approx polarizability:     120.118       4.289     107.102      -1.016      -0.150     102.809
   1 Symmetry operations used in ECPInt.
 ECPInt:  NShTT=    5460 NPrTT=   19488 LenC2=    5399 LenP2D=   15048.
 LDataN:  DoStor=T MaxTD1= 6 Len=  172
 D2PCM: PCM CHGder 2nd derivatives, FixD1E=F FixD2E=F DoIter=F DoCFld=F I1PDM=0
 Calling FoFJK, ICntrl=    100127 FMM=F ISym2X=0 I1Cent= 0 IOpClX= 0 NMat=1 NMatS=1 NMatT=0.
 ***** Axes restored to original set *****
 -------------------------------------------------------------------
 Center     Atomic                   Forces (Hartrees/Bohr)
 Number     Number              X              Y              Z
 -------------------------------------------------------------------
      1        6          -0.005742082   -0.010567440    0.010896555
      2        6           0.010576639   -0.023228519    0.018989809
      3        8          -0.002409686    0.017815886   -0.011563550
      4        6          -0.035918102   -0.036844461    0.029466750
      5        6          -0.004322841   -0.005808292    0.005283972
      6        1           0.000390945    0.005563798   -0.002153303
      7        1          -0.004212110   -0.000387841   -0.000296662
      8        1           0.000016585    0.000442156    0.003299286
      9        7           0.053969291    0.048893602   -0.024647872
     10        1          -0.003912257   -0.007154543    0.005026096
     11        1          -0.003591882    0.001594030   -0.002888453
     12       17          -0.000961493    0.009957913   -0.002904545
     13        6           0.007291753   -0.001636202   -0.011149117
     14        1          -0.003676031   -0.000502048   -0.001878143
     15        1          -0.001952978   -0.001724642   -0.000870984
     16        1           0.003088881    0.001433492   -0.000929903
     17        6           0.003994437    0.008193343   -0.000624362
     18        1           0.004696223   -0.001327713   -0.001470177
     19        1          -0.001341060   -0.006709234   -0.002618256
     20        1          -0.005789380   -0.000011315   -0.004413079
     21        6           0.000933879   -0.000604605   -0.003562678
     22        1          -0.007018262    0.000736001   -0.000369454
     23        1          -0.004800127    0.001089004    0.003351748
     24        1           0.000689657    0.000787632   -0.003973679
 -------------------------------------------------------------------
 Cartesian Forces:  Max     0.053969291 RMS     0.012951853
 FormGI is forming the generalized inverse of G from B-inverse, IUseBI=4.

 GradGradGradGradGradGradGradGradGradGradGradGradGradGradGradGradGradGrad
 Berny optimization.
 Internal  Forces:  Max     0.052145196 RMS     0.007731356
 Search for a saddle point.
 Step number   1 out of a maximum of   50
 All quantities printed in internal units (Hartrees-Bohrs-Radians)
 Swapping is turned off.
 Second derivative matrix not updated -- analytic derivatives used.
 ITU=  0
     Eigenvalues ---   -0.05636  -0.00280  -0.00080  -0.00022   0.00070
     Eigenvalues ---    0.00163   0.00303   0.00670   0.01125   0.01241
     Eigenvalues ---    0.03325   0.03699   0.04308   0.04452   0.04783
     Eigenvalues ---    0.04812   0.05111   0.05391   0.05405   0.05749
     Eigenvalues ---    0.05880   0.06223   0.07716   0.09065   0.09411
     Eigenvalues ---    0.10219   0.11822   0.11972   0.12105   0.12729
     Eigenvalues ---    0.12985   0.13293   0.13705   0.14335   0.14888
     Eigenvalues ---    0.14937   0.15469   0.17449   0.17855   0.18068
     Eigenvalues ---    0.19118   0.20938   0.22012   0.22766   0.25494
     Eigenvalues ---    0.28860   0.33191   0.34035   0.34551   0.34977
     Eigenvalues ---    0.34991   0.35251   0.35620   0.35780   0.35792
     Eigenvalues ---    0.36016   0.36045   0.36107   0.36138   0.36272
     Eigenvalues ---    0.36951   0.37243   0.42400   0.43525   0.57070
     Eigenvalues ---    0.80109
 Eigenvectors required to have negative eigenvalues:
                          R6        A19       A21       D1        D2
   1                   -0.70044  -0.35823   0.19786   0.19336   0.17542
                          D3        D4        D6        D5        A20
   1                    0.16000   0.14205  -0.13934  -0.13859   0.12926
 RFO step:  Lambda0=4.544608473D-03 Lambda=-4.25436388D-02.
 Linear search not attempted -- option 19 set.
 Maximum step size (   0.100) exceeded in Quadratic search.
    -- Step size scaled by   0.207
 Iteration  1 RMS(Cart)=  0.06771116 RMS(Int)=  0.00228932
 Iteration  2 RMS(Cart)=  0.00327888 RMS(Int)=  0.00006827
 Iteration  3 RMS(Cart)=  0.00000699 RMS(Int)=  0.00006815
 Iteration  4 RMS(Cart)=  0.00000000 RMS(Int)=  0.00006815
 Variable       Old X    -DE/DX   Delta X   Delta X   Delta X     New X
                                 (Linear)    (Quad)   (Total)
    R1        2.81560   0.00219   0.00000  -0.01029  -0.01029   2.80531
    R2        2.58395   0.00770   0.00000   0.00418   0.00418   2.58813
    R3        2.83024   0.00761   0.00000   0.00518   0.00518   2.83541
    R4        2.32382  -0.01664   0.00000  -0.00149  -0.00149   2.32232
    R5        2.84470   0.00962   0.00000   0.00758   0.00758   2.85228
    R6        3.54323   0.05215   0.00000   0.05927   0.05927   3.60250
    R7        3.42472  -0.00487   0.00000  -0.00795  -0.00795   3.41677
    R8        2.90432  -0.01499   0.00000  -0.01144  -0.01144   2.89288
    R9        2.06692   0.00490   0.00000   0.00280   0.00280   2.06972
   R10        2.06502   0.00411   0.00000   0.00291   0.00291   2.06793
   R11        2.06631   0.00327   0.00000   0.00163   0.00163   2.06794
   R12        2.77500   0.00315   0.00000  -0.00616  -0.00616   2.76885
   R13        1.94026  -0.00341   0.00000  -0.00174  -0.00174   1.93852
   R14        1.94604  -0.00402   0.00000  -0.00284  -0.00284   1.94320
   R15        2.06908   0.00211   0.00000  -0.00000  -0.00000   2.06907
   R16        2.07031   0.00104   0.00000   0.00026   0.00026   2.07057
   R17        2.07170   0.00305   0.00000   0.00129   0.00129   2.07299
   R18        2.06673   0.00474   0.00000   0.00222   0.00222   2.06895
   R19        2.06883   0.00617   0.00000   0.00258   0.00258   2.07141
   R20        2.06913   0.00682   0.00000   0.00193   0.00193   2.07105
   R21        2.06544   0.00530   0.00000   0.00290   0.00290   2.06834
   R22        2.06607   0.00428   0.00000   0.00213   0.00213   2.06820
   R23        2.06572   0.00373   0.00000   0.00242   0.00242   2.06814
    A1        2.05881   0.00400   0.00000   0.00236   0.00232   2.06113
    A2        2.00748   0.00241   0.00000   0.01262   0.01257   2.02005
    A3        2.21645  -0.00643   0.00000  -0.01545  -0.01549   2.20096
    A4        2.10545   0.01350   0.00000   0.01325   0.01321   2.11866
    A5        2.05519  -0.00003   0.00000  -0.00116  -0.00121   2.05398
    A6        2.12216  -0.01344   0.00000  -0.01165  -0.01169   2.11047
    A7        1.82512   0.02285   0.00000   0.00330   0.00333   1.82845
    A8        2.03143  -0.00188   0.00000  -0.00007  -0.00011   2.03133
    A9        2.12829  -0.00239   0.00000   0.01144   0.01142   2.13971
   A10        1.73583  -0.01236   0.00000  -0.01358  -0.01360   1.72222
   A11        1.72808  -0.01216   0.00000  -0.00799  -0.00801   1.72007
   A12        1.93225   0.00400   0.00000  -0.00072  -0.00085   1.93140
   A13        1.89846  -0.00147   0.00000  -0.00145  -0.00145   1.89701
   A14        1.89780  -0.00131   0.00000  -0.00082  -0.00083   1.89697
   A15        1.92465   0.00558   0.00000   0.00803   0.00803   1.93268
   A16        1.89637   0.00015   0.00000  -0.00095  -0.00096   1.89541
   A17        1.92329  -0.00150   0.00000  -0.00282  -0.00282   1.92047
   A18        1.92270  -0.00152   0.00000  -0.00208  -0.00208   1.92061
   A19        2.37870  -0.02134   0.00000  -0.05247  -0.05250   2.32620
   A20        1.81701  -0.00004   0.00000   0.00863   0.00844   1.82545
   A21        1.70149   0.00961   0.00000   0.01915   0.01934   1.72083
   A22        1.85410   0.01342   0.00000   0.01936   0.01901   1.87312
   A23        1.84858   0.00346   0.00000   0.01362   0.01377   1.86235
   A24        1.78344  -0.00179   0.00000   0.00428   0.00400   1.78744
   A25        1.95770  -0.00363   0.00000  -0.00168  -0.00169   1.95601
   A26        1.91983  -0.00170   0.00000  -0.00151  -0.00151   1.91832
   A27        1.93788  -0.00087   0.00000  -0.00242  -0.00242   1.93546
   A28        1.89738   0.00135   0.00000  -0.00344  -0.00344   1.89393
   A29        1.87215   0.00291   0.00000   0.00672   0.00672   1.87888
   A30        1.87628   0.00233   0.00000   0.00264   0.00264   1.87892
   A31        1.96752  -0.00114   0.00000   0.00275   0.00274   1.97026
   A32        1.92033   0.00485   0.00000   0.00265   0.00265   1.92297
   A33        1.94078   0.00158   0.00000   0.00034   0.00033   1.94111
   A34        1.89020  -0.00263   0.00000  -0.00399  -0.00399   1.88621
   A35        1.85656   0.00047   0.00000   0.00184   0.00183   1.85839
   A36        1.88533  -0.00354   0.00000  -0.00403  -0.00403   1.88130
   A37        1.90681   0.00370   0.00000   0.00701   0.00698   1.91378
   A38        1.90375  -0.00071   0.00000  -0.00853  -0.00852   1.89523
   A39        1.94308   0.00158   0.00000   0.00770   0.00768   1.95075
   A40        1.92230  -0.00451   0.00000  -0.00743  -0.00743   1.91487
   A41        1.89989  -0.00144   0.00000  -0.00054  -0.00060   1.89929
   A42        1.88803   0.00125   0.00000   0.00159   0.00160   1.88963
    D1       -1.22698   0.00578   0.00000   0.11198   0.11196  -1.11502
    D2        1.94404   0.00489   0.00000   0.09560   0.09543   2.03948
    D3        1.94433   0.00666   0.00000   0.12806   0.12823   2.07256
    D4       -1.16784   0.00577   0.00000   0.11169   0.11171  -1.05613
    D5       -1.59935  -0.00050   0.00000   0.01719   0.01713  -1.58222
    D6        2.78890   0.00121   0.00000   0.03151   0.03146   2.82036
    D7        0.33200   0.00011   0.00000   0.01532   0.01528   0.34728
    D8        1.50853  -0.00129   0.00000  -0.00047  -0.00043   1.50811
    D9       -0.38640   0.00041   0.00000   0.01385   0.01390  -0.37250
   D10       -2.84330  -0.00068   0.00000  -0.00234  -0.00228  -2.84558
   D11        2.83489   0.00021   0.00000  -0.04616  -0.04615   2.78874
   D12       -1.33643  -0.00049   0.00000  -0.04752  -0.04752  -1.38395
   D13        0.75168  -0.00073   0.00000  -0.05061  -0.05061   0.70107
   D14       -0.27385   0.00095   0.00000  -0.02879  -0.02880  -0.30265
   D15        1.83802   0.00026   0.00000  -0.03015  -0.03016   1.80786
   D16       -2.35706   0.00002   0.00000  -0.03325  -0.03326  -2.39032
   D17        1.94997   0.00271   0.00000   0.00785   0.00782   1.95780
   D18       -2.23109  -0.00098   0.00000  -0.00216  -0.00221  -2.23330
   D19       -0.14891   0.00108   0.00000  -0.00094  -0.00101  -0.14992
   D20       -1.16190   0.00132   0.00000  -0.00914  -0.00906  -1.17096
   D21        0.94023  -0.00237   0.00000  -0.01915  -0.01910   0.92113
   D22        3.02241  -0.00031   0.00000  -0.01792  -0.01790   3.00451
   D23        1.43741  -0.00049   0.00000   0.00481   0.00492   1.44232
   D24       -0.88115   0.00137   0.00000   0.02153   0.02148  -0.85967
   D25       -2.70722   0.00043   0.00000   0.00966   0.00960  -2.69762
   D26       -2.74106   0.00044   0.00000   0.00044   0.00052  -2.74054
   D27        1.22357   0.00231   0.00000   0.01717   0.01709   1.24066
   D28       -0.60250   0.00137   0.00000   0.00529   0.00520  -0.59730
   D29       -0.77029  -0.00140   0.00000  -0.00559  -0.00545  -0.77573
   D30       -3.08884   0.00046   0.00000   0.01114   0.01112  -3.07772
   D31        1.36827  -0.00047   0.00000  -0.00074  -0.00077   1.36751
   D32       -0.87411  -0.00550   0.00000   0.01107   0.01109  -0.86302
   D33        1.23994  -0.00741   0.00000   0.00453   0.00455   1.24449
   D34       -2.96856  -0.00615   0.00000   0.00532   0.00534  -2.96322
   D35        1.10719   0.01311   0.00000   0.01433   0.01432   1.12151
   D36       -3.06195   0.01121   0.00000   0.00779   0.00778  -3.05417
   D37       -0.98726   0.01246   0.00000   0.00858   0.00857  -0.97870
   D38        2.91807  -0.00466   0.00000  -0.00421  -0.00421   2.91386
   D39       -1.25107  -0.00657   0.00000  -0.01075  -0.01075  -1.26182
   D40        0.82362  -0.00531   0.00000  -0.00996  -0.00996   0.81365
   D41        3.04041   0.00285   0.00000   0.00921   0.00922   3.04963
   D42       -0.93519  -0.00338   0.00000  -0.01172  -0.01181  -0.94700
   D43        0.95247   0.00132   0.00000   0.00616   0.00624   0.95871
   D44       -1.14670   0.00363   0.00000   0.01073   0.01074  -1.13596
   D45        1.16088  -0.00259   0.00000  -0.01019  -0.01029   1.15060
   D46        3.04855   0.00210   0.00000   0.00769   0.00776   3.05631
   D47        0.94553   0.00190   0.00000   0.00644   0.00646   0.95199
   D48       -3.03006  -0.00433   0.00000  -0.01448  -0.01457  -3.04464
   D49       -1.14240   0.00037   0.00000   0.00340   0.00347  -1.13893
         Item               Value     Threshold  Converged?
 Maximum Force            0.052145     0.000450     NO 
 RMS     Force            0.007731     0.000300     NO 
 Maximum Displacement     0.324294     0.001800     NO 
 RMS     Displacement     0.067718     0.001200     NO 
 Predicted change in Energy=-9.223304D-03
 GradGradGradGradGradGradGradGradGradGradGradGradGradGradGradGradGradGrad

                          Input orientation:                          
 ---------------------------------------------------------------------
 Center     Atomic      Atomic             Coordinates (Angstroms)
 Number     Number       Type             X           Y           Z
 ---------------------------------------------------------------------
      1          6           0       -0.485271   -0.693125   -0.302740
      2          6           0       -1.807158   -0.332875    0.268743
      3          8           0       -2.148593   -0.718201    1.384625
      4          6           0        0.638340   -0.232082    0.330253
      5          6           0        0.496039    2.798804   -0.305762
      6          1           0        1.040346    3.514939   -0.930628
      7          1           0       -0.565048    2.838042   -0.570425
      8          1           0        0.605476    3.093863    0.742320
      9          7           0        1.012479    1.441733   -0.501957
     10          1           0        0.976911    1.243863   -1.507885
     11          1           0        2.023795    1.481167   -0.320063
     12         17           0        2.185903   -1.082180   -0.059010
     13          6           0        0.630597    0.235144    1.788038
     14          1           0       -0.180273    0.942926    1.988926
     15          1           0        0.513984   -0.626080    2.455307
     16          1           0        1.575291    0.729833    2.045333
     17          6           0       -0.520072   -1.490131   -1.573520
     18          1           0        0.416701   -1.433619   -2.137382
     19          1           0       -0.721088   -2.544866   -1.352942
     20          1           0       -1.309006   -1.132150   -2.244747
     21          6           0       -2.729643    0.511909   -0.575967
     22          1           0       -3.599710   -0.080502   -0.875971
     23          1           0       -3.055431    1.372267    0.016869
     24          1           0       -2.229191    0.884560   -1.475085
 ---------------------------------------------------------------------
                    Distance matrix (angstroms):
                    1          2          3          4          5
     1  C    0.000000
     2  C    1.484505   0.000000
     3  O    2.369487   1.228921   0.000000
     4  C    1.369578   2.448347   3.019107   0.000000
     5  C    3.627196   3.929655   4.713896   3.100167   0.000000
     6  H    4.519906   4.934819   5.783528   3.973864   1.095251
     7  H    3.542196   3.507385   4.356225   3.418337   1.094300
     8  H    4.077151   4.217536   4.746502   3.351535   1.094309
     9  N    2.615446   3.419585   4.268124   1.906360   1.465212
    10  H    2.709663   3.659719   4.688825   2.381553   2.023408
    11  H    3.320129   4.279444   5.015177   2.297307   2.017525
    12  Cl   2.710340   4.075956   4.583058   1.808077   4.240114
    13  C    2.545231   2.928063   2.965722   1.530848   3.312772
    14  H    2.832211   2.689508   2.645525   2.191339   3.027751
    15  H    2.934252   3.202301   2.871265   2.164845   4.399280
    16  H    3.432809   3.965676   4.049772   2.178223   3.312564
    17  C    1.500437   2.527798   3.463896   2.559093   4.586356
    18  H    2.174350   3.456388   4.415551   2.753550   4.612432
    19  H    2.141840   2.949969   3.587304   3.167043   5.579677
    20  H    2.154686   2.684143   3.748146   3.351552   4.740280
    21  C    2.562023   1.509362   2.386359   3.566240   3.963322
    22  H    3.225465   2.141799   2.760922   4.408971   5.038919
    23  H    3.312660   2.128177   2.657662   4.039319   3.840839
    24  H    2.627687   2.168224   3.279220   3.567755   3.529664
                    6          7          8          9         10
     6  H    0.000000
     7  H    1.779108   0.000000
     8  H    1.779093   1.777321   0.000000
     9  N    2.117243   2.107832   2.107940   0.000000
    10  H    2.344149   2.407877   2.936645   1.025821   0.000000
    11  H    2.340125   2.933581   2.396053   1.028300   1.600999
    12  Cl   4.817210   4.816369   4.536431   2.818379   2.995225
    13  C    4.279730   3.710390   3.044081   2.616442   3.464182
    14  H    4.077862   3.207771   2.607290   2.806415   3.695581
    15  H    5.374910   4.724353   4.096422   3.642768   4.406573
    16  H    4.110879   3.983439   2.868278   2.704117   3.639731
    17  C    5.281945   4.443118   5.257658   3.477468   3.117690
    18  H    5.131609   4.654704   5.369023   3.361133   2.806958
    19  H    6.324732   5.441725   6.159964   4.429718   4.154717
    20  H    5.370456   4.372556   5.517880   3.879624   3.378434
    21  C    4.832886   3.177482   4.418980   3.856620   3.891371
    22  H    5.870290   4.221425   5.511719   4.871280   4.806112
    23  H    4.718494   2.948799   4.110038   4.101451   4.312905
    24  H    4.231453   2.721005   4.222942   3.430137   3.226339
                   11         12         13         14         15
    11  H    0.000000
    12  Cl   2.581700   0.000000
    13  C    2.817386   2.750619   0.000000
    14  H    3.237136   3.727450   1.094907   0.000000
    15  H    3.797724   3.053708   1.095699   1.778000   0.000000
    16  H    2.522055   2.843325   1.096980   1.769349   1.770015
    17  C    4.107435   3.127693   3.949770   4.327383   4.248212
    18  H    3.792278   2.751947   4.270766   4.799037   4.664159
    19  H    4.980980   3.502043   4.406956   4.860581   4.439584
    20  H    4.652031   4.122418   4.679199   4.848088   5.066548
    21  C    4.857995   5.193357   4.117807   3.641941   4.583095
    22  H    5.862734   5.928246   5.009199   4.576853   5.321423
    23  H    5.091554   5.788061   4.244631   3.512816   4.762363
    24  H    4.447235   5.036506   4.387266   4.025027   5.025438
                   16         17         18         19         20
    16  H    0.000000
    17  C    4.734436   0.000000
    18  H    4.849532   1.094841   0.000000
    19  H    5.248360   1.096142   1.773353   0.000000
    20  H    5.494628   1.095953   1.755128   1.771081   0.000000
    21  C    5.044914   3.144118   4.015293   3.739232   2.739702
    22  H    5.997608   3.458005   4.421950   3.819301   2.868246
    23  H    5.096173   4.141342   4.956763   4.761248   3.799608
    24  H    5.185689   2.927446   3.579572   3.748368   2.346538
                   21         22         23         24
    21  C    0.000000
    22  H    1.094519   0.000000
    23  H    1.094445   1.789956   0.000000
    24  H    1.094410   1.780058   1.773826   0.000000
 Stoichiometry    C7H14ClNO
 Framework group  C1[X(C7H14ClNO)]
 Deg. of freedom    66
 Full point group                 C1      NOp   1
 Largest Abelian subgroup         C1      NOp   1
 Largest concise Abelian subgroup C1      NOp   1
                         Standard orientation:                         
 ---------------------------------------------------------------------
 Center     Atomic      Atomic             Coordinates (Angstroms)
 Number     Number       Type             X           Y           Z
 ---------------------------------------------------------------------
      1          6           0       -0.471485   -0.726729   -0.270662
      2          6           0       -1.796508   -0.369370    0.295344
      3          8           0       -2.122155   -0.713661    1.429216
      4          6           0        0.646761   -0.216425    0.333374
      5          6           0        0.437588    2.781102   -0.429592
      6          1           0        0.962655    3.480868   -1.088536
      7          1           0       -0.625899    2.787480   -0.687367
      8          1           0        0.548209    3.122701    0.604132
      9          7           0        0.980515    1.427668   -0.572041
     10          1           0        0.942035    1.186444   -1.568353
     11          1           0        1.992044    1.495337   -0.399908
     12         17           0        2.208774   -1.050743   -0.031557
     13          6           0        0.639532    0.312225    1.770028
     14          1           0       -0.184339    1.011315    1.947032
     15          1           0        0.545343   -0.521982    2.474146
     16          1           0        1.575595    0.836501    1.998688
     17          6           0       -0.498689   -1.577690   -1.506153
     18          1           0        0.432773   -1.526244   -2.079222
     19          1           0       -0.676380   -2.625934   -1.239435
     20          1           0       -1.299486   -1.264717   -2.185774
     21          6           0       -2.742067    0.419762   -0.577216
     22          1           0       -3.601804   -0.202432   -0.844982
     23          1           0       -3.081390    1.297803   -0.018903
     24          1           0       -2.255672    0.763854   -1.495233
 ---------------------------------------------------------------------
 Rotational constants (GHZ):           1.2602969           0.8622249           0.7213887
 Standard basis: def2SVP (5D, 7F)
 There are   224 symmetry adapted cartesian basis functions of A   symmetry.
 There are   214 symmetry adapted basis functions of A   symmetry.
   214 basis functions,   360 primitive gaussians,   224 cartesian basis functions
    44 alpha electrons       44 beta electrons
       nuclear repulsion energy       664.8723065558 Hartrees.
 NAtoms=   24 NActive=   24 NUniq=   24 SFac= 1.00D+00 NAtFMM=   60 NAOKFM=F Big=F
 Integral buffers will be    131072 words long.
 Raffenetti 2 integral format.
 Two-electron integral symmetry is turned on.
 Nuclear repulsion after empirical dispersion term =      664.8547476692 Hartrees.
 ------------------------------------------------------------------------------
 Polarizable Continuum Model (PCM)
 =================================
 Model                : PCM.
 Atomic radii         : UFF (Universal Force Field).
 Polarization charges : Total charges.
 Charge compensation  : None.
 Solution method      : Matrix inversion.
 Cavity type          : Scaled VdW (van der Waals Surface) (Alpha=1.100).
 Cavity algorithm     : GePol (No added spheres)
                        Default sphere list used, NSphG=   24.
                        Lebedev-Laikov grids with approx.  5.0 points / Ang**2.
                        Smoothing algorithm: York/Karplus (Gamma=1.0000).
                        Polarization charges: spherical gaussians, with
                                              point-specific exponents (IZeta= 3).
                        Self-potential: point-specific (ISelfS= 7).
                        Self-field    : sphere-specific E.n sum rule (ISelfD= 2).
 1st derivatives      : Analytical E(r).r(x)/FMM algorithm (CHGder, D1EAlg=3).
                        Cavity 1st derivative terms included.
 Solvent              : Toluene, Eps=   2.374100 Eps(inf)=   2.238315
 ------------------------------------------------------------------------------
 One-electron integrals computed using PRISM.
   1 Symmetry operations used in ECPInt.
 ECPInt:  NShTT=    5460 NPrTT=   19488 LenC2=    5398 LenP2D=   15035.
 LDataN:  DoStor=T MaxTD1= 4 Len=   56
 NBasis=   214 RedAO= T EigKep=  1.03D-03  NBF=   214
 NBsUse=   214 1.00D-06 EigRej= -1.00D+00 NBFU=   214
 Initial guess from the checkpoint file:  "TS-898_opt_dft.chk"
 B after Tr=     0.000000    0.000000    0.000000
         Rot=    0.999683    0.023965   -0.005476   -0.005371 Ang=   2.88 deg.
 ExpMin= 1.22D-01 ExpMax= 1.04D+04 ExpMxC= 1.57D+03 IAcc=3 IRadAn=         5 AccDes= 0.00D+00
 Harris functional with IExCor= 4639 and IRadAn=       5 diagonalized for initial guess.
 HarFok:  IExCor= 4639 AccDes= 0.00D+00 IRadAn=         5 IDoV= 1 UseB2=F ITyADJ=14
 ICtDFT=  3500011 ScaDFX=  1.000000  1.000000  1.000000  1.000000
 FoFCou: FMM=F IPFlag=           0 FMFlag=      100000 FMFlg1=           0
         NFxFlg=           0 DoJE=T BraDBF=F KetDBF=T FulRan=T
         wScrn=  0.000000 ICntrl=       500 IOpCl=  0 I1Cent=   200000004 NGrid=           0
         NMat0=    1 NMatS0=      1 NMatT0=    0 NMatD0=    1 NMtDS0=    0 NMtDT0=    0
 Petite list used in FoFCou.
 Requested convergence on RMS density matrix=1.00D-08 within 128 cycles.
 Requested convergence on MAX density matrix=1.00D-06.
 Requested convergence on             energy=1.00D-06.
 No special actions if energy rises.
 Inv3:  Mode=1 IEnd=     9124608.
 Iteration    1 A*A^-1 deviation from unit magnitude is 3.55D-15 for   1011.
 Iteration    1 A*A^-1 deviation from orthogonality  is 2.33D-15 for   1130    248.
 Iteration    1 A^-1*A deviation from unit magnitude is 3.11D-15 for    737.
 Iteration    1 A^-1*A deviation from orthogonality  is 1.78D-15 for   1454    192.
 Error on total polarization charges =  0.00638
 SCF Done:  E(RwB97XD) =  -864.702578785     A.U. after   14 cycles
            NFock= 14  Conv=0.72D-08     -V/T= 2.0061
   1 Symmetry operations used in ECPInt.
 ECPInt:  NShTT=    5460 NPrTT=   19488 LenC2=    5398 LenP2D=   15035.
 LDataN:  DoStor=T MaxTD1= 5 Len=  102
 D1PCM: PCM CHGder 1st derivatives, ID1Alg=3 FixD1E=F DoIter=F DoCFld=F I1PDM=0.
 Calling FoFJK, ICntrl=      2127 FMM=F ISym2X=0 I1Cent= 0 IOpClX= 0 NMat=1 NMatS=1 NMatT=0.
 ***** Axes restored to original set *****
 -------------------------------------------------------------------
 Center     Atomic                   Forces (Hartrees/Bohr)
 Number     Number              X              Y              Z
 -------------------------------------------------------------------
      1        6          -0.005025025   -0.008737930    0.008433123
      2        6           0.008882289   -0.017348792    0.016848014
      3        8          -0.001848627    0.014428872   -0.010039625
      4        6          -0.031826674   -0.033748561    0.026752307
      5        6          -0.004191913   -0.005569487    0.003714823
      6        1          -0.000016296    0.004763737   -0.001618984
      7        1          -0.003477527   -0.000481352   -0.000003985
      8        1           0.000096783    0.000245973    0.002737787
      9        7           0.048423301    0.042531240   -0.021899023
     10        1          -0.004116531   -0.006182592    0.004298814
     11        1          -0.003050269    0.001397071   -0.001893951
     12       17          -0.000679958    0.008699772   -0.002674213
     13        6           0.006470697   -0.000829051   -0.009556681
     14        1          -0.003202818   -0.000615644   -0.001448198
     15        1          -0.001737329   -0.001448896   -0.000685381
     16        1           0.002477686    0.001131820   -0.000936037
     17        6           0.003377792    0.007981391   -0.001286406
     18        1           0.003882582   -0.001016208   -0.001139562
     19        1          -0.000887043   -0.005522149   -0.002166736
     20        1          -0.004771472   -0.000398183   -0.003476784
     21        6           0.000779451   -0.001315935   -0.003560355
     22        1          -0.005771615    0.000632757   -0.000094775
     23        1          -0.004103458    0.000917243    0.002845605
     24        1           0.000315975    0.000484903   -0.003149776
 -------------------------------------------------------------------
 Cartesian Forces:  Max     0.048423301 RMS     0.011389297

 GradGradGradGradGradGradGradGradGradGradGradGradGradGradGradGradGradGrad
 Berny optimization.
 FormGI is forming the generalized inverse of G from B-inverse, IUseBI=4.
 Internal  Forces:  Max     0.045239797 RMS     0.006606001
 Search for a saddle point.
 Step number   2 out of a maximum of   50
 All quantities printed in internal units (Hartrees-Bohrs-Radians)
 Swapping is turned off.
 Update second derivatives using D2CorX and points    1    2
 ITU=  0  0
     Eigenvalues ---   -0.05584  -0.00194  -0.00058  -0.00001   0.00151
     Eigenvalues ---    0.00215   0.00303   0.00667   0.01128   0.01227
     Eigenvalues ---    0.03317   0.03697   0.04308   0.04452   0.04783
     Eigenvalues ---    0.04812   0.05110   0.05390   0.05405   0.05747
     Eigenvalues ---    0.05881   0.06221   0.07691   0.09058   0.09413
     Eigenvalues ---    0.10210   0.11822   0.11972   0.12105   0.12732
     Eigenvalues ---    0.12982   0.13290   0.13707   0.14332   0.14888
     Eigenvalues ---    0.14942   0.15476   0.17450   0.17854   0.18079
     Eigenvalues ---    0.19116   0.20933   0.22036   0.22756   0.25500
     Eigenvalues ---    0.28858   0.33196   0.34039   0.34550   0.34978
     Eigenvalues ---    0.34992   0.35251   0.35620   0.35780   0.35791
     Eigenvalues ---    0.36018   0.36045   0.36106   0.36138   0.36272
     Eigenvalues ---    0.36951   0.37241   0.42401   0.43526   0.57070
     Eigenvalues ---    0.80119
 Eigenvectors required to have negative eigenvalues:
                          R6        A19       A21       D1        D2
   1                   -0.70430  -0.35948   0.20038   0.18404   0.16680
                          D3        D6        D5        D4        A20
   1                    0.14763  -0.14497  -0.14370   0.13039   0.12652
 RFO step:  Lambda0=3.392534217D-03 Lambda=-3.59505306D-02.
 Linear search not attempted -- option 19 set.
 Maximum step size (   0.100) exceeded in Quadratic search.
    -- Step size scaled by   0.212
 Iteration  1 RMS(Cart)=  0.04934129 RMS(Int)=  0.00115215
 Iteration  2 RMS(Cart)=  0.00198038 RMS(Int)=  0.00008283
 Iteration  3 RMS(Cart)=  0.00000229 RMS(Int)=  0.00008282
 Iteration  4 RMS(Cart)=  0.00000000 RMS(Int)=  0.00008282
 Variable       Old X    -DE/DX   Delta X   Delta X   Delta X     New X
                                 (Linear)    (Quad)   (Total)
    R1        2.80531   0.00210   0.00000  -0.00637  -0.00637   2.79894
    R2        2.58813   0.00608   0.00000   0.00215   0.00215   2.59028
    R3        2.83541   0.00625   0.00000   0.00429   0.00429   2.83970
    R4        2.32232  -0.01313   0.00000  -0.00126  -0.00126   2.32107
    R5        2.85228   0.00798   0.00000   0.00617   0.00617   2.85845
    R6        3.60250   0.04524   0.00000   0.05700   0.05700   3.65950
    R7        3.41677  -0.00410   0.00000  -0.00493  -0.00493   3.41184
    R8        2.89288  -0.01258   0.00000  -0.01066  -0.01066   2.88223
    R9        2.06972   0.00403   0.00000   0.00239   0.00239   2.07211
   R10        2.06793   0.00336   0.00000   0.00239   0.00239   2.07032
   R11        2.06794   0.00270   0.00000   0.00157   0.00157   2.06951
   R12        2.76885   0.00237   0.00000  -0.00667  -0.00667   2.76218
   R13        1.93852  -0.00288   0.00000  -0.00183  -0.00183   1.93669
   R14        1.94320  -0.00328   0.00000  -0.00246  -0.00246   1.94075
   R15        2.06907   0.00171   0.00000   0.00015   0.00015   2.06922
   R16        2.07057   0.00091   0.00000   0.00044   0.00044   2.07101
   R17        2.07299   0.00242   0.00000   0.00080   0.00080   2.07379
[...]
    20  H    5.330604   1.106157   1.775859   1.767361   0.000000
    21  C    5.566770   2.864511   3.949686   2.733203   2.948023
    22  H    5.991288   2.852203   3.859591   2.307856   3.138161
    23  H    6.094604   3.950791   5.031629   3.804056   3.984181
    24  H    6.029523   2.753974   3.836579   2.743440   2.420275
                   21         22         23         24
    21  C    0.000000
    22  H    1.101265   0.000000
    23  H    1.097091   1.790925   0.000000
    24  H    1.101088   1.769774   1.792747   0.000000
 Stoichiometry    C7H14ClNO
 Framework group  C1[X(C7H14ClNO)]
 Deg. of freedom    66
 Full point group                 C1      NOp   1
 Largest Abelian subgroup         C1      NOp   1
 Largest concise Abelian subgroup C1      NOp   1
                         Standard orientation:                         
 ---------------------------------------------------------------------
 Center     Atomic      Atomic             Coordinates (Angstroms)
 Number     Number       Type             X           Y           Z
 ---------------------------------------------------------------------
      1          6           0       -0.589033   -0.475343   -0.152372
      2          6           0       -1.831613    0.042242    0.367185
      3          8           0       -1.958380    0.881576    1.266418
      4          6           0        0.650980   -0.022944    0.353093
      5          6           0        0.683769    2.142462   -1.283241
      6          1           0        1.012806    2.550198   -2.247977
      7          1           0       -0.366550    1.821796   -1.352317
      8          1           0        0.770286    2.914913   -0.510483
      9          7           0        1.474666    0.975896   -0.900103
     10          1           0        1.585350    0.327429   -1.681642
     11          1           0        2.415025    1.217767   -0.580953
     12         17           0        1.998788   -1.302862    0.429622
     13          6           0        0.763417    0.838711    1.584025
     14          1           0        0.127918    1.725588    1.491222
     15          1           0        0.382933    0.276198    2.446310
     16          1           0        1.811391    1.111126    1.772462
     17          6           0       -0.610684   -1.439443   -1.320961
     18          1           0        0.393591   -1.834187   -1.530003
     19          1           0       -1.246743   -2.319372   -1.132066
     20          1           0       -0.984288   -0.980510   -2.255512
     21          6           0       -3.107566   -0.515447   -0.263968
     22          1           0       -3.187517   -1.602852   -0.109230
     23          1           0       -3.968068   -0.021799    0.204493
     24          1           0       -3.136780   -0.342945   -1.351067
 ---------------------------------------------------------------------
 Rotational constants (GHZ):           1.3850654           0.8171710           0.7405907

 **********************************************************************

            Population analysis using the SCF Density.

 **********************************************************************

 Orbital symmetries:
       Occupied  (A) (A) (A) (A) (A) (A) (A) (A) (A) (A) (A) (A)
                 (A) (A) (A) (A) (A) (A) (A) (A) (A) (A) (A) (A)
                 (A) (A) (A) (A) (A) (A) (A) (A) (A) (A) (A) (A)
                 (A) (A) (A) (A) (A) (A) (A) (A)
       Virtual   (A) (A) (A) (A) (A) (A) (A) (A) (A) (A) (A) (A)
                 (A) (A) (A) (A) (A) (A) (A) (A) (A) (A) (A) (A)
                 (A) (A) (A) (A) (A) (A) (A) (A) (A) (A) (A) (A)
                 (A) (A) (A) (A) (A) (A) (A) (A) (A) (A) (A) (A)
                 (A) (A) (A) (A) (A) (A) (A) (A) (A) (A) (A) (A)
                 (A) (A) (A) (A) (A) (A) (A) (A) (A) (A) (A) (A)
                 (A) (A) (A) (A) (A) (A) (A) (A) (A) (A) (A) (A)
                 (A) (A) (A) (A) (A) (A) (A) (A) (A) (A) (A) (A)
                 (A) (A) (A) (A) (A) (A) (A) (A) (A) (A) (A) (A)
                 (A) (A) (A) (A) (A) (A) (A) (A) (A) (A) (A) (A)
                 (A) (A) (A) (A) (A) (A) (A) (A) (A) (A) (A) (A)
                 (A) (A) (A) (A) (A) (A) (A) (A) (A) (A) (A) (A)
                 (A) (A) (A) (A) (A) (A) (A) (A) (A) (A) (A) (A)
                 (A) (A) (A) (A) (A) (A) (A) (A) (A) (A) (A) (A)
                 (A) (A)
 The electronic state is 1-A.
 Alpha  occ. eigenvalues -- -101.66008 -19.18329 -14.53295 -10.40654 -10.35277
 Alpha  occ. eigenvalues --  -10.34213 -10.29622 -10.28403 -10.27306 -10.25549
 Alpha  occ. eigenvalues --   -9.56778  -7.32096  -7.31232  -7.31200  -1.07208
 Alpha  occ. eigenvalues --   -1.06384  -0.94769  -0.86176  -0.83061  -0.80246
 Alpha  occ. eigenvalues --   -0.78769  -0.73327  -0.67036  -0.65297  -0.60128
 Alpha  occ. eigenvalues --   -0.58360  -0.56003  -0.53705  -0.51968  -0.50907
 Alpha  occ. eigenvalues --   -0.49767  -0.49438  -0.47963  -0.46956  -0.46330
 Alpha  occ. eigenvalues --   -0.44967  -0.44101  -0.44047  -0.42679  -0.40557
 Alpha  occ. eigenvalues --   -0.38426  -0.37841  -0.28808  -0.25256
 Alpha virt. eigenvalues --    0.08288   0.08753   0.11083   0.14211   0.15418
 Alpha virt. eigenvalues --    0.16556   0.17186   0.19226   0.19766   0.20876
 Alpha virt. eigenvalues --    0.21499   0.22706   0.22946   0.24416   0.24953
 Alpha virt. eigenvalues --    0.25225   0.26993   0.28822   0.31108   0.31893
 Alpha virt. eigenvalues --    0.35491   0.37953   0.40832   0.46043   0.46440
 Alpha virt. eigenvalues --    0.48990   0.50540   0.50949   0.53232   0.53788
 Alpha virt. eigenvalues --    0.56648   0.57281   0.59136   0.60968   0.61517
 Alpha virt. eigenvalues --    0.63596   0.66737   0.68618   0.69395   0.71012
 Alpha virt. eigenvalues --    0.72546   0.72765   0.73262   0.73587   0.73874
 Alpha virt. eigenvalues --    0.74641   0.74983   0.75401   0.75878   0.77184
 Alpha virt. eigenvalues --    0.77316   0.77999   0.78748   0.79441   0.80099
 Alpha virt. eigenvalues --    0.81317   0.81625   0.83761   0.84152   0.85308
 Alpha virt. eigenvalues --    0.85595   0.86894   0.89581   0.91547   0.93145
 Alpha virt. eigenvalues --    0.93921   0.95033   0.96687   1.01588   1.03740
 Alpha virt. eigenvalues --    1.04861   1.08382   1.10880   1.13208   1.16700
 Alpha virt. eigenvalues --    1.18848   1.20403   1.25531   1.26004   1.27020
 Alpha virt. eigenvalues --    1.32467   1.35626   1.38187   1.41421   1.42614
 Alpha virt. eigenvalues --    1.43104   1.46311   1.46607   1.54660   1.56766
 Alpha virt. eigenvalues --    1.58533   1.61032   1.62212   1.63869   1.66692
 Alpha virt. eigenvalues --    1.67839   1.69133   1.72530   1.72842   1.77245
 Alpha virt. eigenvalues --    1.78790   1.82345   1.83636   1.84366   1.85091
 Alpha virt. eigenvalues --    1.86673   1.87588   1.89115   1.89812   1.91304
 Alpha virt. eigenvalues --    1.92289   1.92513   1.94162   1.95038   1.96611
 Alpha virt. eigenvalues --    1.99863   2.00733   2.03822   2.05964   2.06581
 Alpha virt. eigenvalues --    2.08304   2.09257   2.11997   2.13593   2.14831
 Alpha virt. eigenvalues --    2.18616   2.20156   2.21866   2.23095   2.30268
 Alpha virt. eigenvalues --    2.31720   2.35811   2.40369   2.40654   2.45560
 Alpha virt. eigenvalues --    2.45653   2.46763   2.50139   2.52337   2.55624
 Alpha virt. eigenvalues --    2.57638   2.58104   2.59100   2.65180   2.66877
 Alpha virt. eigenvalues --    2.69833   2.72769   2.75034   2.80142   2.81535
 Alpha virt. eigenvalues --    2.82649   2.84869   2.86573   2.91948   2.93890
 Alpha virt. eigenvalues --    3.00905   3.02350   3.02555   3.03357   3.05197
 Alpha virt. eigenvalues --    3.05561   3.06760   3.09737   3.12056   3.20316
 Alpha virt. eigenvalues --    3.24212   3.27618   3.47912   3.53588   3.76278
          Condensed to atoms (all electrons):
               1          2          3          4          5          6
     1  C    5.854272   0.222952  -0.123407   0.391005  -0.011289  -0.000784
     2  C    0.222952   4.721889   0.705928  -0.048124  -0.000323  -0.000025
     3  O   -0.123407   0.705928   7.829299  -0.019412   0.000110   0.000012
     4  C    0.391005  -0.048124  -0.019412   5.328204  -0.029601   0.003315
     5  C   -0.011289  -0.000323   0.000110  -0.029601   4.528232   0.403869
     6  H   -0.000784  -0.000025   0.000012   0.003315   0.403869   0.583801
     7  H    0.021694   0.006539   0.000466  -0.005188   0.402535  -0.018764
     8  H   -0.001228  -0.000256  -0.000371  -0.002361   0.406022  -0.019212
     9  N   -0.112463  -0.002236   0.000170   0.101713   0.311941  -0.015817
    10  H   -0.005572   0.000059  -0.000024  -0.004755  -0.016304  -0.009023
    11  H    0.008566  -0.000002  -0.000007  -0.006599  -0.016389  -0.002974
    12  Cl  -0.079871  -0.001155  -0.000008   0.259719   0.002924  -0.000164
    13  C   -0.054258   0.001218  -0.004334   0.375040   0.000481  -0.000076
    14  H   -0.027725   0.003576   0.026572   0.012423   0.003338   0.000025
    15  H   -0.011754   0.000179   0.003200  -0.003206  -0.000132   0.000007
    16  H    0.011723   0.001208   0.001861  -0.031720  -0.001397  -0.000020
    17  C    0.328092  -0.009426   0.004042  -0.069869  -0.000586   0.000096
    18  H   -0.023752   0.007747  -0.000073  -0.017140  -0.000079  -0.000012
    19  H   -0.001144  -0.018796   0.000006   0.005731  -0.000052  -0.000002
    20  H   -0.023835  -0.012463   0.000042   0.000126   0.000970   0.000038
    21  C   -0.196868   0.425959  -0.087754   0.007549  -0.000095  -0.000000
    22  H    0.000917  -0.007599   0.001901   0.000643  -0.000002   0.000000
    23  H    0.018867  -0.014934   0.013048  -0.000242  -0.000003   0.000000
    24  H   -0.006078   0.002489   0.002431  -0.000292   0.000141  -0.000001
               7          8          9         10         11         12
     1  C    0.021694  -0.001228  -0.112463  -0.005572   0.008566  -0.079871
     2  C    0.006539  -0.000256  -0.002236   0.000059  -0.000002  -0.001155
     3  O    0.000466  -0.000371   0.000170  -0.000024  -0.000007  -0.000008
     4  C   -0.005188  -0.002361   0.101713  -0.004755  -0.006599   0.259719
     5  C    0.402535   0.406022   0.311941  -0.016304  -0.016389   0.002924
     6  H   -0.018764  -0.019212  -0.015817  -0.009023  -0.002974  -0.000164
     7  H    0.545224  -0.014946  -0.028503  -0.001912   0.006373   0.000391
     8  H   -0.014946   0.567765  -0.020959   0.005693  -0.008204   0.000020
     9  N   -0.028503  -0.020959   6.368449   0.338082   0.333015  -0.084335
    10  H   -0.001912   0.005693   0.338082   0.508939  -0.013062   0.009004
    11  H    0.006373  -0.008204   0.333015  -0.013062   0.514569   0.011189
    12  Cl   0.000391   0.000020  -0.084335   0.009004   0.011189  17.088723
    13  C   -0.002663   0.006042  -0.045280   0.004666  -0.004280  -0.062002
    14  H    0.000068   0.001879  -0.000254  -0.000131  -0.000646   0.002920
    15  H    0.000013  -0.000177   0.003599  -0.000232  -0.000095   0.002505
    16  H   -0.000021  -0.000117  -0.002428  -0.000051   0.004441   0.001377
    17  C   -0.002573   0.000065   0.003071   0.004791  -0.000488  -0.015582
    18  H    0.000025  -0.000015  -0.002697   0.004107  -0.000083   0.021666
    19  H    0.000130   0.000002  -0.000315  -0.000124   0.000017   0.001313
    20  H   -0.000666  -0.000009   0.002863  -0.000165  -0.000119   0.000010
    21  C    0.000130  -0.000036  -0.000100  -0.000027   0.000009  -0.000112
    22  H    0.000034   0.000001  -0.000010   0.000002   0.000000   0.000013
    23  H   -0.000058   0.000001   0.000004   0.000000  -0.000000   0.000002
    24  H   -0.000469   0.000007   0.000042  -0.000004  -0.000001  -0.000001
              13         14         15         16         17         18
     1  C   -0.054258  -0.027725  -0.011754   0.011723   0.328092  -0.023752
     2  C    0.001218   0.003576   0.000179   0.001208  -0.009426   0.007747
     3  O   -0.004334   0.026572   0.003200   0.001861   0.004042  -0.000073
     4  C    0.375040   0.012423  -0.003206  -0.031720  -0.069869  -0.017140
     5  C    0.000481   0.003338  -0.000132  -0.001397  -0.000586  -0.000079
     6  H   -0.000076   0.000025   0.000007  -0.000020   0.000096  -0.000012
     7  H   -0.002663   0.000068   0.000013  -0.000021  -0.002573   0.000025
     8  H    0.006042   0.001879  -0.000177  -0.000117   0.000065  -0.000015
     9  N   -0.045280  -0.000254   0.003599  -0.002428   0.003071  -0.002697
    10  H    0.004666  -0.000131  -0.000232  -0.000051   0.004791   0.004107
    11  H   -0.004280  -0.000646  -0.000095   0.004441  -0.000488  -0.000083
    12  Cl  -0.062002   0.002920   0.002505   0.001377  -0.015582   0.021666
    13  C    4.554038   0.362363   0.391273   0.368318   0.006868   0.001208
    14  H    0.362363   0.575897  -0.010846  -0.017798  -0.000124  -0.000106
    15  H    0.391273  -0.010846   0.573239  -0.020232   0.000023  -0.000014
    16  H    0.368318  -0.017798  -0.020232   0.660422  -0.000257  -0.000025
    17  C    0.006868  -0.000124   0.000023  -0.000257   4.564897   0.383415
    18  H    0.001208  -0.000106  -0.000014  -0.000025   0.383415   0.651774
    19  H   -0.000249  -0.000017   0.000033  -0.000001   0.372904  -0.017006
    20  H   -0.000227   0.000046  -0.000013   0.000013   0.385797  -0.027072
    21  C    0.000426   0.001122   0.000020   0.000063   0.010205  -0.000333
    22  H   -0.000051  -0.000019  -0.000021  -0.000003  -0.001011   0.000156
    23  H   -0.000058  -0.000024   0.000007  -0.000003  -0.000481  -0.000016
    24  H    0.000041  -0.000083   0.000002  -0.000002   0.006537   0.000311
              19         20         21         22         23         24
     1  C   -0.001144  -0.023835  -0.196868   0.000917   0.018867  -0.006078
     2  C   -0.018796  -0.012463   0.425959  -0.007599  -0.014934   0.002489
     3  O    0.000006   0.000042  -0.087754   0.001901   0.013048   0.002431
     4  C    0.005731   0.000126   0.007549   0.000643  -0.000242  -0.000292
     5  C   -0.000052   0.000970  -0.000095  -0.000002  -0.000003   0.000141
     6  H   -0.000002   0.000038  -0.000000   0.000000   0.000000  -0.000001
     7  H    0.000130  -0.000666   0.000130   0.000034  -0.000058  -0.000469
     8  H    0.000002  -0.000009  -0.000036   0.000001   0.000001   0.000007
     9  N   -0.000315   0.002863  -0.000100  -0.000010   0.000004   0.000042
    10  H   -0.000124  -0.000165  -0.000027   0.000002   0.000000  -0.000004
    11  H    0.000017  -0.000119   0.000009   0.000000  -0.000000  -0.000001
    12  Cl   0.001313   0.000010  -0.000112   0.000013   0.000002  -0.000001
    13  C   -0.000249  -0.000227   0.000426  -0.000051  -0.000058   0.000041
    14  H   -0.000017   0.000046   0.001122  -0.000019  -0.000024  -0.000083
    15  H    0.000033  -0.000013   0.000020  -0.000021   0.000007   0.000002
    16  H   -0.000001   0.000013   0.000063  -0.000003  -0.000003  -0.000002
    17  C    0.372904   0.385797   0.010205  -0.001011  -0.000481   0.006537
    18  H   -0.017006  -0.027072  -0.000333   0.000156  -0.000016   0.000311
    19  H    0.647484  -0.029250   0.010659   0.001457   0.000056  -0.003362
    20  H   -0.029250   0.682686   0.002829  -0.001343   0.000069   0.001500
    21  C    0.010659   0.002829   4.780206   0.366432   0.349239   0.351543
    22  H    0.001457  -0.001343   0.366432   0.621276  -0.013198  -0.016175
    23  H    0.000056   0.000069   0.349239  -0.013198   0.628616  -0.014958
    24  H   -0.003362   0.001500   0.351543  -0.016175  -0.014958   0.644144
 Mulliken charges:
               1
     1  C   -0.178061
     2  C    0.015598
     3  O   -0.353700
     4  C   -0.246959
     5  C    0.015691
     6  H    0.075709
     7  H    0.092144
     8  H    0.080396
     9  N   -0.147550
    10  H    0.176043
    11  H    0.174769
    12  Cl  -0.158548
    13  C    0.101497
    14  H    0.067545
    15  H    0.072619
    16  H    0.024649
    17  C    0.029597
    18  H    0.018014
    19  H    0.030527
    20  H    0.018176
    21  C   -0.021065
    22  H    0.046601
    23  H    0.034066
    24  H    0.032240
 Sum of Mulliken charges =  -0.00000
 Mulliken charges with hydrogens summed into heavy atoms:
               1
     1  C   -0.178061
     2  C    0.015598
     3  O   -0.353700
     4  C   -0.246959
     5  C    0.263940
     9  N    0.203263
    12  Cl  -0.158548
    13  C    0.266311
    17  C    0.096313
    21  C    0.091842
 Electronic spatial extent (au):  <R**2>=           1844.8043
 Charge=             -0.0000 electrons
 Dipole moment (field-independent basis, Debye):
    X=              4.9616    Y=              2.7813    Z=             -4.8832  Tot=              7.4965
 Quadrupole moment (field-independent basis, Debye-Ang):
   XX=            -70.4233   YY=            -66.8965   ZZ=            -67.6846
   XY=             10.8650   XZ=              1.0697   YZ=             -4.9407
 Traceless Quadrupole moment (field-independent basis, Debye-Ang):
   XX=             -2.0885   YY=              1.4383   ZZ=              0.6502
   XY=             10.8650   XZ=              1.0697   YZ=             -4.9407
 Octapole moment (field-independent basis, Debye-Ang**2):
  XXX=             31.3971  YYY=             16.7768  ZZZ=             -8.0321  XYY=             11.3791
  XXY=              4.1583  XXZ=            -18.2734  XZZ=             17.7767  YZZ=              4.3556
  YYZ=             -7.7325  XYZ=              4.0604
 Hexadecapole moment (field-independent basis, Debye-Ang**3):
 XXXX=          -1251.1903 YYYY=           -615.3898 ZZZZ=           -475.1074 XXXY=             29.5856
 XXXZ=             -8.2004 YYYX=              9.1802 YYYZ=            -19.3747 ZZZX=            -10.9486
 ZZZY=            -23.4312 XXYY=           -313.2924 XXZZ=           -300.0376 YYZZ=           -186.6066
 XXYZ=            -18.5898 YYXZ=             -4.1014 ZZXY=              9.5507
 N-N= 6.706532728871D+02 E-N=-3.375351843212D+03  KE= 8.592686922484D+02
 Unable to Open any file for archive entry.
 1\1\GINC-NODE-006\FTS\RwB97XD\def2SVP\C7H14Cl1N1O1\JP2658\18-Dec-2023\
 0\\# wb97xd def2svp scrf=(iefpcm,solvent=toluene) opt=(calcfc,ts,noeig
 en,maxcycles=50,maxstep=10)\\TS-898.out\\0,1\C,-0.620588019,-0.2677345
 769,-0.2925178836\C,-1.8827468244,0.0872009174,0.3098236083\O,-2.04790
 05928,0.579056092,1.4323089973\C,0.595200805,-0.0544107006,0.396061211
 6\C,0.7562704984,2.5326969561,-0.4092814578\H,1.146720449,3.2296033162
 ,-1.1623414955\H,-0.2932359952,2.2900996693,-0.633892285\H,0.810255600
 9,2.9968367522,0.5821727507\N,1.5053332202,1.2788748391,-0.4043436857\
 H,1.6506538956,0.9276207654,-1.3525344064\H,2.429428197,1.3669812709,0
 .0233469288\Cl,1.9160645363,-1.330869319,0.1017676377\C,0.6500627828,0
 .3387118648,1.8495841181\H,0.0349924194,1.2263487915,2.030721747\H,0.2
 117266605,-0.4676456037,2.4515607969\H,1.6895917401,0.4958374881,2.169
 9870432\C,-0.5900292276,-0.7813457595,-1.7175892896\H,0.4182895835,-1.
 1169377576,-1.9982315535\H,-1.2496750224,-1.6512229871,-1.8682834049\H
 ,-0.9019000007,-0.022349967,-2.4593744451\C,-3.1288258077,-0.181716232
 5,-0.5342132035\H,-3.2346513448,-1.2544094449,-0.7598580885\H,-4.00702
 09403,0.1547930672,0.0307140928\H,-3.0926366138,0.3472205586,-1.499257
 7333\\Version=ES64L-G16RevC.01\State=1-A\HF=-864.7378439\RMSD=8.443e-0
 9\RMSF=4.744e-06\Dipole=2.0764488,1.6090878,-1.3408854\Quadrupole=-1.3
 765572,2.8229032,-1.4463459,7.6159259,3.3937883,-2.4028672\PG=C01 [X(C
 7H14Cl1N1O1)]\\@
 The archive entry for this job was punched.


 Standing in the middle of the road is very dangerous;
 you get knocked down by the traffic from both sides.
                                -- Margaret Thatcher
 Job cpu time:       0 days  3 hours 50 minutes 43.9 seconds.
 Elapsed time:       0 days  0 hours 19 minutes 43.8 seconds.
 File lengths (MBytes):  RWF=    188 Int=      0 D2E=      0 Chk=     11 Scr=      1
 Normal termination of Gaussian 16 at Mon Dec 18 20:50:15 2023.
