Unloading slurm/anatra/current
  ERROR: No such file or directory on
    '/cm/local/modulefiles/slurm/anatra/current'
environment: line 0: unalias: gv: not found
environment: line 0: unalias: sl: not found
 Entering Gaussian System, Link 0=g16
 Initial command:
 /apps/gaussian/g16/C.01/g16/l1.exe "/local/jobs/1150748/Gau-721697.inp" -scrdir="/local/jobs/1150748/"
 Entering Link 1 = /apps/gaussian/g16/C.01/g16/l1.exe PID=    721700.
  
 Copyright (c) 1988-2019, Gaussian, Inc.  All Rights Reserved.
  
 This is part of the Gaussian(R) 16 program.  It is based on
 the Gaussian(R) 09 system (copyright 2009, Gaussian, Inc.),
 the Gaussian(R) 03 system (copyright 2003, Gaussian, Inc.),
 the Gaussian(R) 98 system (copyright 1998, Gaussian, Inc.),
 the Gaussian(R) 94 system (copyright 1995, Gaussian, Inc.),
 the Gaussian 92(TM) system (copyright 1992, Gaussian, Inc.),
 the Gaussian 90(TM) system (copyright 1990, Gaussian, Inc.),
 the Gaussian 88(TM) system (copyright 1988, Gaussian, Inc.),
 the Gaussian 86(TM) system (copyright 1986, Carnegie Mellon
 University), and the Gaussian 82(TM) system (copyright 1983,
 Carnegie Mellon University). Gaussian is a federally registered
 trademark of Gaussian, Inc.
  
 This software contains proprietary and confidential information,
 including trade secrets, belonging to Gaussian, Inc.
  
 This software is provided under written license and may be
 used, copied, transmitted, or stored only in accord with that
 written license.
  
 The following legend is applicable only to US Government
 contracts under FAR:
  
                    RESTRICTED RIGHTS LEGEND
  
 Use, reproduction and disclosure by the US Government is
 subject to restrictions as set forth in subparagraphs (a)
 and (c) of the Commercial Computer Software - Restricted
 Rights clause in FAR 52.227-19.
  
 Gaussian, Inc.
 340 Quinnipiac St., Bldg. 40, Wallingford CT 06492
  
  
 ---------------------------------------------------------------
 Warning -- This program may not be used in any manner that
 competes with the business of Gaussian, Inc. or will provide
 assistance to any competitor of Gaussian, Inc.  The licensee
 of this program is prohibited from giving any competitor of
 Gaussian, Inc. access to this program.  By using this program,
 the user acknowledges that Gaussian, Inc. is engaged in the
 business of creating and licensing software in the field of
 computational chemistry and represents and warrants to the
 licensee that it is not a competitor of Gaussian, Inc. and that
 it will not use this program in any manner prohibited above.
 ---------------------------------------------------------------
  

 Cite this work as:
 Gaussian 16, Revision C.01,
 M. J. Frisch, G. W. Trucks, H. B. Schlegel, G. E. Scuseria, 
 M. A. Robb, J. R. Cheeseman, G. Scalmani, V. Barone, 
 G. A. Petersson, H. Nakatsuji, X. Li, M. Caricato, A. V. Marenich, 
 J. Bloino, B. G. Janesko, R. Gomperts, B. Mennucci, H. P. Hratchian, 
 J. V. Ortiz, A. F. Izmaylov, J. L. Sonnenberg, D. Williams-Young, 
 F. Ding, F. Lipparini, F. Egidi, J. Goings, B. Peng, A. Petrone, 
 T. Henderson, D. Ranasinghe, V. G. Zakrzewski, J. Gao, N. Rega, 
 G. Zheng, W. Liang, M. Hada, M. Ehara, K. Toyota, R. Fukuda, 
 J. Hasegawa, M. Ishida, T. Nakajima, Y. Honda, O. Kitao, H. Nakai, 
 T. Vreven, K. Throssell, J. A. Montgomery, Jr., J. E. Peralta, 
 F. Ogliaro, M. J. Bearpark, J. J. Heyd, E. N. Brothers, K. N. Kudin, 
 V. N. Staroverov, T. A. Keith, R. Kobayashi, J. Normand, 
 K. Raghavachari, A. P. Rendell, J. C. Burant, S. S. Iyengar, 
 J. Tomasi, M. Cossi, J. M. Millam, M. Klene, C. Adamo, R. Cammi, 
 J. W. Ochterski, R. L. Martin, K. Morokuma, O. Farkas, 
 J. B. Foresman, and D. J. Fox, Gaussian, Inc., Wallingford CT, 2019.
 
 ******************************************
 Gaussian 16:  ES64L-G16RevC.01  3-Jul-2019
                18-Dec-2023 
 ******************************************
 %chk=TS-92_opt_dft.chk
 %nprocshared=12
 Will use up to   12 processors via shared memory.
 %mem=48GB
 ----------------------------------------------------------------------
 # wb97xd def2svp scrf=(iefpcm,solvent=toluene) opt=(calcfc,ts,noeigen,
 maxcycles=50,maxstep=10)
 ----------------------------------------------------------------------
 1/5=1,6=50,8=10,10=4,11=1,18=20,26=3,38=1/1,3;
 2/9=110,12=2,17=6,18=5,40=1/2;
 3/5=43,7=101,11=2,25=1,30=1,70=2201,71=2,72=13,74=-58,140=1/1,2,3;
 4//1;
 5/5=2,38=5,53=13/2;
 8/6=4,10=90,11=11/1;
 11/6=1,8=1,9=11,15=111,16=1/1,2,10;
 10/6=1,13=1/2;
 6/7=2,8=2,9=2,10=2,28=1/1;
 7/10=1,25=1/1,2,3,16;
 1/5=1,6=50,8=10,10=4,11=1,18=20,26=3/3(2);
 2/9=110/2;
 99//99;
 2/9=110/2;
 3/5=43,7=101,11=2,25=1,30=1,70=2205,71=1,72=13,74=-58/1,2,3;
 4/5=5,16=3,69=1/1;
 5/5=2,38=5,53=13/2;
 7//1,2,3,16;
 1/5=1,6=50,8=10,11=1,18=20,26=3/3(-5);
 2/9=110/2;
 6/7=2,8=2,9=2,10=2,19=2,28=1/1;
 99/9=1/99;
 ---------
 TS-92.out
 ---------
 Symbolic Z-matrix:
 Charge =  0 Multiplicity = 1
 C                    -0.87928  -0.55459  -0.05744 
 C                    -2.31097  -0.56698   0.32688 
 O                    -2.83902   0.06048   1.22807 
 C                     0.05462   0.36056   0.34941 
 C                    -1.20942   2.68407  -1.2147 
 H                    -1.44793   3.29597  -0.34076 
 H                    -0.91365   3.34572  -2.03408 
 H                    -2.10567   2.13353  -1.51308 
 N                    -0.12177   1.7467   -0.90187 
 H                     0.12756   1.30557  -1.791 
 H                     0.70184   2.32093  -0.68976 
 C                     1.51057  -0.0897    0.14733 
 C                     1.9577   -0.60853  -1.08451 
 C                     3.28398  -1.01261  -1.2681 
 C                     4.19459  -0.90894  -0.22219 
 C                     3.77842  -0.4034    1.00528 
 C                     2.45111   0.00129   1.18729 
 H                     1.2763   -0.69856  -1.92641 
 H                     3.60229  -1.40804  -2.22904 
 H                     5.22512  -1.22389  -0.36147 
 H                     4.48414  -0.32546   1.82841 
 H                     2.16858   0.37496   2.16756 
 C                    -0.22294   1.22946   1.59871 
 H                    -1.17748   1.76087   1.54145 
 H                    -0.23226   0.60478   2.49917 
 H                     0.54738   1.99946   1.72671 
 H                    -0.61136  -1.35703  -0.73568 
 O                    -2.94387  -1.43371  -0.51091 
 C                    -4.34328  -1.55744  -0.25809 
 H                    -4.75678  -2.26592  -0.98121 
 H                    -4.51844  -1.94929   0.74876 
 H                    -4.84479  -0.59384  -0.39285 
 
 Add virtual bond connecting atoms N9         and C4         Dist= 3.54D+00.

 GradGradGradGradGradGradGradGradGradGradGradGradGradGradGradGradGradGrad
 Berny optimization.
 Initialization pass.
                           ----------------------------
                           !    Initial Parameters    !
                           ! (Angstroms and Degrees)  !
 --------------------------                            --------------------------
 ! Name  Definition              Value          Derivative Info.                !
 --------------------------------------------------------------------------------
 ! R1    R(1,2)                  1.4824         calculate D2E/DX2 analytically  !
 ! R2    R(1,4)                  1.3694         calculate D2E/DX2 analytically  !
 ! R3    R(1,27)                 1.0843         calculate D2E/DX2 analytically  !
 ! R4    R(2,3)                  1.2185         calculate D2E/DX2 analytically  !
 ! R5    R(2,28)                 1.3615         calculate D2E/DX2 analytically  !
 ! R6    R(4,9)                  1.8757         calculate D2E/DX2 analytically  !
 ! R7    R(4,12)                 1.5373         calculate D2E/DX2 analytically  !
 ! R8    R(4,23)                 1.5469         calculate D2E/DX2 analytically  !
 ! R9    R(5,6)                  1.0932         calculate D2E/DX2 analytically  !
 ! R10   R(5,7)                  1.0939         calculate D2E/DX2 analytically  !
 ! R11   R(5,8)                  1.0933         calculate D2E/DX2 analytically  !
 ! R12   R(5,9)                  1.4695         calculate D2E/DX2 analytically  !
 ! R13   R(9,10)                 1.0234         calculate D2E/DX2 analytically  !
 ! R14   R(9,11)                 1.0262         calculate D2E/DX2 analytically  !
 ! R15   R(12,13)                1.4094         calculate D2E/DX2 analytically  !
 ! R16   R(12,17)                1.4051         calculate D2E/DX2 analytically  !
 ! R17   R(13,14)                1.3986         calculate D2E/DX2 analytically  !
 ! R18   R(13,18)                1.0868         calculate D2E/DX2 analytically  !
 ! R19   R(14,15)                1.3906         calculate D2E/DX2 analytically  !
 ! R20   R(14,19)                1.0868         calculate D2E/DX2 analytically  !
 ! R21   R(15,16)                1.3912         calculate D2E/DX2 analytically  !
 ! R22   R(15,20)                1.0865         calculate D2E/DX2 analytically  !
 ! R23   R(16,17)                1.3995         calculate D2E/DX2 analytically  !
 ! R24   R(16,21)                1.087          calculate D2E/DX2 analytically  !
 ! R25   R(17,22)                1.0865         calculate D2E/DX2 analytically  !
 ! R26   R(23,24)                1.094          calculate D2E/DX2 analytically  !
 ! R27   R(23,25)                1.096          calculate D2E/DX2 analytically  !
 ! R28   R(23,26)                1.0967         calculate D2E/DX2 analytically  !
 ! R29   R(28,29)                1.4274         calculate D2E/DX2 analytically  !
 ! R30   R(29,30)                1.0935         calculate D2E/DX2 analytically  !
 ! R31   R(29,31)                1.0945         calculate D2E/DX2 analytically  !
 ! R32   R(29,32)                1.0946         calculate D2E/DX2 analytically  !
 ! A1    A(2,1,4)              125.9591         calculate D2E/DX2 analytically  !
 ! A2    A(2,1,27)             113.2418         calculate D2E/DX2 analytically  !
 ! A3    A(4,1,27)             120.7909         calculate D2E/DX2 analytically  !
 ! A4    A(1,2,3)              127.299          calculate D2E/DX2 analytically  !
 ! A5    A(1,2,28)             107.1418         calculate D2E/DX2 analytically  !
 ! A6    A(3,2,28)             125.5545         calculate D2E/DX2 analytically  !
 ! A7    A(1,4,9)              103.3877         calculate D2E/DX2 analytically  !
 ! A8    A(1,4,12)             114.274          calculate D2E/DX2 analytically  !
 ! A9    A(1,4,23)             119.5363         calculate D2E/DX2 analytically  !
 ! A10   A(9,4,12)             102.5808         calculate D2E/DX2 analytically  !
 ! A11   A(9,4,23)              96.1304         calculate D2E/DX2 analytically  !
 ! A12   A(12,4,23)            116.1434         calculate D2E/DX2 analytically  !
 ! A13   A(6,5,7)              108.6171         calculate D2E/DX2 analytically  !
 ! A14   A(6,5,8)              108.7339         calculate D2E/DX2 analytically  !
 ! A15   A(6,5,9)              110.3856         calculate D2E/DX2 analytically  !
 ! A16   A(7,5,8)              108.771          calculate D2E/DX2 analytically  !
 ! A17   A(7,5,9)              110.1911         calculate D2E/DX2 analytically  !
 ! A18   A(8,5,9)              110.0975         calculate D2E/DX2 analytically  !
 ! A19   A(4,9,5)              133.0789         calculate D2E/DX2 analytically  !
 ! A20   A(4,9,10)             103.7763         calculate D2E/DX2 analytically  !
 ! A21   A(4,9,11)             101.5466         calculate D2E/DX2 analytically  !
 ! A22   A(5,9,10)             105.6836         calculate D2E/DX2 analytically  !
 ! A23   A(5,9,11)             106.3253         calculate D2E/DX2 analytically  !
 ! A24   A(10,9,11)            103.0175         calculate D2E/DX2 analytically  !
 ! A25   A(4,12,13)            121.5435         calculate D2E/DX2 analytically  !
 ! A26   A(4,12,17)            121.1764         calculate D2E/DX2 analytically  !
 ! A27   A(13,12,17)           117.2801         calculate D2E/DX2 analytically  !
 ! A28   A(12,13,14)           121.4613         calculate D2E/DX2 analytically  !
 ! A29   A(12,13,18)           120.572          calculate D2E/DX2 analytically  !
 ! A30   A(14,13,18)           117.965          calculate D2E/DX2 analytically  !
 ! A31   A(13,14,15)           120.0462         calculate D2E/DX2 analytically  !
 ! A32   A(13,14,19)           119.9305         calculate D2E/DX2 analytically  !
 ! A33   A(15,14,19)           120.0233         calculate D2E/DX2 analytically  !
 ! A34   A(14,15,16)           119.6562         calculate D2E/DX2 analytically  !
 ! A35   A(14,15,20)           120.201          calculate D2E/DX2 analytically  !
 ! A36   A(16,15,20)           120.1425         calculate D2E/DX2 analytically  !
 ! A37   A(15,16,17)           120.2339         calculate D2E/DX2 analytically  !
 ! A38   A(15,16,21)           119.9966         calculate D2E/DX2 analytically  !
 ! A39   A(17,16,21)           119.769          calculate D2E/DX2 analytically  !
 ! A40   A(12,17,16)           121.3218         calculate D2E/DX2 analytically  !
 ! A41   A(12,17,22)           121.0633         calculate D2E/DX2 analytically  !
 ! A42   A(16,17,22)           117.6084         calculate D2E/DX2 analytically  !
 ! A43   A(4,23,24)            112.777          calculate D2E/DX2 analytically  !
 ! A44   A(4,23,25)            110.177          calculate D2E/DX2 analytically  !
 ! A45   A(4,23,26)            111.2615         calculate D2E/DX2 analytically  !
 ! A46   A(24,23,25)           108.2072         calculate D2E/DX2 analytically  !
 ! A47   A(24,23,26)           106.1367         calculate D2E/DX2 analytically  !
 ! A48   A(25,23,26)           108.0759         calculate D2E/DX2 analytically  !
 ! A49   A(2,28,29)            113.6984         calculate D2E/DX2 analytically  !
 ! A50   A(28,29,30)           108.0438         calculate D2E/DX2 analytically  !
 ! A51   A(28,29,31)           110.5394         calculate D2E/DX2 analytically  !
 ! A52   A(28,29,32)           110.5517         calculate D2E/DX2 analytically  !
 ! A53   A(30,29,31)           108.4114         calculate D2E/DX2 analytically  !
 ! A54   A(30,29,32)           108.4017         calculate D2E/DX2 analytically  !
 ! A55   A(31,29,32)           110.7988         calculate D2E/DX2 analytically  !
 ! D1    D(4,1,2,3)            -14.2205         calculate D2E/DX2 analytically  !
 ! D2    D(4,1,2,28)           166.5336         calculate D2E/DX2 analytically  !
 ! D3    D(27,1,2,3)           166.8222         calculate D2E/DX2 analytically  !
 ! D4    D(27,1,2,28)          -12.4237         calculate D2E/DX2 analytically  !
 ! D5    D(2,1,4,9)            -86.5301         calculate D2E/DX2 analytically  !
 ! D6    D(2,1,4,12)           162.8021         calculate D2E/DX2 analytically  !
 ! D7    D(2,1,4,23)            18.601          calculate D2E/DX2 analytically  !
 ! D8    D(27,1,4,9)            92.3545         calculate D2E/DX2 analytically  !
 ! D9    D(27,1,4,12)          -18.3133         calculate D2E/DX2 analytically  !
 ! D10   D(27,1,4,23)         -162.5144         calculate D2E/DX2 analytically  !
 ! D11   D(1,2,28,29)          179.7825         calculate D2E/DX2 analytically  !
 ! D12   D(3,2,28,29)            0.5198         calculate D2E/DX2 analytically  !
 ! D13   D(1,4,9,5)             65.0384         calculate D2E/DX2 analytically  !
 ! D14   D(1,4,9,10)           -62.575          calculate D2E/DX2 analytically  !
 ! D15   D(1,4,9,11)          -169.2416         calculate D2E/DX2 analytically  !
 ! D16   D(12,4,9,5)          -175.8772         calculate D2E/DX2 analytically  !
 ! D17   D(12,4,9,10)           56.5093         calculate D2E/DX2 analytically  !
 ! D18   D(12,4,9,11)          -50.1572         calculate D2E/DX2 analytically  !
 ! D19   D(23,4,9,5)           -57.3207         calculate D2E/DX2 analytically  !
 ! D20   D(23,4,9,10)          175.0659         calculate D2E/DX2 analytically  !
 ! D21   D(23,4,9,11)           68.3993         calculate D2E/DX2 analytically  !
 ! D22   D(1,4,12,13)           49.5163         calculate D2E/DX2 analytically  !
 ! D23   D(1,4,12,17)         -130.5307         calculate D2E/DX2 analytically  !
 ! D24   D(9,4,12,13)          -61.6384         calculate D2E/DX2 analytically  !
 ! D25   D(9,4,12,17)          118.3146         calculate D2E/DX2 analytically  !
 ! D26   D(23,4,12,13)        -165.0197         calculate D2E/DX2 analytically  !
 ! D27   D(23,4,12,17)          14.9333         calculate D2E/DX2 analytically  !
 ! D28   D(1,4,23,24)          -53.5296         calculate D2E/DX2 analytically  !
 ! D29   D(1,4,23,25)           67.4902         calculate D2E/DX2 analytically  !
 ! D30   D(1,4,23,26)         -172.6623         calculate D2E/DX2 analytically  !
 ! D31   D(9,4,23,24)           55.6488         calculate D2E/DX2 analytically  !
 ! D32   D(9,4,23,25)          176.6686         calculate D2E/DX2 analytically  !
 ! D33   D(9,4,23,26)          -63.4839         calculate D2E/DX2 analytically  !
 ! D34   D(12,4,23,24)         162.9115         calculate D2E/DX2 analytically  !
 ! D35   D(12,4,23,25)         -76.0687         calculate D2E/DX2 analytically  !
 ! D36   D(12,4,23,26)          43.7788         calculate D2E/DX2 analytically  !
 ! D37   D(6,5,9,4)             60.5083         calculate D2E/DX2 analytically  !
 ! D38   D(6,5,9,10)          -172.5369         calculate D2E/DX2 analytically  !
 ! D39   D(6,5,9,11)           -63.509          calculate D2E/DX2 analytically  !
 ! D40   D(7,5,9,4)           -179.5226         calculate D2E/DX2 analytically  !
 ! D41   D(7,5,9,10)           -52.5678         calculate D2E/DX2 analytically  !
 ! D42   D(7,5,9,11)            56.4601         calculate D2E/DX2 analytically  !
 ! D43   D(8,5,9,4)            -59.546          calculate D2E/DX2 analytically  !
 ! D44   D(8,5,9,10)            67.4088         calculate D2E/DX2 analytically  !
 ! D45   D(8,5,9,11)           176.4367         calculate D2E/DX2 analytically  !
 ! D46   D(4,12,13,14)         179.7378         calculate D2E/DX2 analytically  !
 ! D47   D(4,12,13,18)           0.2201         calculate D2E/DX2 analytically  !
 ! D48   D(17,12,13,14)         -0.217          calculate D2E/DX2 analytically  !
 ! D49   D(17,12,13,18)       -179.7347         calculate D2E/DX2 analytically  !
 ! D50   D(4,12,17,16)        -179.7762         calculate D2E/DX2 analytically  !
 ! D51   D(4,12,17,22)           1.1756         calculate D2E/DX2 analytically  !
 ! D52   D(13,12,17,16)          0.1788         calculate D2E/DX2 analytically  !
 ! D53   D(13,12,17,22)       -178.8694         calculate D2E/DX2 analytically  !
 ! D54   D(12,13,14,15)          0.0946         calculate D2E/DX2 analytically  !
 ! D55   D(12,13,14,19)       -179.9218         calculate D2E/DX2 analytically  !
 ! D56   D(18,13,14,15)        179.6245         calculate D2E/DX2 analytically  !
 ! D57   D(18,13,14,19)         -0.392          calculate D2E/DX2 analytically  !
 ! D58   D(13,14,15,16)          0.0735         calculate D2E/DX2 analytically  !
 ! D59   D(13,14,15,20)        179.8832         calculate D2E/DX2 analytically  !
 ! D60   D(19,14,15,16)       -179.9101         calculate D2E/DX2 analytically  !
 ! D61   D(19,14,15,20)         -0.1003         calculate D2E/DX2 analytically  !
 ! D62   D(14,15,16,17)         -0.1111         calculate D2E/DX2 analytically  !
 ! D63   D(14,15,16,21)        179.6361         calculate D2E/DX2 analytically  !
 ! D64   D(20,15,16,17)       -179.9209         calculate D2E/DX2 analytically  !
 ! D65   D(20,15,16,21)         -0.1738         calculate D2E/DX2 analytically  !
 ! D66   D(15,16,17,12)         -0.0186         calculate D2E/DX2 analytically  !
 ! D67   D(15,16,17,22)        179.0614         calculate D2E/DX2 analytically  !
 ! D68   D(21,16,17,12)       -179.7662         calculate D2E/DX2 analytically  !
 ! D69   D(21,16,17,22)         -0.6863         calculate D2E/DX2 analytically  !
 ! D70   D(2,28,29,30)         179.6925         calculate D2E/DX2 analytically  !
 ! D71   D(2,28,29,31)         -61.8324         calculate D2E/DX2 analytically  !
 ! D72   D(2,28,29,32)          61.222          calculate D2E/DX2 analytically  !
 --------------------------------------------------------------------------------
 Trust Radius=1.00D-01 FncErr=1.00D-07 GrdErr=1.00D-06 EigMax=2.50D+02 EigMin=1.00D-04
 Number of steps in this run=     50 maximum allowed number of steps=    192.
 Search for a saddle point of order  1.
 GradGradGradGradGradGradGradGradGradGradGradGradGradGradGradGradGradGrad

                          Input orientation:                          
 ---------------------------------------------------------------------
 Center     Atomic      Atomic             Coordinates (Angstroms)
 Number     Number       Type             X           Y           Z
 ---------------------------------------------------------------------
      1          6           0       -0.879280   -0.554590   -0.057440
      2          6           0       -2.310970   -0.566980    0.326880
      3          8           0       -2.839020    0.060480    1.228070
      4          6           0        0.054620    0.360560    0.349410
      5          6           0       -1.209420    2.684070   -1.214700
      6          1           0       -1.447930    3.295970   -0.340760
      7          1           0       -0.913650    3.345720   -2.034080
      8          1           0       -2.105670    2.133530   -1.513080
      9          7           0       -0.121770    1.746700   -0.901870
     10          1           0        0.127560    1.305570   -1.791000
     11          1           0        0.701840    2.320930   -0.689760
     12          6           0        1.510570   -0.089700    0.147330
     13          6           0        1.957700   -0.608530   -1.084510
     14          6           0        3.283980   -1.012610   -1.268100
     15          6           0        4.194590   -0.908940   -0.222190
     16          6           0        3.778420   -0.403400    1.005280
     17          6           0        2.451110    0.001290    1.187290
     18          1           0        1.276300   -0.698560   -1.926410
     19          1           0        3.602290   -1.408040   -2.229040
     20          1           0        5.225120   -1.223890   -0.361470
     21          1           0        4.484140   -0.325460    1.828410
     22          1           0        2.168580    0.374960    2.167560
     23          6           0       -0.222940    1.229460    1.598710
     24          1           0       -1.177480    1.760870    1.541450
     25          1           0       -0.232260    0.604780    2.499170
     26          1           0        0.547380    1.999460    1.726710
     27          1           0       -0.611360   -1.357030   -0.735680
     28          8           0       -2.943870   -1.433710   -0.510910
     29          6           0       -4.343280   -1.557440   -0.258090
     30          1           0       -4.756780   -2.265920   -0.981210
     31          1           0       -4.518440   -1.949290    0.748760
     32          1           0       -4.844790   -0.593840   -0.392850
 ---------------------------------------------------------------------
                    Distance matrix (angstroms):
                    1          2          3          4          5
     1  C    0.000000
     2  C    1.482428   0.000000
     3  O    2.423103   1.218477   0.000000
     4  C    1.369378   2.541034   3.038954   0.000000
     5  C    3.455020   3.762872   3.937759   3.072936   0.000000
     6  H    3.902620   4.014096   3.855484   3.369069   1.093197
     7  H    4.372723   4.778688   5.014127   3.940781   1.093912
     8  H    3.293768   3.274195   3.514149   3.358444   1.093338
     9  N    2.565701   3.414021   3.842321   1.875686   1.469526
    10  H    2.734804   3.733402   4.411987   2.340880   2.004969
    11  H    3.341913   4.295417   4.617943   2.311237   2.015030
    12  C    2.443243   3.855412   4.484360   1.537323   4.116706
    13  C    3.017654   4.496142   5.366947   2.572348   4.570428
    14  C    4.359841   5.834896   6.698770   3.864026   5.818843
    15  C    5.088896   6.537639   7.246703   4.367804   6.564916
    16  C    4.779791   6.129246   6.637419   3.857523   6.272107
    17  C    3.598590   4.872437   5.290618   2.564036   5.134817
    18  H    2.856624   4.238294   5.240491   2.791701   4.257643
    19  H    5.052593   6.496672   7.456449   4.728881   6.397406
    20  H    6.148504   7.595921   8.319050   5.454347   7.576507
    21  H    5.689921   6.963221   7.357855   4.720033   7.122809
    22  H    3.886404   4.933733   5.104664   2.788316   5.308724
    23  C    2.521200   3.033911   2.889250   1.546860   3.317274
    24  H    2.829616   2.859872   2.397968   2.213571   2.906834
    25  H    2.880803   3.226903   2.950789   2.182524   4.367049
    26  H    3.426620   4.088558   3.933954   2.196761   3.493842
    27  H    1.084297   2.154504   3.290611   2.138005   4.113104
    28  O    2.289327   1.361497   2.295136   3.598680   4.523245
    29  C    3.611823   2.335270   2.662543   4.836249   5.359719
    30  H    4.337857   3.252612   3.737761   5.640790   6.094316
    31  H    3.979778   2.638501   2.662586   5.138849   6.022692
    32  H    3.979863   2.634194   2.660569   5.046390   4.963471
                    6          7          8          9         10
     6  H    0.000000
     7  H    1.776306   0.000000
     8  H    1.777139   1.778133   0.000000
     9  N    2.115132   2.113253   2.111652   0.000000
    10  H    2.923535   2.303349   2.397931   1.023383   0.000000
    11  H    2.386214   2.338204   2.931738   1.026189   1.604208
    12  C    4.522578   4.736824   4.558169   2.671651   2.759822
    13  C    5.234176   4.978195   4.920726   3.147167   2.740861
    14  C    6.466436   6.099333   6.245522   4.398528   3.950996
    15  C    7.037994   6.890515   7.114513   5.113253   4.889371
    16  C    6.543080   6.731206   6.884814   4.844753   4.905970
    17  C    5.328449   5.734461   5.709876   3.745765   3.996279
    18  H    5.088417   4.600399   4.430496   2.997262   2.313974
    19  H    7.155280   6.559722   6.755451   5.057903   4.430497
    20  H    8.059725   7.833483   8.144873   6.140494   5.867439
    21  H    7.280763   7.585020   7.787027   5.741314   5.894080
    22  H    5.282340   5.998278   5.908375   4.068018   4.549944
    23  C    3.087492   4.260610   3.747700   2.555518   3.408633
    24  H    2.443847   3.919920   3.214120   2.661679   3.607721
    25  H    4.097018   5.341105   4.684538   3.589326   4.361896
    26  H    3.152242   4.253301   4.189617   2.724166   3.609988
    27  H    4.744072   4.888055   3.875735   3.146499   2.957895
    28  O    4.963533   5.411542   3.798964   4.269907   4.309985
    29  C    5.652033   6.241593   4.495015   5.399346   5.525853
    30  H    6.503329   6.882491   5.163955   6.131128   6.104759
    31  H    6.174774   6.983970   5.254217   5.976255   6.215288
    32  H    5.164493   5.802381   4.024455   5.295672   5.503349
                   11         12         13         14         15
    11  H    0.000000
    12  C    2.676920   0.000000
    13  C    3.211658   1.409447   0.000000
    14  C    4.256103   2.449528   1.398572   0.000000
    15  C    4.780166   2.830488   2.416096   1.390642   0.000000
    16  C    4.445276   2.444919   2.779266   2.404967   1.391205
    17  C    3.458900   1.405138   2.403416   2.783991   2.419685
    18  H    3.313099   2.173934   1.086833   2.136066   3.386007
    19  H    4.968623   3.429351   2.157276   1.086780   2.151132
    20  H    5.756178   3.917033   3.402571   2.152822   1.086547
    21  H    5.258360   3.423993   3.866281   3.391303   2.151569
    22  H    3.755317   2.174906   3.404068   3.869525   3.385856
    23  C    2.698818   2.617584   3.915746   5.054104   5.234788
    24  H    2.970490   3.548773   4.726423   5.957381   6.252795
    25  H    3.739918   3.008473   4.371591   5.401131   5.412407
    26  H    2.442648   2.790478   4.085777   5.052765   5.055605
    27  H    3.905636   2.624580   2.698519   3.946615   4.854030
    28  O    5.236460   4.699115   5.003531   6.287828   7.163543
    29  C    6.378192   6.048652   6.425399   7.713109   8.562538
    30  H    7.135872   6.729726   6.916781   8.142906   9.085402
    31  H    6.896045   6.337883   6.862864   8.113128   8.828475
    32  H    6.272890   6.398168   6.837578   8.186473   9.046480
                   16         17         18         19         20
    16  C    0.000000
    17  C    1.399519   0.000000
    18  H    3.865557   3.400749   0.000000
    19  H    3.391334   3.870754   2.450546   0.000000
    20  H    2.152708   3.405122   4.279975   2.480989   0.000000
    21  H    1.087041   2.156620   4.952587   4.290983   2.480283
    22  H    2.132680   1.086454   4.325413   4.956279   4.277236
    23  C    4.362255   2.971231   4.288526   6.020005   6.288290
    24  H    5.434380   4.048236   4.908756   6.863293   7.315954
    25  H    4.397009   3.047245   4.853886   6.411801   6.427308
    26  H    4.090699   2.812089   4.599557   6.049090   6.052415
    27  H    4.817730   3.862845   2.326947   4.470746   5.849979
    28  O    6.967751   5.835145   4.511532   6.767927   8.173050
    29  C    8.299995   7.119164   5.924580   8.187738   9.574770
    30  H    8.959060   7.861063   6.304607   8.495121  10.055259
    31  H    8.443546   7.250634   6.503835   8.666401   9.833401
    32  H    8.737894   7.488737   6.311142   8.682608  10.089650
                   21         22         23         24         25
    21  H    0.000000
    22  H    2.442832   0.000000
    23  C    4.962574   2.602523   0.000000
    24  H    6.040618   3.675443   1.093994   0.000000
    25  H    4.853833   2.434505   1.095965   1.774038   0.000000
    26  H    4.573147   2.337015   1.096666   1.751111   1.774730
    27  H    5.796793   4.376832   3.505735   3.902193   3.802193
    28  O    7.866128   6.048358   4.352750   4.187799   4.535290
    29  C    9.153939   7.212646   5.309588   4.926643   5.401682
    30  H    9.851596   8.052926   6.279281   5.948970   6.389464
    31  H    9.211347   7.220206   5.410932   5.055260   5.287584
    32  H    9.593485   7.528720   5.352778   4.768159   5.574576
                   26         27         28         29         30
    26  H    0.000000
    27  H    4.321119   0.000000
    28  O    5.383533   2.344569   0.000000
    29  C    6.364709   3.767689   1.427437   0.000000
    30  H    7.325327   4.250985   2.049487   1.093540   0.000000
    31  H    6.497041   4.221328   2.081313   1.094520   1.774784
    32  H    6.347695   4.315312   2.081542   1.094622   1.774758
                   31         32
    31  H    0.000000
    32  H    1.801950   0.000000
 Stoichiometry    C12H17NO2
 Framework group  C1[X(C12H17NO2)]
 Deg. of freedom    90
 Full point group                 C1      NOp   1
 Largest Abelian subgroup         C1      NOp   1
 Largest concise Abelian subgroup C1      NOp   1
                         Standard orientation:                         
 ---------------------------------------------------------------------
 Center     Atomic      Atomic             Coordinates (Angstroms)
 Number     Number       Type             X           Y           Z
 ---------------------------------------------------------------------
      1          6           0       -0.879280   -0.554589   -0.057441
      2          6           0       -2.310970   -0.566979    0.326879
      3          8           0       -2.839019    0.060481    1.228069
      4          6           0        0.054621    0.360560    0.349409
      5          6           0       -1.209419    2.684071   -1.214701
      6          1           0       -1.447929    3.295971   -0.340761
      7          1           0       -0.913649    3.345721   -2.034081
      8          1           0       -2.105669    2.133531   -1.513081
      9          7           0       -0.121769    1.746700   -0.901871
     10          1           0        0.127561    1.305570   -1.791001
     11          1           0        0.701841    2.320930   -0.689761
     12          6           0        1.510571   -0.089700    0.147329
     13          6           0        1.957700   -0.608530   -1.084511
     14          6           0        3.283980   -1.012611   -1.268101
     15          6           0        4.194590   -0.908941   -0.222191
     16          6           0        3.778420   -0.403401    1.005279
     17          6           0        2.451111    0.001290    1.187289
     18          1           0        1.276300   -0.698560   -1.926411
     19          1           0        3.602290   -1.408041   -2.229041
     20          1           0        5.225120   -1.223891   -0.361471
     21          1           0        4.484140   -0.325461    1.828409
     22          1           0        2.168581    0.374960    2.167559
     23          6           0       -0.222939    1.229460    1.598709
     24          1           0       -1.177479    1.760871    1.541449
     25          1           0       -0.232259    0.604780    2.499169
     26          1           0        0.547381    1.999460    1.726709
     27          1           0       -0.611360   -1.357029   -0.735681
     28          8           0       -2.943870   -1.433709   -0.510911
     29          6           0       -4.343280   -1.557438   -0.258091
     30          1           0       -4.756780   -2.265918   -0.981211
     31          1           0       -4.518440   -1.949288    0.748759
     32          1           0       -4.844790   -0.593838   -0.392851
 ---------------------------------------------------------------------
 Rotational constants (GHZ):           1.0108139           0.3191615           0.2988232
 Standard basis: def2SVP (5D, 7F)
 There are   310 symmetry adapted cartesian basis functions of A   symmetry.
 There are   295 symmetry adapted basis functions of A   symmetry.
   295 basis functions,   494 primitive gaussians,   310 cartesian basis functions
    56 alpha electrons       56 beta electrons
       nuclear repulsion energy       993.9113776795 Hartrees.
 NAtoms=   32 NActive=   32 NUniq=   32 SFac= 1.00D+00 NAtFMM=   60 NAOKFM=F Big=F
 Integral buffers will be    131072 words long.
 Raffenetti 2 integral format.
 Two-electron integral symmetry is turned on.
 Nuclear repulsion after empirical dispersion term =      993.8884676301 Hartrees.
 Force inversion solution in PCM.
 ------------------------------------------------------------------------------
 Polarizable Continuum Model (PCM)
 =================================
 Model                : PCM.
 Atomic radii         : UFF (Universal Force Field).
 Polarization charges : Total charges.
 Charge compensation  : None.
 Solution method      : Matrix inversion.
 Cavity type          : Scaled VdW (van der Waals Surface) (Alpha=1.100).
 Cavity algorithm     : GePol (No added spheres)
                        Default sphere list used, NSphG=   32.
                        Lebedev-Laikov grids with approx.  5.0 points / Ang**2.
                        Smoothing algorithm: York/Karplus (Gamma=1.0000).
                        Polarization charges: spherical gaussians, with
                                              point-specific exponents (IZeta= 3).
                        Self-potential: point-specific (ISelfS= 7).
                        Self-field    : sphere-specific E.n sum rule (ISelfD= 2).
 1st derivatives      : Analytical E(r).r(x)/FMM algorithm (CHGder, D1EAlg=3).
                        Cavity 1st derivative terms included.
 2nd derivatives      : Analytical E(r).r(xy)/FMM algorithm (CHGder, D2EAlg=3).
                        Cavity 2nd derivative terms included.
 Solvent              : Toluene, Eps=   2.374100 Eps(inf)=   2.238315
 ------------------------------------------------------------------------------
 One-electron integrals computed using PRISM.
   1 Symmetry operations used in ECPInt.
 ECPInt:  NShTT=   10011 NPrTT=   35491 LenC2=    9404 LenP2D=   24359.
 LDataN:  DoStor=T MaxTD1= 4 Len=   56
 NBasis=   295 RedAO= T EigKep=  2.84D-04  NBF=   295
 NBsUse=   295 1.00D-06 EigRej= -1.00D+00 NBFU=   295
 ExpMin= 1.22D-01 ExpMax= 2.27D+03 ExpMxC= 3.41D+02 IAcc=3 IRadAn=         5 AccDes= 0.00D+00
 Harris functional with IExCor= 4639 and IRadAn=       5 diagonalized for initial guess.
 HarFok:  IExCor= 4639 AccDes= 0.00D+00 IRadAn=         5 IDoV= 1 UseB2=F ITyADJ=14
 ICtDFT=  3500011 ScaDFX=  1.000000  1.000000  1.000000  1.000000
 FoFCou: FMM=F IPFlag=           0 FMFlag=      100000 FMFlg1=           0
         NFxFlg=           0 DoJE=T BraDBF=F KetDBF=T FulRan=T
         wScrn=  0.000000 ICntrl=       500 IOpCl=  0 I1Cent=   200000004 NGrid=           0
         NMat0=    1 NMatS0=      1 NMatT0=    0 NMatD0=    1 NMtDS0=    0 NMtDT0=    0
 Petite list used in FoFCou.
 Requested convergence on RMS density matrix=1.00D-08 within 128 cycles.
 Requested convergence on MAX density matrix=1.00D-06.
 Requested convergence on             energy=1.00D-06.
 No special actions if energy rises.
 Inv3:  Mode=1 IEnd=    15787308.
 Iteration    1 A*A^-1 deviation from unit magnitude is 3.33D-15 for    202.
 Iteration    1 A*A^-1 deviation from orthogonality  is 2.83D-15 for   2237    199.
 Iteration    1 A^-1*A deviation from unit magnitude is 3.11D-15 for    188.
 Iteration    1 A^-1*A deviation from orthogonality  is 2.08D-15 for   1608   1319.
 Error on total polarization charges =  0.00642
 SCF Done:  E(RwB97XD) =  -671.952845291     A.U. after   14 cycles
            NFock= 14  Conv=0.67D-08     -V/T= 2.0106
 DoSCS=F DFT=T ScalE2(SS,OS)=  1.000000  1.000000
 Range of M.O.s used for correlation:     1   295
 NBasis=   295 NAE=    56 NBE=    56 NFC=     0 NFV=     0
 NROrb=    295 NOA=    56 NOB=    56 NVA=   239 NVB=   239

 **** Warning!!: The largest alpha MO coefficient is  0.13122630D+02

   1 Symmetry operations used in ECPInt.
 ECPInt:  NShTT=   10011 NPrTT=   35491 LenC2=    9404 LenP2D=   24359.
 LDataN:  DoStor=T MaxTD1= 5 Len=  102
 Symmetrizing basis deriv contribution to polar:
 IMax=3 JMax=2 DiffMx= 0.00D+00
 G2DrvN: will do    33 centers at a time, making    1 passes.
 Calling FoFCou, ICntrl=  3107 FMM=F I1Cent=   0 AccDes= 0.00D+00.
 NEqPCM:  Using equilibrium solvation (IEInf=0, Eps=   2.3741, EpsInf=   2.2383)
 G2PCM: DoFxE=T DoFxN=T DoGrad=T DoDP/DQ/DG/TGxP=FFFF NFrqRd=   0 IEInf=0 SqF1=F DoCFld=F IF1Alg=4.
 End of G2Drv F.D. properties file   721 does not exist.
 End of G2Drv F.D. properties file   722 does not exist.
 End of G2Drv F.D. properties file   788 does not exist.
          IDoAtm=11111111111111111111111111111111
 NEqPCM:  Using equilibrium solvation (IEInf=0, Eps=   2.3741, EpsInf=   2.2383)
          Differentiating once with respect to nuclear coordinates.
 Keep R1 ints in memory in canonical form, NReq=1934262505.
          There are    99 degrees of freedom in the 1st order CPHF.  IDoFFX=6 NUNeed=     0.
     93 vectors produced by pass  0 Test12= 1.35D-14 1.01D-09 XBig12= 1.04D-01 1.15D-01.
 AX will form    93 AO Fock derivatives at one time.
     93 vectors produced by pass  1 Test12= 1.35D-14 1.01D-09 XBig12= 1.12D-02 2.51D-02.
     93 vectors produced by pass  2 Test12= 1.35D-14 1.01D-09 XBig12= 3.64D-04 2.89D-03.
     93 vectors produced by pass  3 Test12= 1.35D-14 1.01D-09 XBig12= 4.81D-06 2.61D-04.
     93 vectors produced by pass  4 Test12= 1.35D-14 1.01D-09 XBig12= 4.70D-08 2.09D-05.
     93 vectors produced by pass  5 Test12= 1.35D-14 1.01D-09 XBig12= 2.68D-10 1.89D-06.
     87 vectors produced by pass  6 Test12= 1.35D-14 1.01D-09 XBig12= 1.33D-12 1.25D-07.
     26 vectors produced by pass  7 Test12= 1.35D-14 1.01D-09 XBig12= 5.56D-15 5.61D-09.
 InvSVY:  IOpt=1 It=  1 EMax= 5.55D-16
 Solved reduced A of dimension   671 with    99 vectors.
 End of Minotr F.D. properties file   721 does not exist.
 End of Minotr F.D. properties file   722 does not exist.
 End of Minotr F.D. properties file   788 does not exist.

 **********************************************************************

            Population analysis using the SCF Density.

 **********************************************************************

 Orbital symmetries:
       Occupied  (A) (A) (A) (A) (A) (A) (A) (A) (A) (A) (A) (A)
                 (A) (A) (A) (A) (A) (A) (A) (A) (A) (A) (A) (A)
                 (A) (A) (A) (A) (A) (A) (A) (A) (A) (A) (A) (A)
                 (A) (A) (A) (A) (A) (A) (A) (A) (A) (A) (A) (A)
                 (A) (A) (A) (A) (A) (A) (A) (A)
       Virtual   (A) (A) (A) (A) (A) (A) (A) (A) (A) (A) (A) (A)
                 (A) (A) (A) (A) (A) (A) (A) (A) (A) (A) (A) (A)
                 (A) (A) (A) (A) (A) (A) (A) (A) (A) (A) (A) (A)
                 (A) (A) (A) (A) (A) (A) (A) (A) (A) (A) (A) (A)
                 (A) (A) (A) (A) (A) (A) (A) (A) (A) (A) (A) (A)
                 (A) (A) (A) (A) (A) (A) (A) (A) (A) (A) (A) (A)
                 (A) (A) (A) (A) (A) (A) (A) (A) (A) (A) (A) (A)
                 (A) (A) (A) (A) (A) (A) (A) (A) (A) (A) (A) (A)
                 (A) (A) (A) (A) (A) (A) (A) (A) (A) (A) (A) (A)
                 (A) (A) (A) (A) (A) (A) (A) (A) (A) (A) (A) (A)
                 (A) (A) (A) (A) (A) (A) (A) (A) (A) (A) (A) (A)
                 (A) (A) (A) (A) (A) (A) (A) (A) (A) (A) (A) (A)
                 (A) (A) (A) (A) (A) (A) (A) (A) (A) (A) (A) (A)
                 (A) (A) (A) (A) (A) (A) (A) (A) (A) (A) (A) (A)
                 (A) (A) (A) (A) (A) (A) (A) (A) (A) (A) (A) (A)
                 (A) (A) (A) (A) (A) (A) (A) (A) (A) (A) (A) (A)
                 (A) (A) (A) (A) (A) (A) (A) (A) (A) (A) (A) (A)
                 (A) (A) (A) (A) (A) (A) (A) (A) (A) (A) (A) (A)
                 (A) (A) (A) (A) (A) (A) (A) (A) (A) (A) (A) (A)
                 (A) (A) (A) (A) (A) (A) (A) (A) (A) (A) (A)
 The electronic state is 1-A.
 Alpha  occ. eigenvalues --  -19.26853 -19.20285 -14.48687 -10.38659 -10.34874
 Alpha  occ. eigenvalues --  -10.34027 -10.33147 -10.32049 -10.30928 -10.30772
 Alpha  occ. eigenvalues --  -10.30739 -10.30675 -10.30483 -10.28710 -10.23508
 Alpha  occ. eigenvalues --   -1.15902  -1.06801  -1.03020  -0.95870  -0.89458
 Alpha  occ. eigenvalues --   -0.84300  -0.82951  -0.80736  -0.78174  -0.76084
 Alpha  occ. eigenvalues --   -0.70642  -0.69593  -0.65712  -0.62383  -0.61978
 Alpha  occ. eigenvalues --   -0.59828  -0.57144  -0.55873  -0.55490  -0.54643
 Alpha  occ. eigenvalues --   -0.54266  -0.53637  -0.51926  -0.51444  -0.50781
 Alpha  occ. eigenvalues --   -0.49034  -0.48152  -0.47251  -0.46210  -0.46000
 Alpha  occ. eigenvalues --   -0.45189  -0.44008  -0.42695  -0.42596  -0.41540
 Alpha  occ. eigenvalues --   -0.41134  -0.36054  -0.33802  -0.33729  -0.32148
 Alpha  occ. eigenvalues --   -0.24425
 Alpha virt. eigenvalues --    0.03845   0.05328   0.10420   0.11623   0.14494
 Alpha virt. eigenvalues --    0.15875   0.16117   0.17448   0.18151   0.18736
 Alpha virt. eigenvalues --    0.19163   0.20494   0.21254   0.21478   0.22080
 Alpha virt. eigenvalues --    0.22728   0.23443   0.23713   0.24383   0.24754
 Alpha virt. eigenvalues --    0.25617   0.25839   0.27200   0.28277   0.29682
 Alpha virt. eigenvalues --    0.32344   0.35654   0.36562   0.38308   0.38653
 Alpha virt. eigenvalues --    0.39535   0.41102   0.42414   0.43281   0.45631
 Alpha virt. eigenvalues --    0.47151   0.49381   0.49422   0.50016   0.50908
 Alpha virt. eigenvalues --    0.52666   0.53897   0.54469   0.55477   0.55760
 Alpha virt. eigenvalues --    0.56550   0.57445   0.57987   0.58193   0.60797
 Alpha virt. eigenvalues --    0.62703   0.63143   0.64390   0.66124   0.66925
 Alpha virt. eigenvalues --    0.67303   0.68533   0.69610   0.70344   0.71873
 Alpha virt. eigenvalues --    0.72676   0.72849   0.73474   0.73796   0.74440
 Alpha virt. eigenvalues --    0.75015   0.75393   0.75522   0.75706   0.76217
 Alpha virt. eigenvalues --    0.76871   0.77245   0.78097   0.78372   0.79035
 Alpha virt. eigenvalues --    0.80200   0.81401   0.81531   0.82080   0.82995
 Alpha virt. eigenvalues --    0.83699   0.84417   0.84950   0.86362   0.87429
 Alpha virt. eigenvalues --    0.88172   0.90735   0.90989   0.92243   0.93358
 Alpha virt. eigenvalues --    0.97728   0.99615   0.99866   1.00888   1.04093
 Alpha virt. eigenvalues --    1.06604   1.07763   1.11536   1.13240   1.13971
 Alpha virt. eigenvalues --    1.14523   1.20394   1.21305   1.21866   1.27017
 Alpha virt. eigenvalues --    1.27797   1.28457   1.31230   1.32886   1.33496
 Alpha virt. eigenvalues --    1.35221   1.37151   1.37436   1.38141   1.39525
 Alpha virt. eigenvalues --    1.40964   1.42233   1.45463   1.47331   1.49243
 Alpha virt. eigenvalues --    1.51292   1.53291   1.56545   1.60417   1.60918
 Alpha virt. eigenvalues --    1.61879   1.64909   1.65520   1.66364   1.68318
 Alpha virt. eigenvalues --    1.70702   1.71824   1.74655   1.75263   1.76701
 Alpha virt. eigenvalues --    1.78314   1.79809   1.81001   1.82086   1.82845
 Alpha virt. eigenvalues --    1.83267   1.84361   1.84596   1.85227   1.86017
 Alpha virt. eigenvalues --    1.86685   1.86904   1.88737   1.89661   1.89952
 Alpha virt. eigenvalues --    1.91443   1.93778   1.94745   1.95781   1.96608
 Alpha virt. eigenvalues --    1.98144   1.98637   2.00392   2.00668   2.01051
 Alpha virt. eigenvalues --    2.03447   2.04116   2.04899   2.06031   2.06917
 Alpha virt. eigenvalues --    2.08616   2.09680   2.11607   2.12670   2.14296
 Alpha virt. eigenvalues --    2.15865   2.17524   2.18834   2.19799   2.21119
 Alpha virt. eigenvalues --    2.22342   2.24991   2.26019   2.27080   2.31288
 Alpha virt. eigenvalues --    2.33215   2.36066   2.37637   2.38373   2.39865
 Alpha virt. eigenvalues --    2.40199   2.41541   2.42868   2.43500   2.44326
 Alpha virt. eigenvalues --    2.44954   2.47150   2.50526   2.51907   2.53234
 Alpha virt. eigenvalues --    2.57558   2.60625   2.63062   2.64980   2.68476
 Alpha virt. eigenvalues --    2.70411   2.72210   2.73438   2.74993   2.76916
 Alpha virt. eigenvalues --    2.77238   2.78238   2.79455   2.82062   2.83100
 Alpha virt. eigenvalues --    2.83457   2.84087   2.86541   2.88702   2.90556
 Alpha virt. eigenvalues --    2.93955   2.95855   2.97179   2.98099   3.01421
 Alpha virt. eigenvalues --    3.05572   3.05882   3.06255   3.07053   3.08032
 Alpha virt. eigenvalues --    3.11781   3.13099   3.17745   3.20770   3.22631
 Alpha virt. eigenvalues --    3.30294   3.32705   3.34493   3.35309   3.51794
 Alpha virt. eigenvalues --    3.54360   3.71146   3.77931   3.79660
          Condensed to atoms (all electrons):
               1          2          3          4          5          6
     1  C    5.495750   0.363437  -0.097126   0.408288   0.003282   0.000326
     2  C    0.363437   4.451939   0.665625  -0.017181   0.001746  -0.000328
     3  O   -0.097126   0.665625   7.803062  -0.012617   0.000462  -0.000357
     4  C    0.408288  -0.017181  -0.012617   5.281882  -0.005589  -0.002806
     5  C    0.003282   0.001746   0.000462  -0.005589   4.495451   0.403718
     6  H    0.000326  -0.000328  -0.000357  -0.002806   0.403718   0.588305
     7  H   -0.001366   0.000003   0.000023   0.001974   0.406634  -0.023386
     8  H    0.008203   0.002708  -0.000419  -0.002356   0.402047  -0.016161
     9  N   -0.138782  -0.005282   0.000304   0.007567   0.316740  -0.024179
    10  H    0.002810  -0.000811  -0.000017   0.000869  -0.023588   0.007401
    11  H    0.008655   0.000077  -0.000017  -0.003565  -0.021267  -0.005737
    12  C   -0.059740   0.006950  -0.000137   0.289051   0.002521  -0.000003
    13  C   -0.010591  -0.000087  -0.000001  -0.088604  -0.000060   0.000031
    14  C    0.000606  -0.000000   0.000000   0.010046   0.000011   0.000000
    15  C    0.000030  -0.000000  -0.000000  -0.001371   0.000000   0.000000
    16  C   -0.000493   0.000006   0.000000   0.016375   0.000002   0.000000
    17  C    0.002761  -0.000149   0.000004  -0.078988  -0.000026  -0.000014
    18  H    0.004762   0.000005   0.000000  -0.013023  -0.000037  -0.000005
    19  H   -0.000006  -0.000000   0.000000  -0.000214  -0.000000  -0.000000
    20  H    0.000000   0.000000   0.000000   0.000022   0.000000   0.000000
    21  H    0.000002  -0.000000   0.000000  -0.000212  -0.000000  -0.000000
    22  H    0.000285  -0.000062  -0.000006  -0.028427  -0.000000  -0.000003
    23  C   -0.043469  -0.010295   0.003085   0.376993  -0.000880   0.004310
    24  H   -0.022065   0.004529   0.016716   0.006632   0.001783   0.002866
    25  H   -0.006887   0.001058   0.000921   0.005785  -0.000025  -0.000281
    26  H    0.010312   0.000590   0.000934  -0.023343  -0.001504   0.000214
    27  H    0.396436  -0.023398   0.004328  -0.052428  -0.000025  -0.000007
    28  O   -0.132222   0.355870  -0.069403   0.001059  -0.000144  -0.000004
    29  C    0.012806  -0.034348   0.001151  -0.000188  -0.000012   0.000001
    30  H    0.000008   0.005176   0.000801   0.000015  -0.000000   0.000000
    31  H    0.001355  -0.003805   0.006830  -0.000128  -0.000003   0.000000
    32  H    0.000273  -0.004493   0.007010   0.000281   0.000026  -0.000001
               7          8          9         10         11         12
     1  C   -0.001366   0.008203  -0.138782   0.002810   0.008655  -0.059740
     2  C    0.000003   0.002708  -0.005282  -0.000811   0.000077   0.006950
     3  O    0.000023  -0.000419   0.000304  -0.000017  -0.000017  -0.000137
     4  C    0.001974  -0.002356   0.007567   0.000869  -0.003565   0.289051
     5  C    0.406634   0.402047   0.316740  -0.023588  -0.021267   0.002521
     6  H   -0.023386  -0.016161  -0.024179   0.007401  -0.005737  -0.000003
     7  H    0.620789  -0.025959  -0.014781  -0.009574  -0.010129  -0.000179
     8  H   -0.025959   0.585336  -0.027871  -0.003902   0.008181   0.000216
     9  N   -0.014781  -0.027871   6.520445   0.328430   0.312128  -0.031712
    10  H   -0.009574  -0.003902   0.328430   0.553681  -0.010631  -0.007612
    11  H   -0.010129   0.008181   0.312128  -0.010631   0.569868   0.003905
    12  C   -0.000179   0.000216  -0.031712  -0.007612   0.003905   5.331771
    13  C   -0.000007  -0.000087  -0.006030   0.008468  -0.001578   0.296888
    14  C   -0.000000  -0.000000  -0.000212  -0.000155  -0.000213   0.061709
    15  C   -0.000000   0.000000  -0.000009   0.000033   0.000028  -0.138159
    16  C    0.000000  -0.000000  -0.000131  -0.000012  -0.000082   0.060311
    17  C   -0.000008   0.000014  -0.001542   0.000115   0.002088   0.348833
    18  H   -0.000019   0.000034  -0.002630   0.003716   0.000225  -0.074145
    19  H    0.000000   0.000000   0.000005   0.000004  -0.000002   0.014335
    20  H   -0.000000  -0.000000   0.000000  -0.000001  -0.000000  -0.001374
    21  H    0.000000  -0.000000   0.000001   0.000000  -0.000001   0.014445
    22  H   -0.000000   0.000000   0.000143  -0.000023  -0.000003  -0.053434
    23  C   -0.000281  -0.000232  -0.049529   0.003979  -0.001543  -0.070998
    24  H    0.000112  -0.000428  -0.001725   0.000209  -0.001033   0.007737
    25  H    0.000013  -0.000010   0.004647  -0.000257  -0.000232  -0.009087
    26  H    0.000023  -0.000068   0.003380  -0.000143   0.002029  -0.015751
    27  H    0.000001   0.000014  -0.000697   0.000929  -0.000014  -0.021995
    28  O    0.000001   0.000046   0.000173   0.000012  -0.000003  -0.000084
    29  C   -0.000000   0.000024  -0.000010  -0.000001   0.000000   0.000006
    30  H   -0.000000  -0.000001   0.000000  -0.000000   0.000000  -0.000000
    31  H    0.000000   0.000001   0.000003  -0.000000  -0.000000   0.000000
    32  H   -0.000000   0.000067  -0.000014   0.000002   0.000000   0.000001
              13         14         15         16         17         18
     1  C   -0.010591   0.000606   0.000030  -0.000493   0.002761   0.004762
     2  C   -0.000087  -0.000000  -0.000000   0.000006  -0.000149   0.000005
     3  O   -0.000001   0.000000  -0.000000   0.000000   0.000004   0.000000
     4  C   -0.088604   0.010046  -0.001371   0.016375  -0.078988  -0.013023
     5  C   -0.000060   0.000011   0.000000   0.000002  -0.000026  -0.000037
     6  H    0.000031   0.000000   0.000000   0.000000  -0.000014  -0.000005
     7  H   -0.000007  -0.000000  -0.000000   0.000000  -0.000008  -0.000019
     8  H   -0.000087  -0.000000   0.000000  -0.000000   0.000014   0.000034
     9  N   -0.006030  -0.000212  -0.000009  -0.000131  -0.001542  -0.002630
    10  H    0.008468  -0.000155   0.000033  -0.000012   0.000115   0.003716
    11  H   -0.001578  -0.000213   0.000028  -0.000082   0.002088   0.000225
    12  C    0.296888   0.061709  -0.138159   0.060311   0.348833  -0.074145
    13  C    5.132668   0.351247   0.065512  -0.127751   0.033453   0.445184
    14  C    0.351247   4.987325   0.311789   0.067258  -0.115830  -0.049951
    15  C    0.065512   0.311789   5.068935   0.310056   0.064460   0.013105
    16  C   -0.127751   0.067258   0.310056   5.036901   0.325546  -0.001617
    17  C    0.033453  -0.115830   0.064460   0.325546   5.051553   0.011787
    18  H    0.445184  -0.049951   0.013105  -0.001617   0.011787   0.652768
    19  H   -0.062084   0.448748  -0.067764   0.012763  -0.001771  -0.012411
    20  H    0.012715  -0.064993   0.448428  -0.063612   0.012645  -0.000224
    21  H   -0.001763   0.012753  -0.068700   0.448149  -0.060618   0.000021
    22  H    0.013345  -0.001742   0.013429  -0.064564   0.446929  -0.000150
    23  C    0.009982  -0.000244   0.000063  -0.000350   0.005824   0.000273
    24  H   -0.000068  -0.000000   0.000002  -0.000043   0.000068  -0.000012
    25  H   -0.000484   0.000021  -0.000022   0.000469   0.001768   0.000000
    26  H   -0.000464  -0.000026  -0.000058   0.000442   0.003852  -0.000027
    27  H    0.003534   0.000764  -0.000081   0.000032  -0.000471   0.001498
    28  O   -0.000046  -0.000000  -0.000000   0.000000   0.000000  -0.000060
    29  C    0.000001   0.000000  -0.000000   0.000000  -0.000000   0.000000
    30  H    0.000000  -0.000000   0.000000  -0.000000  -0.000000   0.000000
    31  H   -0.000000  -0.000000  -0.000000   0.000000   0.000000  -0.000000
    32  H    0.000000  -0.000000   0.000000   0.000000  -0.000000  -0.000000
              19         20         21         22         23         24
     1  C   -0.000006   0.000000   0.000002   0.000285  -0.043469  -0.022065
     2  C   -0.000000   0.000000  -0.000000  -0.000062  -0.010295   0.004529
     3  O    0.000000   0.000000   0.000000  -0.000006   0.003085   0.016716
     4  C   -0.000214   0.000022  -0.000212  -0.028427   0.376993   0.006632
     5  C   -0.000000   0.000000  -0.000000  -0.000000  -0.000880   0.001783
     6  H   -0.000000   0.000000  -0.000000  -0.000003   0.004310   0.002866
     7  H    0.000000  -0.000000   0.000000  -0.000000  -0.000281   0.000112
     8  H    0.000000  -0.000000  -0.000000   0.000000  -0.000232  -0.000428
     9  N    0.000005   0.000000   0.000001   0.000143  -0.049529  -0.001725
    10  H    0.000004  -0.000001   0.000000  -0.000023   0.003979   0.000209
    11  H   -0.000002  -0.000000  -0.000001  -0.000003  -0.001543  -0.001033
    12  C    0.014335  -0.001374   0.014445  -0.053434  -0.070998   0.007737
    13  C   -0.062084   0.012715  -0.001763   0.013345   0.009982  -0.000068
    14  C    0.448748  -0.064993   0.012753  -0.001742  -0.000244  -0.000000
    15  C   -0.067764   0.448428  -0.068700   0.013429   0.000063   0.000002
    16  C    0.012763  -0.063612   0.448149  -0.064564  -0.000350  -0.000043
    17  C   -0.001771   0.012645  -0.060618   0.446929   0.005824   0.000068
    18  H   -0.012411  -0.000224   0.000021  -0.000150   0.000273  -0.000012
    19  H    0.653514  -0.011103  -0.000218   0.000019   0.000003  -0.000000
    20  H   -0.011103   0.651848  -0.011033  -0.000223  -0.000000  -0.000000
    21  H   -0.000218  -0.011033   0.652897  -0.012274  -0.000004  -0.000000
    22  H    0.000019  -0.000223  -0.012274   0.653284   0.014964  -0.000061
    23  C    0.000003  -0.000000  -0.000004   0.014964   4.558428   0.374475
    24  H   -0.000000  -0.000000  -0.000000  -0.000061   0.374475   0.591537
    25  H   -0.000000  -0.000000   0.000003   0.000877   0.381149  -0.012631
    26  H    0.000000  -0.000000   0.000027  -0.000616   0.373133  -0.024379
    27  H    0.000035  -0.000001   0.000001  -0.000034   0.008480  -0.000166
    28  O    0.000000  -0.000000   0.000000  -0.000000   0.000297   0.000174
    29  C   -0.000000   0.000000  -0.000000  -0.000000  -0.000007  -0.000019
    30  H   -0.000000  -0.000000   0.000000   0.000000  -0.000001   0.000000
    31  H    0.000000  -0.000000  -0.000000  -0.000000   0.000011  -0.000024
    32  H   -0.000000  -0.000000  -0.000000   0.000000  -0.000035   0.000042
              25         26         27         28         29         30
     1  C   -0.006887   0.010312   0.396436  -0.132222   0.012806   0.000008
     2  C    0.001058   0.000590  -0.023398   0.355870  -0.034348   0.005176
     3  O    0.000921   0.000934   0.004328  -0.069403   0.001151   0.000801
     4  C    0.005785  -0.023343  -0.052428   0.001059  -0.000188   0.000015
     5  C   -0.000025  -0.001504  -0.000025  -0.000144  -0.000012  -0.000000
     6  H   -0.000281   0.000214  -0.000007  -0.000004   0.000001   0.000000
     7  H    0.000013   0.000023   0.000001   0.000001  -0.000000  -0.000000
     8  H   -0.000010  -0.000068   0.000014   0.000046   0.000024  -0.000001
     9  N    0.004647   0.003380  -0.000697   0.000173  -0.000010   0.000000
    10  H   -0.000257  -0.000143   0.000929   0.000012  -0.000001  -0.000000
    11  H   -0.000232   0.002029  -0.000014  -0.000003   0.000000   0.000000
    12  C   -0.009087  -0.015751  -0.021995  -0.000084   0.000006  -0.000000
    13  C   -0.000484  -0.000464   0.003534  -0.000046   0.000001   0.000000
    14  C    0.000021  -0.000026   0.000764  -0.000000   0.000000  -0.000000
    15  C   -0.000022  -0.000058  -0.000081  -0.000000  -0.000000   0.000000
    16  C    0.000469   0.000442   0.000032   0.000000   0.000000  -0.000000
    17  C    0.001768   0.003852  -0.000471   0.000000  -0.000000  -0.000000
    18  H    0.000000  -0.000027   0.001498  -0.000060   0.000000   0.000000
    19  H   -0.000000   0.000000   0.000035   0.000000  -0.000000  -0.000000
    20  H   -0.000000  -0.000000  -0.000001  -0.000000   0.000000  -0.000000
    21  H    0.000003   0.000027   0.000001   0.000000  -0.000000   0.000000
    22  H    0.000877  -0.000616  -0.000034  -0.000000  -0.000000   0.000000
    23  C    0.381149   0.373133   0.008480   0.000297  -0.000007  -0.000001
    24  H   -0.012631  -0.024379  -0.000166   0.000174  -0.000019   0.000000
    25  H    0.600096  -0.024160  -0.000058   0.000001  -0.000002  -0.000000
    26  H   -0.024160   0.685093  -0.000216   0.000009  -0.000001  -0.000000
    27  H   -0.000058  -0.000216   0.672659   0.013640  -0.000405  -0.000249
    28  O    0.000001   0.000009   0.013640   8.008536   0.269713  -0.021711
    29  C   -0.000002  -0.000001  -0.000405   0.269713   4.402878   0.396209
    30  H   -0.000000  -0.000000  -0.000249  -0.021711   0.396209   0.632417
    31  H    0.000007   0.000000   0.000009  -0.029046   0.404996  -0.026094
    32  H   -0.000004  -0.000000   0.000083  -0.029189   0.403593  -0.026789
              31         32
     1  C    0.001355   0.000273
     2  C   -0.003805  -0.004493
     3  O    0.006830   0.007010
     4  C   -0.000128   0.000281
     5  C   -0.000003   0.000026
     6  H    0.000000  -0.000001
     7  H    0.000000  -0.000000
     8  H    0.000001   0.000067
     9  N    0.000003  -0.000014
    10  H   -0.000000   0.000002
    11  H   -0.000000   0.000000
    12  C    0.000000   0.000001
    13  C   -0.000000   0.000000
    14  C   -0.000000  -0.000000
    15  C   -0.000000   0.000000
    16  C    0.000000   0.000000
    17  C    0.000000  -0.000000
    18  H   -0.000000  -0.000000
    19  H    0.000000  -0.000000
    20  H   -0.000000  -0.000000
    21  H   -0.000000  -0.000000
    22  H   -0.000000   0.000000
    23  C    0.000011  -0.000035
    24  H   -0.000024   0.000042
    25  H    0.000007  -0.000004
    26  H    0.000000  -0.000000
    27  H    0.000009   0.000083
    28  O   -0.029046  -0.029189
    29  C    0.404996   0.403593
    30  H   -0.026094  -0.026789
    31  H    0.636495  -0.031393
    32  H   -0.031393   0.645863
 Mulliken charges:
               1
     1  C   -0.207641
     2  C    0.240520
     3  O   -0.331156
     4  C   -0.075798
     5  C    0.018736
     6  H    0.066097
     7  H    0.056114
     8  H    0.070603
     9  N   -0.188829
    10  H    0.146068
    11  H    0.148865
    12  C    0.045732
    13  C   -0.073324
    14  C   -0.018909
    15  C   -0.019707
    16  C   -0.019654
    17  C   -0.052283
    18  H    0.020932
    19  H    0.026149
    20  H    0.026903
    21  H    0.026523
    22  H    0.018345
    23  C    0.062418
    24  H    0.055773
    25  H    0.057325
    26  H    0.010719
    27  H   -0.002197
    28  O   -0.367619
    29  C    0.143614
    30  H    0.040218
    31  H    0.040785
    32  H    0.034679
 Sum of Mulliken charges =  -0.00000
 Mulliken charges with hydrogens summed into heavy atoms:
               1
     1  C   -0.209838
     2  C    0.240520
     3  O   -0.331156
     4  C   -0.075798
     5  C    0.211550
     9  N    0.106103
    12  C    0.045732
    13  C   -0.052392
    14  C    0.007240
    15  C    0.007197
    16  C    0.006868
    17  C   -0.033938
    23  C    0.186234
    28  O   -0.367619
    29  C    0.259297
 APT charges:
               1
     1  C   -0.484681
     2  C   -0.382902
     3  O    0.194454
     4  C   -0.318112
     5  C   -0.900348
     6  H    0.397111
     7  H    0.612332
     8  H    0.254104
     9  N   -0.831586
    10  H    0.346239
    11  H    0.451523
    12  C   -0.474988
    13  C   -0.470264
    14  C   -0.479127
    15  C   -0.579000
    16  C   -0.517388
    17  C   -0.498198
    18  H    0.185209
    19  H    0.683495
    20  H    1.011498
    21  H    0.816839
    22  H    0.335843
    23  C   -0.750922
    24  H    0.355186
    25  H    0.336820
    26  H    0.345995
    27  H    0.211567
    28  O   -0.335324
    29  C   -1.037016
    30  H    0.761546
    31  H    0.413345
    32  H    0.346750
 Sum of APT charges =  -0.00000
 APT charges with hydrogens summed into heavy atoms:
               1
     1  C   -0.273114
     2  C   -0.382902
     3  O    0.194454
     4  C   -0.318112
     5  C    0.363199
     9  N   -0.033823
    12  C   -0.474988
    13  C   -0.285055
    14  C    0.204369
    15  C    0.432499
    16  C    0.299451
    17  C   -0.162355
    23  C    0.287079
    28  O   -0.335324
    29  C    0.484624
 Electronic spatial extent (au):  <R**2>=           3986.1057
 Charge=             -0.0000 electrons
 Dipole moment (field-independent basis, Debye):
    X=              3.1354    Y=              3.9679    Z=             -3.5500  Tot=              6.1788
 Quadrupole moment (field-independent basis, Debye-Ang):
   XX=            -86.2339   YY=            -82.6344   ZZ=            -85.6149
   XY=             -0.1118   XZ=              6.6211   YZ=             -3.3601
 Traceless Quadrupole moment (field-independent basis, Debye-Ang):
   XX=             -1.4061   YY=              2.1933   ZZ=             -0.7872
   XY=             -0.1118   XZ=              6.6211   YZ=             -3.3601
 Octapole moment (field-independent basis, Debye-Ang**2):
  XXX=            -17.2012  YYY=             34.5092  ZZZ=            -11.8995  XYY=            -23.2633
  XXY=            -27.4412  XXZ=            -18.4384  XZZ=             10.4013  YZZ=              6.2584
  YYZ=            -12.1106  XYZ=             11.0219
 Hexadecapole moment (field-independent basis, Debye-Ang**3):
 XXXX=          -3367.0910 YYYY=           -862.3832 ZZZZ=           -606.0093 XXXY=             43.2786
 XXXZ=             90.9448 YYYX=             27.8763 YYYZ=            -27.8119 ZZZX=             11.9727
 ZZZY=             -8.7298 XXYY=           -742.0700 XXZZ=           -721.0891 YYZZ=           -242.2727
 XXYZ=              8.0760 YYXZ=             -9.6403 ZZXY=             -2.4336
 N-N= 9.938884676301D+02 E-N=-3.550225251123D+03  KE= 6.649199628316D+02
  Exact polarizability:       0.000       0.000       0.000       0.000       0.000       0.000
 Approx polarizability:     190.681      -2.182     132.880      -0.719      17.418     159.963
   1 Symmetry operations used in ECPInt.
 ECPInt:  NShTT=   10011 NPrTT=   35491 LenC2=    9404 LenP2D=   24359.
 LDataN:  DoStor=T MaxTD1= 6 Len=  172
 D2PCM: PCM CHGder 2nd derivatives, FixD1E=F FixD2E=F DoIter=F DoCFld=F I1PDM=0
 Calling FoFJK, ICntrl=    100127 FMM=F ISym2X=0 I1Cent= 0 IOpClX= 0 NMat=1 NMatS=1 NMatT=0.
 ***** Axes restored to original set *****
 -------------------------------------------------------------------
 Center     Atomic                   Forces (Hartrees/Bohr)
 Number     Number              X              Y              Z
 -------------------------------------------------------------------
      1        6          -0.043053786   -0.029566398    0.013314830
      2        6           0.054511466    0.002323645   -0.012315594
      3        8          -0.013380988   -0.005356493   -0.007684293
      4        6           0.001896309   -0.003969351    0.031093506
      5        6          -0.002815578   -0.006855413    0.008484215
      6        1          -0.000737119    0.000798132    0.003128722
      7        1          -0.000835846    0.003061146   -0.003500946
      8        1          -0.002833274   -0.003211101    0.000294347
      9        7           0.030374253    0.042163372   -0.029305584
     10        1           0.000029683   -0.005905014    0.004455363
     11        1           0.000063241   -0.000042023   -0.001921238
     12        6          -0.005492527    0.011228865   -0.003792528
     13        6           0.004352172    0.001502110    0.003693538
     14        6          -0.008104045    0.002804536    0.004040439
     15        6           0.000434214    0.000295636    0.001520014
     16        6          -0.007947597   -0.000321542   -0.002854350
     17        6           0.003205324   -0.000950345   -0.002650876
     18        1          -0.004514782   -0.000253650   -0.002318117
     19        1           0.000345283   -0.001194439   -0.003599455
     20        1           0.003928563   -0.000966671   -0.000642856
     21        1           0.001748052    0.000389674    0.003124013
     22        1          -0.003032049    0.002201018    0.001949167
     23        6           0.007991023   -0.002384507   -0.009727929
     24        1          -0.003442783   -0.006200276   -0.001678124
     25        1          -0.001333764   -0.001439179    0.000759848
     26        1           0.005326783    0.000414303    0.000016160
     27        1           0.003018467   -0.001134446   -0.004809745
     28        8          -0.026259234    0.003534891    0.012123476
     29        6           0.009031796   -0.003900776   -0.005260793
     30        1           0.002485826   -0.002254488   -0.003307890
     31        1          -0.002449562    0.002006587    0.004139321
     32        1          -0.002509522    0.003182196    0.003233359
 -------------------------------------------------------------------
 Cartesian Forces:  Max     0.054511466 RMS     0.011588336
 FormGI is forming the generalized inverse of G from B-inverse, IUseBI=4.

 GradGradGradGradGradGradGradGradGradGradGradGradGradGradGradGradGradGrad
 Berny optimization.
 Internal  Forces:  Max     0.033678525 RMS     0.006758613
 Search for a saddle point.
 Step number   1 out of a maximum of   50
 All quantities printed in internal units (Hartrees-Bohrs-Radians)
 Swapping is turned off.
 Second derivative matrix not updated -- analytic derivatives used.
 ITU=  0
     Eigenvalues ---   -0.03740  -0.00002   0.00172   0.00216   0.00256
     Eigenvalues ---    0.00567   0.00672   0.00796   0.00980   0.01132
     Eigenvalues ---    0.01619   0.01781   0.01836   0.01880   0.02282
     Eigenvalues ---    0.02469   0.02562   0.02723   0.02947   0.03065
     Eigenvalues ---    0.03178   0.04154   0.04468   0.04688   0.04771
     Eigenvalues ---    0.04811   0.06068   0.07579   0.07980   0.08203
     Eigenvalues ---    0.08362   0.08603   0.09367   0.09951   0.11035
     Eigenvalues ---    0.11265   0.11527   0.11674   0.11882   0.12216
     Eigenvalues ---    0.12341   0.12662   0.12880   0.13152   0.13806
     Eigenvalues ---    0.15584   0.16667   0.17442   0.17813   0.18497
     Eigenvalues ---    0.18646   0.18919   0.19330   0.19434   0.21038
     Eigenvalues ---    0.23847   0.24751   0.25546   0.27015   0.28725
     Eigenvalues ---    0.30181   0.30928   0.34836   0.34941   0.35262
     Eigenvalues ---    0.35497   0.35553   0.35622   0.35857   0.36120
     Eigenvalues ---    0.36363   0.37141   0.37431   0.37543   0.37595
     Eigenvalues ---    0.37723   0.37829   0.38062   0.38267   0.39148
     Eigenvalues ---    0.42025   0.43209   0.43386   0.44494   0.47601
     Eigenvalues ---    0.48418   0.48944   0.52162   0.58863   0.83970
 Eigenvectors required to have negative eigenvalues:
                          R6        A19       A21       R2        A11
   1                    0.79013   0.31245  -0.17897  -0.12633  -0.11213
                          D10       A20       D34       D26       D27
   1                   -0.11019  -0.10982  -0.10841   0.10767   0.10241
 RFO step:  Lambda0=6.757216001D-04 Lambda=-3.62386270D-02.
 Linear search not attempted -- option 19 set.
 Maximum step size (   0.100) exceeded in Quadratic search.
    -- Step size scaled by   0.217
 Iteration  1 RMS(Cart)=  0.02650622 RMS(Int)=  0.00055591
 Iteration  2 RMS(Cart)=  0.00096928 RMS(Int)=  0.00008959
 Iteration  3 RMS(Cart)=  0.00000072 RMS(Int)=  0.00008959
 Variable       Old X    -DE/DX   Delta X   Delta X   Delta X     New X
                                 (Linear)    (Quad)   (Total)
    R1        2.80138  -0.02304   0.00000  -0.02012  -0.02012   2.78126
    R2        2.58775   0.03368   0.00000   0.01311   0.01311   2.60086
    R3        2.04902   0.00459   0.00000   0.00231   0.00231   2.05134
    R4        2.30259  -0.00264   0.00000   0.00193   0.00193   2.30452
    R5        2.57286   0.00080   0.00000   0.00199   0.00199   2.57485
    R6        3.54453   0.03224   0.00000   0.02298   0.02298   3.56751
    R7        2.90512  -0.01839   0.00000  -0.01144  -0.01144   2.89368
    R8        2.92314  -0.01552   0.00000  -0.01216  -0.01216   2.91098
    R9        2.06584   0.00311   0.00000   0.00144   0.00144   2.06729
   R10        2.06719   0.00425   0.00000   0.00240   0.00240   2.06960
   R11        2.06611   0.00386   0.00000   0.00236   0.00236   2.06847
   R12        2.77700  -0.00041   0.00000  -0.00690  -0.00690   2.77010
   R13        1.93391  -0.00132   0.00000  -0.00103  -0.00103   1.93288
   R14        1.93922  -0.00037   0.00000  -0.00103  -0.00103   1.93819
   R15        2.66347  -0.00619   0.00000  -0.00227  -0.00227   2.66120
   R16        2.65533  -0.00446   0.00000  -0.00187  -0.00187   2.65346
   R17        2.64292  -0.00532   0.00000  -0.00246  -0.00246   2.64046
   R18        2.05382   0.00465   0.00000   0.00235   0.00235   2.05617
   R19        2.62793   0.00370   0.00000   0.00169   0.00169   2.62962
   R20        2.05372   0.00372   0.00000   0.00202   0.00202   2.05574
   R21        2.62900   0.00189   0.00000   0.00061   0.00061   2.62960
   R22        2.05328   0.00409   0.00000   0.00206   0.00206   2.05533
   R23        2.64471  -0.00429   0.00000  -0.00165  -0.00165   2.64306
   R24        2.05421   0.00353   0.00000   0.00193   0.00193   2.05614
   R25        2.05310   0.00330   0.00000   0.00157   0.00157   2.05467
   R26        2.06735   0.00008   0.00000  -0.00018  -0.00018   2.06716
   R27        2.07107   0.00146   0.00000   0.00101   0.00101   2.07209
   R28        2.07240   0.00403   0.00000   0.00160   0.00160   2.07400
   R29        2.69746  -0.00655   0.00000  -0.00709  -0.00709   2.69038
   R30        2.06649   0.00271   0.00000   0.00148   0.00148   2.06797
   R31        2.06834   0.00348   0.00000   0.00238   0.00238   2.07072
   R32        2.06854   0.00356   0.00000   0.00238   0.00238   2.07091
    A1        2.19840  -0.00182   0.00000  -0.00294  -0.00294   2.19546
    A2        1.97644   0.00350   0.00000   0.00735   0.00735   1.98379
    A3        2.10820  -0.00169   0.00000  -0.00446  -0.00446   2.10374
    A4        2.22179   0.00813   0.00000   0.00719   0.00719   2.22897
    A5        1.86998   0.02013   0.00000   0.01357   0.01357   1.88355
    A6        2.19134  -0.02826   0.00000  -0.02075  -0.02075   2.17059
    A7        1.80446   0.01266   0.00000   0.01241   0.01242   1.81688
    A8        1.99446   0.00030   0.00000   0.00310   0.00315   1.99761
    A9        2.08630  -0.00200   0.00000  -0.00240  -0.00245   2.08385
   A10        1.79037  -0.01054   0.00000  -0.01632  -0.01633   1.77405
   A11        1.67779  -0.00113   0.00000   0.00353   0.00351   1.68130
   A12        2.02708   0.00082   0.00000  -0.00095  -0.00096   2.02613
   A13        1.89573  -0.00028   0.00000   0.00066   0.00066   1.89639
   A14        1.89776   0.00063   0.00000   0.00008   0.00006   1.89783
   A15        1.92659  -0.00136   0.00000  -0.00209  -0.00209   1.92450
   A16        1.89841  -0.00014   0.00000   0.00053   0.00053   1.89895
   A17        1.92320   0.00385   0.00000   0.00579   0.00580   1.92899
   A18        1.92156  -0.00269   0.00000  -0.00493  -0.00493   1.91663
   A19        2.32267  -0.02714   0.00000  -0.06988  -0.06992   2.25274
   A20        1.81124   0.00248   0.00000   0.01067   0.01022   1.82146
   A21        1.77232   0.01069   0.00000   0.03119   0.03143   1.80376
   A22        1.84453   0.01339   0.00000   0.02000   0.01940   1.86393
   A23        1.85573   0.00702   0.00000   0.01732   0.01769   1.87342
   A24        1.79799  -0.00272   0.00000   0.00525   0.00479   1.80278
   A25        2.12133  -0.00352   0.00000  -0.00325  -0.00325   2.11809
   A26        2.11493  -0.00144   0.00000   0.00096   0.00096   2.11589
   A27        2.04692   0.00496   0.00000   0.00228   0.00229   2.04921
   A28        2.11990  -0.00147   0.00000  -0.00078  -0.00078   2.11912
   A29        2.10438  -0.00127   0.00000  -0.00237  -0.00237   2.10201
   A30        2.05888   0.00274   0.00000   0.00316   0.00316   2.06204
   A31        2.09520   0.00016   0.00000   0.00034   0.00034   2.09554
   A32        2.09318  -0.00092   0.00000  -0.00075  -0.00075   2.09243
   A33        2.09480   0.00076   0.00000   0.00041   0.00041   2.09521
   A34        2.08840  -0.00188   0.00000  -0.00118  -0.00118   2.08721
   A35        2.09790   0.00089   0.00000   0.00047   0.00047   2.09837
   A36        2.09688   0.00099   0.00000   0.00071   0.00071   2.09760
   A37        2.09848  -0.00001   0.00000   0.00054   0.00054   2.09902
   A38        2.09433   0.00073   0.00000   0.00031   0.00031   2.09465
   A39        2.09036  -0.00072   0.00000  -0.00085  -0.00085   2.08951
   A40        2.11746  -0.00176   0.00000  -0.00120  -0.00120   2.11626
   A41        2.11295  -0.00170   0.00000  -0.00260  -0.00260   2.11036
   A42        2.05265   0.00345   0.00000   0.00379   0.00379   2.05644
   A43        1.96833  -0.00599   0.00000  -0.00530  -0.00531   1.96302
   A44        1.92295  -0.00006   0.00000  -0.00248  -0.00250   1.92046
   A45        1.94188  -0.00112   0.00000   0.00096   0.00097   1.94285
   A46        1.88857   0.00078   0.00000  -0.00451  -0.00455   1.88402
   A47        1.85243   0.00588   0.00000   0.01021   0.01021   1.86265
   A48        1.88628   0.00098   0.00000   0.00162   0.00162   1.88790
   A49        1.98441   0.00978   0.00000   0.00792   0.00792   1.99233
   A50        1.88572  -0.00548   0.00000  -0.00523  -0.00523   1.88049
   A51        1.92928   0.00263   0.00000   0.00385   0.00385   1.93313
   A52        1.92949   0.00218   0.00000   0.00347   0.00347   1.93297
   A53        1.89214   0.00244   0.00000   0.00304   0.00304   1.89518
   A54        1.89197   0.00256   0.00000   0.00326   0.00327   1.89523
   A55        1.93380  -0.00436   0.00000  -0.00832  -0.00832   1.92549
    D1       -0.24819   0.00194   0.00000   0.01365   0.01365  -0.23454
    D2        2.90656   0.00203   0.00000   0.01284   0.01283   2.91939
    D3        2.91160   0.00289   0.00000   0.01668   0.01669   2.92829
    D4       -0.21683   0.00299   0.00000   0.01586   0.01587  -0.20097
    D5       -1.51024  -0.00232   0.00000  -0.00308  -0.00306  -1.51330
    D6        2.84143   0.00271   0.00000   0.00771   0.00769   2.84913
    D7        0.32465   0.00375   0.00000   0.00834   0.00833   0.33298
    D8        1.61189  -0.00329   0.00000  -0.00620  -0.00618   1.60571
    D9       -0.31963   0.00174   0.00000   0.00459   0.00458  -0.31505
   D10       -2.83641   0.00278   0.00000   0.00522   0.00522  -2.83119
   D11        3.13780  -0.00105   0.00000  -0.00366  -0.00367   3.13412
   D12        0.00907  -0.00129   0.00000  -0.00472  -0.00471   0.00436
   D13        1.13513  -0.00046   0.00000  -0.01307  -0.01281   1.12233
   D14       -1.09214   0.00115   0.00000   0.01003   0.01003  -1.08211
   D15       -2.95382  -0.00005   0.00000  -0.00853  -0.00867  -2.96250
   D16       -3.06964   0.00060   0.00000  -0.01132  -0.01112  -3.08076
   D17        0.98627   0.00220   0.00000   0.01177   0.01171   0.99799
   D18       -0.87541   0.00101   0.00000  -0.00679  -0.00699  -0.88240
   D19       -1.00043  -0.00145   0.00000  -0.01520  -0.01499  -1.01542
   D20        3.05548   0.00015   0.00000   0.00790   0.00784   3.06332
   D21        1.19379  -0.00105   0.00000  -0.01066  -0.01086   1.18294
   D22        0.86422   0.00318   0.00000   0.00052   0.00052   0.86475
   D23       -2.27819   0.00367   0.00000   0.00245   0.00245  -2.27574
   D24       -1.07579  -0.00578   0.00000  -0.00601  -0.00600  -1.08180
   D25        2.06498  -0.00529   0.00000  -0.00408  -0.00407   2.06091
   D26       -2.88014   0.00113   0.00000  -0.00070  -0.00072  -2.88086
   D27        0.26063   0.00162   0.00000   0.00123   0.00121   0.26185
   D28       -0.93427  -0.00274   0.00000   0.00537   0.00536  -0.92890
   D29        1.17793  -0.00588   0.00000  -0.00579  -0.00577   1.17216
   D30       -3.01353  -0.00541   0.00000  -0.00477  -0.00476  -3.01828
   D31        0.97126   0.01099   0.00000   0.02165   0.02163   0.99289
   D32        3.08345   0.00786   0.00000   0.01049   0.01050   3.09395
   D33       -1.10800   0.00832   0.00000   0.01151   0.01151  -1.09649
   D34        2.84334  -0.00148   0.00000   0.00464   0.00462   2.84796
   D35       -1.32765  -0.00461   0.00000  -0.00652  -0.00651  -1.33416
   D36        0.76408  -0.00415   0.00000  -0.00550  -0.00550   0.75858
   D37        1.05607   0.00134   0.00000   0.01154   0.01157   1.06764
   D38       -3.01134  -0.00449   0.00000  -0.01610  -0.01617  -3.02751
   D39       -1.10844   0.00072   0.00000   0.00479   0.00484  -1.10360
   D40       -3.13326   0.00259   0.00000   0.01475   0.01477  -3.11849
   D41       -0.91748  -0.00324   0.00000  -0.01290  -0.01297  -0.93045
   D42        0.98541   0.00197   0.00000   0.00799   0.00805   0.99346
   D43       -1.03927   0.00315   0.00000   0.01594   0.01595  -1.02332
   D44        1.17651  -0.00268   0.00000  -0.01170  -0.01178   1.16472
   D45        3.07940   0.00253   0.00000   0.00918   0.00923   3.08863
   D46        3.13702   0.00084   0.00000   0.00205   0.00205   3.13907
   D47        0.00384   0.00017   0.00000  -0.00028  -0.00028   0.00356
   D48       -0.00379   0.00037   0.00000   0.00020   0.00019  -0.00359
   D49       -3.13696  -0.00030   0.00000  -0.00214  -0.00214  -3.13910
[...]
 Alpha virt. eigenvalues --    2.23362   2.24040   2.25513   2.28892   2.32137
 Alpha virt. eigenvalues --    2.35354   2.35461   2.37598   2.38758   2.39491
 Alpha virt. eigenvalues --    2.40508   2.41330   2.43101   2.43679   2.45024
 Alpha virt. eigenvalues --    2.46119   2.48520   2.50289   2.50529   2.52534
 Alpha virt. eigenvalues --    2.56573   2.59018   2.61862   2.62665   2.67332
 Alpha virt. eigenvalues --    2.70935   2.71547   2.73053   2.73981   2.76630
 Alpha virt. eigenvalues --    2.77527   2.78871   2.80003   2.81067   2.81839
 Alpha virt. eigenvalues --    2.82465   2.83815   2.87099   2.89980   2.91666
 Alpha virt. eigenvalues --    2.93260   2.96239   2.97176   2.99616   3.02716
 Alpha virt. eigenvalues --    3.03819   3.04189   3.05971   3.08711   3.09984
 Alpha virt. eigenvalues --    3.12354   3.13225   3.16289   3.20928   3.24446
 Alpha virt. eigenvalues --    3.28876   3.31409   3.32511   3.34469   3.47557
 Alpha virt. eigenvalues --    3.58546   3.71238   3.74154   3.82654
          Condensed to atoms (all electrons):
               1          2          3          4          5          6
     1  C    5.738098   0.352990  -0.141290   0.255416   0.002724  -0.000578
     2  C    0.352990   4.449350   0.636642  -0.016508  -0.000908   0.000199
     3  O   -0.141290   0.636642   7.928187   0.016851  -0.017128   0.000478
     4  C    0.255416  -0.016508   0.016851   5.474403  -0.031412  -0.012681
     5  C    0.002724  -0.000908  -0.017128  -0.031412   4.540178   0.395592
     6  H   -0.000578   0.000199   0.000478  -0.012681   0.395592   0.592380
     7  H   -0.000490   0.000014   0.000255   0.005240   0.397469  -0.021129
     8  H   -0.002443   0.000397   0.041298  -0.003706   0.385454  -0.012187
     9  N   -0.092104  -0.004904   0.001554   0.095380   0.303744  -0.015111
    10  H    0.001668   0.006778   0.002440   0.012836  -0.014502   0.005528
    11  H    0.006530  -0.000331  -0.000008  -0.004782  -0.015639  -0.006060
    12  C   -0.051491   0.010352   0.000818   0.166169   0.004263   0.000661
    13  C   -0.014892   0.000362  -0.000004  -0.097465   0.000064   0.000154
    14  C    0.000757  -0.000005  -0.000000   0.013082   0.000009  -0.000001
    15  C    0.000004   0.000000  -0.000000  -0.001744  -0.000001  -0.000000
    16  C   -0.000469   0.000007  -0.000000   0.021152  -0.000001  -0.000005
    17  C    0.007217  -0.000553  -0.000003  -0.089717   0.000139  -0.000151
    18  H    0.018653  -0.000762  -0.000036  -0.014645   0.000026  -0.000023
    19  H   -0.000018  -0.000001   0.000000  -0.000297  -0.000000  -0.000000
    20  H    0.000001   0.000000   0.000000   0.000020   0.000000   0.000000
    21  H    0.000005  -0.000000   0.000000  -0.000276  -0.000000  -0.000000
    22  H    0.000442  -0.000025   0.000004  -0.034898  -0.000089  -0.000080
    23  C   -0.043451  -0.016346  -0.016171   0.402142   0.020657   0.007122
    24  H   -0.024617   0.003024   0.024916   0.007937   0.004760  -0.002372
    25  H   -0.000229  -0.001285   0.000018  -0.009024  -0.000055   0.000110
    26  H    0.009573   0.000999   0.000052   0.004267  -0.002094   0.001062
    27  H    0.404036  -0.010857   0.004199  -0.062927  -0.000052   0.000004
    28  O   -0.131486   0.364730  -0.083526   0.005267  -0.000041   0.000001
    29  C    0.010640  -0.039267   0.001375  -0.000479   0.000006   0.000000
    30  H    0.000165   0.005688   0.001056   0.000001  -0.000000  -0.000000
    31  H    0.000779  -0.005484   0.009389   0.000055   0.000004  -0.000000
    32  H    0.001088  -0.003953   0.008334   0.000047  -0.000005  -0.000000
               7          8          9         10         11         12
     1  C   -0.000490  -0.002443  -0.092104   0.001668   0.006530  -0.051491
     2  C    0.000014   0.000397  -0.004904   0.006778  -0.000331   0.010352
     3  O    0.000255   0.041298   0.001554   0.002440  -0.000008   0.000818
     4  C    0.005240  -0.003706   0.095380   0.012836  -0.004782   0.166169
     5  C    0.397469   0.385454   0.303744  -0.014502  -0.015639   0.004263
     6  H   -0.021129  -0.012187  -0.015111   0.005528  -0.006060   0.000661
     7  H    0.588704  -0.014130  -0.016519  -0.006378  -0.005450  -0.000278
     8  H   -0.014130   0.520917  -0.016647  -0.004431   0.005268   0.000369
     9  N   -0.016519  -0.016647   6.306260   0.320780   0.332742  -0.025179
    10  H   -0.006378  -0.004431   0.320780   0.491692  -0.007054  -0.008732
    11  H   -0.005450   0.005268   0.332742  -0.007054   0.509029  -0.008659
    12  C   -0.000278   0.000369  -0.025179  -0.008732  -0.008659   5.496721
    13  C   -0.000073  -0.000020  -0.010233   0.005240   0.005569   0.273910
    14  C   -0.000001  -0.000001  -0.000343   0.000123  -0.000338   0.071190
    15  C    0.000000   0.000000   0.000046   0.000008  -0.000030  -0.142768
    16  C    0.000000  -0.000001  -0.000177   0.000003  -0.000306   0.065551
    17  C   -0.000005  -0.000017  -0.000185  -0.000370   0.002138   0.344466
    18  H   -0.000012   0.000008  -0.003162   0.002183   0.001868  -0.080221
    19  H    0.000000   0.000000   0.000003  -0.000006   0.000013   0.014306
    20  H   -0.000000   0.000000  -0.000000   0.000000  -0.000003  -0.001482
    21  H    0.000000   0.000000   0.000002  -0.000000   0.000002   0.014434
    22  H    0.000000   0.000011   0.000377  -0.000021   0.000106  -0.050056
    23  C   -0.000267  -0.001558  -0.060136   0.006035   0.002688  -0.069459
    24  H    0.000183  -0.001095  -0.010356   0.000259  -0.000160   0.007030
    25  H   -0.000017   0.000088   0.005998  -0.000250  -0.000241  -0.008941
    26  H    0.000314  -0.000663  -0.002467  -0.000740   0.000621  -0.016191
    27  H    0.000011  -0.000131   0.003454   0.000461  -0.000100  -0.004255
    28  O    0.000001   0.000299   0.000052  -0.000509   0.000003  -0.000017
    29  C    0.000000  -0.000037   0.000012  -0.000041  -0.000001   0.000005
    30  H   -0.000000   0.000001   0.000000  -0.000002   0.000000  -0.000001
    31  H    0.000000  -0.000046   0.000004  -0.000032  -0.000000   0.000001
    32  H   -0.000002   0.000043  -0.000027   0.000167   0.000001  -0.000004
              13         14         15         16         17         18
     1  C   -0.014892   0.000757   0.000004  -0.000469   0.007217   0.018653
     2  C    0.000362  -0.000005   0.000000   0.000007  -0.000553  -0.000762
     3  O   -0.000004  -0.000000  -0.000000  -0.000000  -0.000003  -0.000036
     4  C   -0.097465   0.013082  -0.001744   0.021152  -0.089717  -0.014645
     5  C    0.000064   0.000009  -0.000001  -0.000001   0.000139   0.000026
     6  H    0.000154  -0.000001  -0.000000  -0.000005  -0.000151  -0.000023
     7  H   -0.000073  -0.000001   0.000000   0.000000  -0.000005  -0.000012
     8  H   -0.000020  -0.000001   0.000000  -0.000001  -0.000017   0.000008
     9  N   -0.010233  -0.000343   0.000046  -0.000177  -0.000185  -0.003162
    10  H    0.005240   0.000123   0.000008   0.000003  -0.000370   0.002183
    11  H    0.005569  -0.000338  -0.000030  -0.000306   0.002138   0.001868
    12  C    0.273910   0.071190  -0.142768   0.065551   0.344466  -0.080221
    13  C    5.177315   0.323131   0.073158  -0.131977   0.031708   0.453623
    14  C    0.323131   5.021749   0.296291   0.075206  -0.122568  -0.055165
    15  C    0.073158   0.296291   5.076892   0.305240   0.068687   0.013102
    16  C   -0.131977   0.075206   0.305240   5.061495   0.301165  -0.002029
    17  C    0.031708  -0.122568   0.068687   0.301165   5.068345   0.012879
    18  H    0.453623  -0.055165   0.013102  -0.002029   0.012879   0.643064
    19  H   -0.063372   0.449286  -0.067073   0.012345  -0.001627  -0.011541
    20  H    0.012520  -0.064075   0.447532  -0.062609   0.012556  -0.000187
    21  H   -0.001599   0.012221  -0.067267   0.445036  -0.058966   0.000021
    22  H    0.013412  -0.001868   0.013116  -0.067820   0.448237  -0.000137
    23  C    0.014782  -0.000475   0.000143  -0.000907   0.009332   0.000964
    24  H   -0.000096   0.000006   0.000003  -0.000045   0.000706   0.000051
    25  H   -0.000133   0.000024  -0.000048   0.000671   0.000075  -0.000029
    26  H   -0.001273  -0.000002  -0.000050   0.000934   0.004108  -0.000094
    27  H   -0.003706   0.000733  -0.000098   0.000005   0.000463   0.000715
    28  O   -0.000021  -0.000000  -0.000000   0.000000   0.000000  -0.000018
    29  C    0.000000   0.000000  -0.000000   0.000000  -0.000000  -0.000004
    30  H    0.000000  -0.000000   0.000000  -0.000000   0.000000   0.000000
    31  H   -0.000000  -0.000000  -0.000000  -0.000000   0.000000  -0.000000
    32  H    0.000001   0.000000  -0.000000   0.000000  -0.000000   0.000000
              19         20         21         22         23         24
     1  C   -0.000018   0.000001   0.000005   0.000442  -0.043451  -0.024617
     2  C   -0.000001   0.000000  -0.000000  -0.000025  -0.016346   0.003024
     3  O    0.000000   0.000000   0.000000   0.000004  -0.016171   0.024916
     4  C   -0.000297   0.000020  -0.000276  -0.034898   0.402142   0.007937
     5  C   -0.000000   0.000000  -0.000000  -0.000089   0.020657   0.004760
     6  H   -0.000000   0.000000  -0.000000  -0.000080   0.007122  -0.002372
     7  H    0.000000  -0.000000   0.000000   0.000000  -0.000267   0.000183
     8  H    0.000000   0.000000   0.000000   0.000011  -0.001558  -0.001095
     9  N    0.000003  -0.000000   0.000002   0.000377  -0.060136  -0.010356
    10  H   -0.000006   0.000000  -0.000000  -0.000021   0.006035   0.000259
    11  H    0.000013  -0.000003   0.000002   0.000106   0.002688  -0.000160
    12  C    0.014306  -0.001482   0.014434  -0.050056  -0.069459   0.007030
    13  C   -0.063372   0.012520  -0.001599   0.013412   0.014782  -0.000096
    14  C    0.449286  -0.064075   0.012221  -0.001868  -0.000475   0.000006
    15  C   -0.067073   0.447532  -0.067267   0.013116   0.000143   0.000003
    16  C    0.012345  -0.062609   0.445036  -0.067820  -0.000907  -0.000045
    17  C   -0.001627   0.012556  -0.058966   0.448237   0.009332   0.000706
    18  H   -0.011541  -0.000187   0.000021  -0.000137   0.000964   0.000051
    19  H    0.647173  -0.010563  -0.000208   0.000023   0.000004  -0.000000
    20  H   -0.010563   0.644720  -0.010587  -0.000202   0.000000   0.000000
    21  H   -0.000208  -0.010587   0.649006  -0.011790  -0.000002  -0.000000
    22  H    0.000023  -0.000202  -0.011790   0.653589   0.019737   0.000023
    23  C    0.000004   0.000000  -0.000002   0.019737   4.543033   0.373661
    24  H   -0.000000   0.000000  -0.000000   0.000023   0.373661   0.594139
    25  H    0.000000  -0.000000   0.000011   0.000632   0.388107  -0.012008
    26  H    0.000000  -0.000000   0.000019  -0.001145   0.355334  -0.027058
    27  H    0.000040  -0.000001   0.000000   0.000011   0.002021   0.000048
    28  O    0.000000  -0.000000   0.000000   0.000000  -0.000166   0.000068
    29  C   -0.000000   0.000000  -0.000000  -0.000000   0.000009  -0.000067
    30  H   -0.000000  -0.000000   0.000000  -0.000000   0.000002  -0.000003
    31  H    0.000000  -0.000000  -0.000000  -0.000000  -0.000037   0.000159
    32  H   -0.000000  -0.000000   0.000000  -0.000000   0.000014  -0.000049
              25         26         27         28         29         30
     1  C   -0.000229   0.009573   0.404036  -0.131486   0.010640   0.000165
     2  C   -0.001285   0.000999  -0.010857   0.364730  -0.039267   0.005688
     3  O    0.000018   0.000052   0.004199  -0.083526   0.001375   0.001056
     4  C   -0.009024   0.004267  -0.062927   0.005267  -0.000479   0.000001
     5  C   -0.000055  -0.002094  -0.000052  -0.000041   0.000006  -0.000000
     6  H    0.000110   0.001062   0.000004   0.000001   0.000000  -0.000000
     7  H   -0.000017   0.000314   0.000011   0.000001   0.000000  -0.000000
     8  H    0.000088  -0.000663  -0.000131   0.000299  -0.000037   0.000001
     9  N    0.005998  -0.002467   0.003454   0.000052   0.000012   0.000000
    10  H   -0.000250  -0.000740   0.000461  -0.000509  -0.000041  -0.000002
    11  H   -0.000241   0.000621  -0.000100   0.000003  -0.000001   0.000000
    12  C   -0.008941  -0.016191  -0.004255  -0.000017   0.000005  -0.000001
    13  C   -0.000133  -0.001273  -0.003706  -0.000021   0.000000   0.000000
    14  C    0.000024  -0.000002   0.000733  -0.000000   0.000000  -0.000000
    15  C   -0.000048  -0.000050  -0.000098  -0.000000  -0.000000   0.000000
    16  C    0.000671   0.000934   0.000005   0.000000   0.000000  -0.000000
    17  C    0.000075   0.004108   0.000463   0.000000  -0.000000   0.000000
    18  H   -0.000029  -0.000094   0.000715  -0.000018  -0.000004   0.000000
    19  H    0.000000   0.000000   0.000040   0.000000  -0.000000  -0.000000
    20  H   -0.000000  -0.000000  -0.000001  -0.000000   0.000000  -0.000000
    21  H    0.000011   0.000019   0.000000   0.000000  -0.000000   0.000000
    22  H    0.000632  -0.001145   0.000011   0.000000  -0.000000  -0.000000
    23  C    0.388107   0.355334   0.002021  -0.000166   0.000009   0.000002
    24  H   -0.012008  -0.027058   0.000048   0.000068  -0.000067  -0.000003
    25  H    0.604331  -0.024927   0.000784  -0.000010  -0.000001  -0.000000
    26  H   -0.024927   0.682684  -0.000158  -0.000000   0.000000   0.000000
    27  H    0.000784  -0.000158   0.658657   0.006003  -0.000183  -0.000177
    28  O   -0.000010  -0.000000   0.006003   8.011954   0.289110  -0.025949
    29  C   -0.000001   0.000000  -0.000183   0.289110   4.392627   0.395434
    30  H   -0.000000   0.000000  -0.000177  -0.025949   0.395434   0.645781
    31  H    0.000001   0.000001   0.000027  -0.030502   0.401684  -0.027323
    32  H   -0.000000  -0.000001   0.000032  -0.031990   0.397284  -0.027669
              31         32
     1  C    0.000779   0.001088
     2  C   -0.005484  -0.003953
     3  O    0.009389   0.008334
     4  C    0.000055   0.000047
     5  C    0.000004  -0.000005
     6  H   -0.000000  -0.000000
     7  H    0.000000  -0.000002
     8  H   -0.000046   0.000043
     9  N    0.000004  -0.000027
    10  H   -0.000032   0.000167
    11  H   -0.000000   0.000001
    12  C    0.000001  -0.000004
    13  C   -0.000000   0.000001
    14  C   -0.000000   0.000000
    15  C   -0.000000  -0.000000
    16  C   -0.000000   0.000000
    17  C    0.000000  -0.000000
    18  H   -0.000000   0.000000
    19  H    0.000000  -0.000000
    20  H   -0.000000  -0.000000
    21  H   -0.000000   0.000000
    22  H   -0.000000  -0.000000
    23  C   -0.000037   0.000014
    24  H    0.000159  -0.000049
    25  H    0.000001  -0.000000
    26  H    0.000001  -0.000001
    27  H    0.000027   0.000032
    28  O   -0.030502  -0.031990
    29  C    0.401684   0.397284
    30  H   -0.027323  -0.027669
    31  H    0.663677  -0.038577
    32  H   -0.038577   0.676421
 Mulliken charges:
               1
     1  C   -0.307228
     2  C    0.269657
     3  O   -0.419699
     4  C   -0.099703
     5  C    0.026836
     6  H    0.067089
     7  H    0.072559
     8  H    0.102960
     9  N   -0.112858
    10  H    0.186866
    11  H    0.182584
    12  C   -0.002511
    13  C   -0.060086
    14  C   -0.018966
    15  C   -0.015143
    16  C   -0.022465
    17  C   -0.038059
    18  H    0.020910
    19  H    0.031514
    20  H    0.032359
    21  H    0.029940
    22  H    0.018413
    23  C    0.063188
    24  H    0.060954
    25  H    0.056350
    26  H    0.016893
    27  H    0.000939
    28  O   -0.373251
    29  C    0.151896
    30  H    0.032996
    31  H    0.026219
    32  H    0.018845
 Sum of Mulliken charges =  -0.00000
 Mulliken charges with hydrogens summed into heavy atoms:
               1
     1  C   -0.306288
     2  C    0.269657
     3  O   -0.419699
     4  C   -0.099703
     5  C    0.269445
     9  N    0.256592
    12  C   -0.002511
    13  C   -0.039176
    14  C    0.012548
    15  C    0.017217
    16  C    0.007475
    17  C   -0.019646
    23  C    0.197385
    28  O   -0.373251
    29  C    0.229955
 Electronic spatial extent (au):  <R**2>=           3887.8607
 Charge=             -0.0000 electrons
 Dipole moment (field-independent basis, Debye):
    X=              5.2347    Y=              4.0256    Z=             -3.3729  Tot=              7.4151
 Quadrupole moment (field-independent basis, Debye-Ang):
   XX=            -92.4997   YY=            -85.3924   ZZ=            -82.7110
   XY=              0.2289   XZ=              2.1489   YZ=             -1.0251
 Traceless Quadrupole moment (field-independent basis, Debye-Ang):
   XX=             -5.6320   YY=              1.4753   ZZ=              4.1567
   XY=              0.2289   XZ=              2.1489   YZ=             -1.0251
 Octapole moment (field-independent basis, Debye-Ang**2):
  XXX=             15.3056  YYY=             30.7316  ZZZ=            -14.9349  XYY=             -3.6785
  XXY=            -24.9990  XXZ=              2.0817  XZZ=             -6.1997  YZZ=             11.7464
  YYZ=            -16.7773  XYZ=             10.1319
 Hexadecapole moment (field-independent basis, Debye-Ang**3):
 XXXX=          -3435.0987 YYYY=           -913.3905 ZZZZ=           -450.4706 XXXY=             50.3075
 XXXZ=             24.7941 YYYX=             -2.7299 YYYZ=            -21.6987 ZZZX=              7.9232
 ZZZY=            -13.7734 XXYY=           -775.8035 XXZZ=           -683.5574 YYZZ=           -219.4839
 XXYZ=             29.7439 YYXZ=             -8.2222 ZZXY=             -1.2280
 N-N= 1.010474790420D+03 E-N=-3.583081356552D+03  KE= 6.648222491364D+02
 Unable to Open any file for archive entry.
 1\1\GINC-NODE-006\FTS\RwB97XD\def2SVP\C12H17N1O2\JP2658\18-Dec-2023\0\
 \# wb97xd def2svp scrf=(iefpcm,solvent=toluene) opt=(calcfc,ts,noeigen
 ,maxcycles=50,maxstep=10)\\TS-92.out\\0,1\C,-0.8879388333,-0.734332165
 ,-0.0690371511\C,-2.2760271019,-0.5381893254,-0.1019511343\O,-2.886670
 7944,0.5429897411,-0.0227353417\C,0.0197343961,0.3782919633,0.26881837
 87\C,-0.8911969044,2.7915511715,-0.6189372199\H,-0.3259325581,3.381433
 3449,0.1101666617\H,-0.9929249325,3.3652062187,-1.5496417029\H,-1.8776
 452454,2.5177993206,-0.2300271799\N,-0.1737258128,1.5359709326,-0.9095
 075677\H,-0.6931972748,0.9976789072,-1.6102447518\H,0.7479908273,1.735
 891954,-1.3061907664\C,1.4862948885,-0.0224058989,0.1143705538\C,1.895
 9222326,-0.6921971046,-1.0496777363\C,3.2285305473,-1.0438606502,-1.24
 64623358\C,4.1840714178,-0.7379784979,-0.2770701627\C,3.7916742714,-0.
 0767596207,0.8838357662\C,2.4565995019,0.2825699987,1.0751952498\H,1.1
 499855027,-0.9544165277,-1.8039522333\H,3.5208254685,-1.5677261943,-2.
 1592344933\H,5.229333831,-1.0172502944,-0.4258412095\H,4.5288828739,0.
 1637093458,1.6530552859\H,2.1796116861,0.7972456261,1.9954287234\C,-0.
 2865011514,1.0726688775,1.5946602417\H,-1.357022678,1.3020653974,1.646
 0928\H,-0.0572328288,0.3630949745,2.4005346875\H,0.2960088761,1.990740
 5093,1.76854038\H,-0.4801429247,-1.7332387123,-0.2105397575\O,-2.98967
 69725,-1.6955468903,-0.2852388564\C,-4.3809470742,-1.5523561722,-0.419
 4482517\H,-4.7871091301,-2.5628135807,-0.5608309809\H,-4.8365249399,-1
 .0967799667,0.4740701677\H,-4.649759164,-0.926636682,-1.2863200631\\Ve
 rsion=ES64L-G16RevC.01\State=1-A\HF=-671.9706479\RMSD=4.647e-09\RMSF=3
 .755e-06\Dipole=2.0237496,1.8918986,-0.9143501\Quadrupole=-4.2724777,1
 .4566237,2.815854,-0.3252406,1.3989674,-1.0441566\PG=C01 [X(C12H17N1O2
 )]\\@
 The archive entry for this job was punched.


 ... A MOLECULAR SYSTEM ... (PASSES) ... FROM ONE STATE OF EQUILIBRIUM 
 TO ANOTHER ... BY MEANS OF ALL POSSIBLE INTERMEDIATE PATHS, 
 BUT THE PATH MOST ECONOMICAL OF ENERGY WILL BE THE MORE OFTEN TRAVELED.

                      -- HENRY EYRING, 1945
 Job cpu time:       0 days  6 hours 45 minutes 58.5 seconds.
 Elapsed time:       0 days  0 hours 34 minutes 33.9 seconds.
 File lengths (MBytes):  RWF=    407 Int=      0 D2E=      0 Chk=     16 Scr=      1
 Normal termination of Gaussian 16 at Mon Dec 18 21:24:54 2023.
