Unloading slurm/anatra/current
  ERROR: No such file or directory on
    '/cm/local/modulefiles/slurm/anatra/current'
environment: line 0: unalias: gv: not found
environment: line 0: unalias: sl: not found
 Entering Gaussian System, Link 0=g16
 Initial command:
 /apps/gaussian/g16/C.01/g16/l1.exe "/local/jobs/1150840/Gau-3954916.inp" -scrdir="/local/jobs/1150840/"
 Entering Link 1 = /apps/gaussian/g16/C.01/g16/l1.exe PID=   3954918.
  
 Copyright (c) 1988-2019, Gaussian, Inc.  All Rights Reserved.
  
 This is part of the Gaussian(R) 16 program.  It is based on
 the Gaussian(R) 09 system (copyright 2009, Gaussian, Inc.),
 the Gaussian(R) 03 system (copyright 2003, Gaussian, Inc.),
 the Gaussian(R) 98 system (copyright 1998, Gaussian, Inc.),
 the Gaussian(R) 94 system (copyright 1995, Gaussian, Inc.),
 the Gaussian 92(TM) system (copyright 1992, Gaussian, Inc.),
 the Gaussian 90(TM) system (copyright 1990, Gaussian, Inc.),
 the Gaussian 88(TM) system (copyright 1988, Gaussian, Inc.),
 the Gaussian 86(TM) system (copyright 1986, Carnegie Mellon
 University), and the Gaussian 82(TM) system (copyright 1983,
 Carnegie Mellon University). Gaussian is a federally registered
 trademark of Gaussian, Inc.
  
 This software contains proprietary and confidential information,
 including trade secrets, belonging to Gaussian, Inc.
  
 This software is provided under written license and may be
 used, copied, transmitted, or stored only in accord with that
 written license.
  
 The following legend is applicable only to US Government
 contracts under FAR:
  
                    RESTRICTED RIGHTS LEGEND
  
 Use, reproduction and disclosure by the US Government is
 subject to restrictions as set forth in subparagraphs (a)
 and (c) of the Commercial Computer Software - Restricted
 Rights clause in FAR 52.227-19.
  
 Gaussian, Inc.
 340 Quinnipiac St., Bldg. 40, Wallingford CT 06492
  
  
 ---------------------------------------------------------------
 Warning -- This program may not be used in any manner that
 competes with the business of Gaussian, Inc. or will provide
 assistance to any competitor of Gaussian, Inc.  The licensee
 of this program is prohibited from giving any competitor of
 Gaussian, Inc. access to this program.  By using this program,
 the user acknowledges that Gaussian, Inc. is engaged in the
 business of creating and licensing software in the field of
 computational chemistry and represents and warrants to the
 licensee that it is not a competitor of Gaussian, Inc. and that
 it will not use this program in any manner prohibited above.
 ---------------------------------------------------------------
  

 Cite this work as:
 Gaussian 16, Revision C.01,
 M. J. Frisch, G. W. Trucks, H. B. Schlegel, G. E. Scuseria, 
 M. A. Robb, J. R. Cheeseman, G. Scalmani, V. Barone, 
 G. A. Petersson, H. Nakatsuji, X. Li, M. Caricato, A. V. Marenich, 
 J. Bloino, B. G. Janesko, R. Gomperts, B. Mennucci, H. P. Hratchian, 
 J. V. Ortiz, A. F. Izmaylov, J. L. Sonnenberg, D. Williams-Young, 
 F. Ding, F. Lipparini, F. Egidi, J. Goings, B. Peng, A. Petrone, 
 T. Henderson, D. Ranasinghe, V. G. Zakrzewski, J. Gao, N. Rega, 
 G. Zheng, W. Liang, M. Hada, M. Ehara, K. Toyota, R. Fukuda, 
 J. Hasegawa, M. Ishida, T. Nakajima, Y. Honda, O. Kitao, H. Nakai, 
 T. Vreven, K. Throssell, J. A. Montgomery, Jr., J. E. Peralta, 
 F. Ogliaro, M. J. Bearpark, J. J. Heyd, E. N. Brothers, K. N. Kudin, 
 V. N. Staroverov, T. A. Keith, R. Kobayashi, J. Normand, 
 K. Raghavachari, A. P. Rendell, J. C. Burant, S. S. Iyengar, 
 J. Tomasi, M. Cossi, J. M. Millam, M. Klene, C. Adamo, R. Cammi, 
 J. W. Ochterski, R. L. Martin, K. Morokuma, O. Farkas, 
 J. B. Foresman, and D. J. Fox, Gaussian, Inc., Wallingford CT, 2019.
 
 ******************************************
 Gaussian 16:  ES64L-G16RevC.01  3-Jul-2019
                19-Dec-2023 
 ******************************************
 %chk=TS-92_opt_sqm.chk
 %nprocshared=12
 Will use up to   12 processors via shared memory.
 %mem=48GB
 ----------------------------------------------------------------------
 # wb97xd chkbasis guess=read geom=allchk scrf=(iefpcm,solvent=toluene)
  opt=(readfc,ts,noeigen,maxcycles=50,maxstep=10)
 ----------------------------------------------------------------------
 1/5=1,6=50,8=10,10=3,11=1,18=20,26=3,29=7,38=1/1,3;
 2/9=110,12=2,40=1/2;
 3/5=7,6=2,11=2,14=-4,25=1,30=1,67=1,70=2201,71=1,72=13,74=-58,116=-2/1,2,3;
 4/5=1/1;
 5/5=2,38=6,53=13/2;
 6/7=2,8=2,9=2,10=2,28=1/1;
 7//1,2,3,16;
 1/5=1,6=50,8=10,11=1,18=20,26=3/3(2);
 2/9=110/2;
 99//99;
 2/9=110/2;
 3/5=7,6=1,11=2,14=-2,25=1,30=1,70=2205,71=1,72=13,74=-58,82=7/1,2,3;
 4/5=5,16=3,69=1/1;
 5/5=2,38=5,53=13/2;
 7//1,2,3,16;
 1/5=1,6=50,8=10,11=1,18=20,26=3/3(-5);
 2/9=110/2;
 6/7=2,8=2,9=2,10=2,19=2,28=1/1;
 99/9=1/99;
 Structure from the checkpoint file:  "TS-92_opt_sqm.chk"
 ---------
 TS-92.out
 ---------
 Charge =  0 Multiplicity = 1
 Redundant internal coordinates found in file.  (old form).
 C,0,-0.9294843811,-0.5353689986,-0.2415959552
 C,0,-2.3192773932,-0.4363002378,-0.0694742104
 O,0,-3.002729843,0.5475472377,0.2639018259
 C,0,0.044178143,0.4851058708,0.2060558392
 C,0,-1.0565946293,2.6748266524,-0.7689910827
 H,0,-0.9129523509,3.3173828755,0.1065273995
 H,0,-1.0643104557,3.2912471227,-1.6747607276
 H,0,-1.9857956793,2.1007307831,-0.6372956056
 N,0,0.0630159271,1.7089322382,-0.8462611005
 H,0,0.0402020616,1.2360818901,-1.7491326533
 H,0,0.9625395415,2.197771694,-0.7872203169
 C,0,1.4865946916,-0.0252948193,0.0894785036
 C,0,1.8808581599,-0.750373099,-1.0471543105
 C,0,3.1988972306,-1.1638221647,-1.2161759135
 C,0,4.1598536498,-0.8604101494,-0.2509711521
 C,0,3.7857191046,-0.1401843836,0.8794642491
 C,0,2.4631548223,0.2758385414,1.0457107728
 H,0,1.1378181152,-1.0049729552,-1.8066312818
 H,0,3.476624852,-1.7334015858,-2.1059909108
 H,0,5.1941682321,-1.1859959138,-0.3811706659
 H,0,4.5255546405,0.1029808676,1.645308052
 H,0,2.2018874091,0.8307915709,1.9472210631
 C,0,-0.2728820496,1.1239668018,1.5585497018
 H,0,-1.3465295392,1.3436266443,1.6101459428
 H,0,-0.0391047558,0.3924651282,2.344065673
 H,0,0.2977510014,2.0457883063,1.7579301743
 H,0,-0.5451393928,-1.5210648806,-0.4994785568
 O,0,-2.9623894528,-1.6179580674,-0.3543006902
 C,0,-4.3654505022,-1.6006976035,-0.3018827354
 H,0,-4.7103456965,-2.5087451201,-0.81675392
 H,0,-4.7350889445,-1.6130315133,0.7367906909
 H,0,-4.7854525167,-0.7110427328,-0.794028099
 Recover connectivity data from disk.

 GradGradGradGradGradGradGradGradGradGradGradGradGradGradGradGradGradGrad
 Berny optimization.
 Initialization pass.
 Force constant matrix read from checkpoint file:
 "TS-92_opt_sqm.chk"
                           ----------------------------
                           !    Initial Parameters    !
                           ! (Angstroms and Degrees)  !
 --------------------------                            --------------------------
 ! Name  Definition              Value          Derivative Info.                !
 --------------------------------------------------------------------------------
 ! R1    R(1,2)                  1.4039         D2E/DX2 =    0.3868             !
 ! R2    R(1,4)                  1.4798         D2E/DX2 =    0.6509             !
 ! R3    R(1,27)                 1.089          D2E/DX2 =    0.2864             !
 ! R4    R(2,3)                  1.2435         D2E/DX2 =    0.8174             !
 ! R5    R(2,28)                 1.3751         D2E/DX2 =    0.4559             !
 ! R6    R(4,9)                  1.6141         D2E/DX2 =    0.0811             !
 ! R7    R(4,12)                 1.5345         D2E/DX2 =    0.3295             !
 ! R8    R(4,23)                 1.529          D2E/DX2 =    0.3264             !
 ! R9    R(5,6)                  1.0955         D2E/DX2 =    0.2734             !
 ! R10   R(5,7)                  1.0957         D2E/DX2 =    0.2682             !
 ! R11   R(5,8)                  1.1002         D2E/DX2 =    0.2757             !
 ! R12   R(5,9)                  1.4807         D2E/DX2 =    0.4883             !
 ! R13   R(9,10)                 1.0195         D2E/DX2 =    0.3091             !
 ! R14   R(9,11)                 1.0255         D2E/DX2 =    0.2933             !
 ! R15   R(12,13)                1.4047         D2E/DX2 =    0.439              !
 ! R16   R(12,17)                1.3995         D2E/DX2 =    0.449              !
 ! R17   R(13,14)                1.3917         D2E/DX2 =    0.462              !
 ! R18   R(13,18)                1.0926         D2E/DX2 =    0.2733             !
 ! R19   R(14,15)                1.3954         D2E/DX2 =    0.4845             !
 ! R20   R(14,19)                1.0924         D2E/DX2 =    0.2739             !
 ! R21   R(15,16)                1.3916         D2E/DX2 =    0.4826             !
 ! R22   R(15,20)                1.0921         D2E/DX2 =    0.2743             !
 ! R23   R(16,17)                1.3964         D2E/DX2 =    0.4597             !
 ! R24   R(16,21)                1.0922         D2E/DX2 =    0.2737             !
 ! R25   R(17,22)                1.0904         D2E/DX2 =    0.2738             !
 ! R26   R(23,24)                1.0971         D2E/DX2 =    0.2733             !
 ! R27   R(23,25)                1.0985         D2E/DX2 =    0.2668             !
 ! R28   R(23,26)                1.1023         D2E/DX2 =    0.2667             !
 ! R29   R(28,29)                1.4041         D2E/DX2 =    0.4197             !
 ! R30   R(29,30)                1.0994         D2E/DX2 =    0.2663             !
 ! R31   R(29,31)                1.1026         D2E/DX2 =    0.2633             !
 ! R32   R(29,32)                1.1            D2E/DX2 =    0.2637             !
 ! A1    A(2,1,4)              124.4443         D2E/DX2 =    0.1814             !
 ! A2    A(2,1,27)             116.2513         D2E/DX2 =    0.107              !
 ! A3    A(4,1,27)             117.6213         D2E/DX2 =    0.1116             !
 ! A4    A(1,2,3)              129.2579         D2E/DX2 =    0.1549             !
 ! A5    A(1,2,28)             112.1439         D2E/DX2 =    0.1586             !
 ! A6    A(3,2,28)             118.579          D2E/DX2 =    0.1926             !
 ! A7    A(1,4,9)              109.47           D2E/DX2 =    0.0411             !
 ! A8    A(1,4,12)             111.4774         D2E/DX2 =    0.0408             !
 ! A9    A(1,4,23)             114.7892         D2E/DX2 =    0.0477             !
 ! A10   A(9,4,12)             101.0514         D2E/DX2 =    0.0398             !
 ! A11   A(9,4,23)             105.2065         D2E/DX2 =    0.0465             !
 ! A12   A(12,4,23)            113.6466         D2E/DX2 =    0.0423             !
 ! A13   A(6,5,7)              109.3679         D2E/DX2 =    0.0441             !
 ! A14   A(6,5,8)              108.7332         D2E/DX2 =    0.0455             !
 ! A15   A(6,5,9)              108.9769         D2E/DX2 =    0.1085             !
 ! A16   A(7,5,8)              112.743          D2E/DX2 =    0.0452             !
 ! A17   A(7,5,9)              109.2194         D2E/DX2 =    0.1133             !
 ! A18   A(8,5,9)              107.7272         D2E/DX2 =    0.1086             !
 ! A19   A(4,9,5)              116.8553         D2E/DX2 =    0.1515             !
 ! A20   A(4,9,10)             103.0294         D2E/DX2 =    0.0547             !
 ! A21   A(4,9,11)             109.5195         D2E/DX2 =    0.062              !
 ! A22   A(5,9,10)             109.3819         D2E/DX2 =    0.0671             !
 ! A23   A(5,9,11)             110.4448         D2E/DX2 =    0.0691             !
 ! A24   A(10,9,11)            106.9613         D2E/DX2 =    0.0151             !
 ! A25   A(4,12,13)            119.8021         D2E/DX2 =    0.1289             !
 ! A26   A(4,12,17)            122.1695         D2E/DX2 =    0.1346             !
 ! A27   A(13,12,17)           117.9099         D2E/DX2 =    0.0812             !
 ! A28   A(12,13,14)           121.1621         D2E/DX2 =    0.0781             !
 ! A29   A(12,13,18)           119.4641         D2E/DX2 =    0.0777             !
 ! A30   A(14,13,18)           119.3697         D2E/DX2 =    0.0794             !
 ! A31   A(13,14,15)           120.2399         D2E/DX2 =    0.0762             !
 ! A32   A(13,14,19)           119.6447         D2E/DX2 =    0.0763             !
 ! A33   A(15,14,19)           120.1142         D2E/DX2 =    0.0764             !
 ! A34   A(14,15,16)           119.2931         D2E/DX2 =    0.0758             !
 ! A35   A(14,15,20)           120.326          D2E/DX2 =    0.0762             !
 ! A36   A(16,15,20)           120.3809         D2E/DX2 =    0.0762             !
 ! A37   A(15,16,17)           120.3672         D2E/DX2 =    0.0762             !
 ! A38   A(15,16,21)           120.1778         D2E/DX2 =    0.0765             !
 ! A39   A(17,16,21)           119.455          D2E/DX2 =    0.0765             !
 ! A40   A(12,17,16)           121.0265         D2E/DX2 =    0.0775             !
 ! A41   A(12,17,22)           120.4779         D2E/DX2 =    0.0793             !
 ! A42   A(16,17,22)           118.4899         D2E/DX2 =    0.0814             !
 ! A43   A(4,23,24)            109.1586         D2E/DX2 =    0.0944             !
 ! A44   A(4,23,25)            108.0683         D2E/DX2 =    0.0841             !
 ! A45   A(4,23,26)            113.7065         D2E/DX2 =    0.0936             !
 ! A46   A(24,23,25)           107.9359         D2E/DX2 =    0.0425             !
 ! A47   A(24,23,26)           109.3086         D2E/DX2 =    0.0425             !
 ! A48   A(25,23,26)           108.5028         D2E/DX2 =    0.04               !
 ! A49   A(2,28,29)            116.6802         D2E/DX2 =    0.299              !
 ! A50   A(28,29,30)           106.6093         D2E/DX2 =    0.1102             !
 ! A51   A(28,29,31)           111.7173         D2E/DX2 =    0.118              !
 ! A52   A(28,29,32)           112.0089         D2E/DX2 =    0.1196             !
 ! A53   A(30,29,31)           109.0737         D2E/DX2 =    0.0529             !
 ! A54   A(30,29,32)           109.7975         D2E/DX2 =    0.0531             !
 ! A55   A(31,29,32)           107.6085         D2E/DX2 =    0.0535             !
 ! D1    D(4,1,2,3)             12.6677         D2E/DX2 =    0.0154             !
 ! D2    D(4,1,2,28)          -168.9749         D2E/DX2 =    0.0164             !
 ! D3    D(27,1,2,3)           177.4828         D2E/DX2 =    0.018              !
 ! D4    D(27,1,2,28)           -4.1598         D2E/DX2 =    0.0167             !
 ! D5    D(2,1,4,9)            -78.8357         D2E/DX2 =    0.0228             !
 ! D6    D(2,1,4,12)           170.2124         D2E/DX2 =    0.014              !
 ! D7    D(2,1,4,23)            39.1802         D2E/DX2 =    0.014              !
 ! D8    D(27,1,4,9)           116.5395         D2E/DX2 =    0.0172             !
 ! D9    D(27,1,4,12)            5.5875         D2E/DX2 =    0.0105             !
 ! D10   D(27,1,4,23)         -125.4446         D2E/DX2 =    0.0123             !
 ! D11   D(1,2,28,29)         -175.7799         D2E/DX2 =    0.0196             !
 ! D12   D(3,2,28,29)            2.7718         D2E/DX2 =    0.0152             !
 ! D13   D(1,4,9,5)             77.472          D2E/DX2 =    0.0197             !
 ! D14   D(1,4,9,10)           -42.4608         D2E/DX2 =    0.0191             !
 ! D15   D(1,4,9,11)          -156.0219         D2E/DX2 =    0.0201             !
 ! D16   D(12,4,9,5)          -164.8354         D2E/DX2 =    0.016              !
 ! D17   D(12,4,9,10)           75.2317         D2E/DX2 =    0.0181             !
 ! D18   D(12,4,9,11)          -38.3294         D2E/DX2 =    0.0177             !
 ! D19   D(23,4,9,5)           -46.3725         D2E/DX2 =    0.0181             !
 ! D20   D(23,4,9,10)         -166.3053         D2E/DX2 =    0.0196             !
 ! D21   D(23,4,9,11)           80.1335         D2E/DX2 =    0.0181             !
 ! D22   D(1,4,12,13)           42.2159         D2E/DX2 =    0.0127             !
 ! D23   D(1,4,12,17)         -141.8262         D2E/DX2 =    0.011              !
 ! D24   D(9,4,12,13)          -74.0028         D2E/DX2 =    0.0172             !
 ! D25   D(9,4,12,17)          101.955          D2E/DX2 =    0.0159             !
 ! D26   D(23,4,12,13)         173.8326         D2E/DX2 =    0.0121             !
 ! D27   D(23,4,12,17)         -10.2096         D2E/DX2 =    0.0109             !
 ! D28   D(1,4,23,24)          -42.8018         D2E/DX2 =    0.0159             !
 ! D29   D(1,4,23,25)           74.3444         D2E/DX2 =    0.014              !
 ! D30   D(1,4,23,26)         -165.1362         D2E/DX2 =    0.0159             !
 ! D31   D(9,4,23,24)           77.5959         D2E/DX2 =    0.0188             !
 ! D32   D(9,4,23,25)         -165.2579         D2E/DX2 =    0.0181             !
 ! D33   D(9,4,23,26)          -44.7385         D2E/DX2 =    0.0181             !
 ! D34   D(12,4,23,24)        -172.7788         D2E/DX2 =    0.0138             !
 ! D35   D(12,4,23,25)         -55.6325         D2E/DX2 =    0.0141             !
 ! D36   D(12,4,23,26)          64.8868         D2E/DX2 =    0.0135             !
 ! D37   D(6,5,9,4)             74.7657         D2E/DX2 =    0.01               !
 ! D38   D(6,5,9,10)          -168.7456         D2E/DX2 =    0.0132             !
 ! D39   D(6,5,9,11)           -51.2819         D2E/DX2 =    0.0123             !
 ! D40   D(7,5,9,4)           -165.8099         D2E/DX2 =    0.0101             !
 ! D41   D(7,5,9,10)           -49.3213         D2E/DX2 =    0.0127             !
 ! D42   D(7,5,9,11)            68.1425         D2E/DX2 =    0.0125             !
 ! D43   D(8,5,9,4)            -43.0401         D2E/DX2 =    0.0115             !
 ! D44   D(8,5,9,10)            73.4486         D2E/DX2 =    0.0135             !
 ! D45   D(8,5,9,11)          -169.0877         D2E/DX2 =    0.0137             !
 ! D46   D(4,12,13,14)         176.4698         D2E/DX2 =    0.0064             !
 ! D47   D(4,12,13,18)          -4.2705         D2E/DX2 =    0.0068             !
 ! D48   D(17,12,13,14)          0.3415         D2E/DX2 =    0.0064             !
 ! D49   D(17,12,13,18)        179.6012         D2E/DX2 =    0.0071             !
 ! D50   D(4,12,17,16)        -176.4957         D2E/DX2 =    0.0067             !
 ! D51   D(4,12,17,22)           4.3862         D2E/DX2 =    0.007              !
 ! D52   D(13,12,17,16)         -0.4648         D2E/DX2 =    0.0065             !
 ! D53   D(13,12,17,22)       -179.5829         D2E/DX2 =    0.0069             !
 ! D54   D(12,13,14,15)         -0.087          D2E/DX2 =    0.0083             !
 ! D55   D(12,13,14,19)        179.5117         D2E/DX2 =    0.008              !
 ! D56   D(18,13,14,15)       -179.3473         D2E/DX2 =    0.0082             !
 ! D57   D(18,13,14,19)          0.2514         D2E/DX2 =    0.0089             !
 ! D58   D(13,14,15,16)         -0.054          D2E/DX2 =    0.0085             !
 ! D59   D(13,14,15,20)        179.8705         D2E/DX2 =    0.0081             !
 ! D60   D(19,14,15,16)       -179.6508         D2E/DX2 =    0.0079             !
 ! D61   D(19,14,15,20)          0.2737         D2E/DX2 =    0.0089             !
 ! D62   D(14,15,16,17)         -0.0688         D2E/DX2 =    0.0085             !
 ! D63   D(14,15,16,21)        179.84           D2E/DX2 =    0.0079             !
 ! D64   D(20,15,16,17)       -179.9932         D2E/DX2 =    0.0081             !
 ! D65   D(20,15,16,21)         -0.0845         D2E/DX2 =    0.0089             !
 ! D66   D(15,16,17,12)          0.3363         D2E/DX2 =    0.0084             !
 ! D67   D(15,16,17,22)        179.4715         D2E/DX2 =    0.0079             !
 ! D68   D(21,16,17,12)       -179.5731         D2E/DX2 =    0.0081             !
 ! D69   D(21,16,17,22)         -0.4378         D2E/DX2 =    0.0088             !
 ! D70   D(2,28,29,30)         164.5072         D2E/DX2 =    0.0205             !
 ! D71   D(2,28,29,31)         -76.423          D2E/DX2 =    0.0211             !
 ! D72   D(2,28,29,32)          44.3883         D2E/DX2 =    0.0203             !
 --------------------------------------------------------------------------------
 Trust Radius=1.00D-01 FncErr=1.00D-07 GrdErr=1.00D-06 EigMax=2.50D+02 EigMin=1.00D-04
 Number of steps in this run=     50 maximum allowed number of steps=    192.
 Search for a saddle point of order  1.
 GradGradGradGradGradGradGradGradGradGradGradGradGradGradGradGradGradGrad

                          Input orientation:                          
 ---------------------------------------------------------------------
 Center     Atomic      Atomic             Coordinates (Angstroms)
 Number     Number       Type             X           Y           Z
 ---------------------------------------------------------------------
      1          6           0       -0.929484   -0.535369   -0.241596
      2          6           0       -2.319277   -0.436300   -0.069474
      3          8           0       -3.002730    0.547547    0.263902
      4          6           0        0.044178    0.485106    0.206056
      5          6           0       -1.056595    2.674827   -0.768991
      6          1           0       -0.912952    3.317383    0.106527
      7          1           0       -1.064310    3.291247   -1.674761
      8          1           0       -1.985796    2.100731   -0.637296
      9          7           0        0.063016    1.708932   -0.846261
     10          1           0        0.040202    1.236082   -1.749133
     11          1           0        0.962540    2.197772   -0.787220
     12          6           0        1.486595   -0.025295    0.089479
     13          6           0        1.880858   -0.750373   -1.047154
     14          6           0        3.198897   -1.163822   -1.216176
     15          6           0        4.159854   -0.860410   -0.250971
     16          6           0        3.785719   -0.140184    0.879464
     17          6           0        2.463155    0.275839    1.045711
     18          1           0        1.137818   -1.004973   -1.806631
     19          1           0        3.476625   -1.733402   -2.105991
     20          1           0        5.194168   -1.185996   -0.381171
     21          1           0        4.525555    0.102981    1.645308
     22          1           0        2.201887    0.830792    1.947221
     23          6           0       -0.272882    1.123967    1.558550
     24          1           0       -1.346530    1.343627    1.610146
     25          1           0       -0.039105    0.392465    2.344066
     26          1           0        0.297751    2.045788    1.757930
     27          1           0       -0.545139   -1.521065   -0.499479
     28          8           0       -2.962389   -1.617958   -0.354301
     29          6           0       -4.365451   -1.600698   -0.301883
     30          1           0       -4.710346   -2.508745   -0.816754
     31          1           0       -4.735089   -1.613032    0.736791
     32          1           0       -4.785453   -0.711043   -0.794028
 ---------------------------------------------------------------------
                    Distance matrix (angstroms):
                    1          2          3          4          5
     1  C    0.000000
     2  C    1.403911   0.000000
     3  O    2.393028   1.243464   0.000000
     4  C    1.479790   2.551632   3.048097   0.000000
     5  C    3.255712   3.429694   3.062618   2.637668   0.000000
     6  H    3.868483   4.012339   3.473316   2.991287   1.095465
     7  H    4.088414   4.248117   3.878630   3.555369   1.095652
     8  H    2.867297   2.621099   2.063660   2.728054   1.100157
     9  N    2.527363   3.298597   3.461224   1.614149   1.480693
    10  H    2.520118   3.344437   3.712926   2.094455   2.057578
    11  H    3.368608   4.268936   4.421703   2.182478   2.074805
    12  C    2.491430   3.831299   4.529084   1.534492   3.807287
    13  C    2.931412   4.323845   5.220431   2.543686   4.520840
    14  C    4.288157   5.682822   6.601484   3.833270   5.748427
    15  C    5.099716   6.495533   7.317789   4.354087   6.322782
    16  C    4.862725   6.185398   6.850907   3.852739   5.838638
    17  C    3.718228   4.962100   5.528196   2.569097   4.630002
    18  H    2.635072   3.910577   4.882782   2.732635   4.408296
    19  H    4.932043   6.278722   7.266440   4.695639   6.462981
    20  H    6.159701   7.557186   8.403001   5.446082   7.357200
    21  H    5.807353   7.076936   7.666876   4.722309   6.603304
    22  H    4.057438   5.110138   5.477393   2.794077   4.625579
    23  C    2.534768   3.045099   3.075783   1.529023   2.904620
    24  H    2.670861   2.633534   2.277963   2.154668   2.741614
    25  H    2.887784   3.422165   3.624114   2.141636   3.991940
    26  H    3.488063   4.043391   3.920462   2.215478   2.935178
    27  H    1.088954   2.123484   3.301766   2.206761   4.235532
    28  O    2.305950   1.375149   2.252380   3.711647   4.715085
    29  C    3.597836   2.365726   2.606161   4.904427   5.426493
    30  H    4.303479   3.251256   3.663972   5.710935   6.342050
    31  H    4.074460   2.805513   2.809411   5.246452   5.846745
    32  H    3.899299   2.585050   2.425152   5.075064   5.036777
                    6          7          8          9         10
     6  H    0.000000
     7  H    1.787898   0.000000
     8  H    1.784519   1.828332   0.000000
     9  N    2.108894   2.112107   2.096378   0.000000
    10  H    2.946827   2.334349   2.467482   1.019453   0.000000
    11  H    2.360039   2.468104   2.953739   1.025472   1.643420
    12  C    4.114804   4.540827   4.135901   2.430993   2.657746
    13  C    5.067840   5.040099   4.821596   3.064815   2.797640
    14  C    6.223990   6.183274   6.154141   4.268876   4.002616
    15  C    6.581422   6.823146   6.832760   4.872368   4.859146
    16  C    5.884702   6.466960   6.374374   4.500653   4.778340
    17  C    4.640168   5.379281   5.094694   3.375497   3.821507
    18  H    5.152533   4.829520   4.557379   3.072913   2.496076
    19  H    7.047982   6.786247   6.833423   5.008923   4.555676
    20  H    7.603630   7.803053   7.900636   5.909792   5.856718
    21  H    6.502122   7.241166   7.183242   5.357355   5.737990
    22  H    4.390161   5.462659   5.082240   3.626216   4.301183
    23  C    2.707237   3.972123   2.951250   2.497624   3.324358
    24  H    2.518843   3.829293   2.456188   2.855556   3.635841
    25  H    3.784882   5.060133   3.949214   3.452781   4.179982
    26  H    2.410371   3.897402   3.309790   2.636358   3.608524
    27  H    4.890103   4.980881   3.900242   3.304995   3.083199
    28  O    5.363781   5.426473   3.855187   4.523638   4.371116
    29  C    6.022795   6.059162   4.413143   5.555296   5.436141
    30  H    7.015441   6.904322   5.357485   6.369824   6.120520
    31  H    6.270163   6.583475   4.820659   6.046760   6.091032
    32  H    5.659989   5.535423   3.970984   5.419101   5.290601
                   11         12         13         14         15
    11  H    0.000000
    12  C    2.446479   0.000000
    13  C    3.098779   1.404677   0.000000
    14  C    4.060248   2.435766   1.391666   0.000000
    15  C    4.456777   2.821283   2.416575   1.395391   0.000000
    16  C    4.026688   2.433773   2.777172   2.404974   1.391613
    17  C    3.050461   1.399547   2.402554   2.780301   2.418932
    18  H    3.365634   2.162556   1.092582   2.149865   3.402011
    19  H    4.849114   3.420224   2.152661   1.092394   2.161022
    20  H    5.433364   3.913418   3.407539   2.163061   1.092138
    21  H    4.795875   3.416480   3.869365   3.398956   2.158178
    22  H    3.298755   2.166964   3.401386   3.870348   3.394973
    23  C    2.860413   2.564124   3.865416   4.998633   5.182785
    24  H    3.436383   3.494706   4.675694   5.910694   6.216252
    25  H    3.750650   2.754169   4.061122   5.057866   5.092658
    26  H    2.634926   2.913154   4.265354   5.250101   5.234263
    27  H    4.023138   2.590780   2.603724   3.828719   4.757644
    28  O    5.491109   4.746259   4.968883   6.237830   7.163163
    29  C    6.561357   6.073013   6.347823   7.631916   8.557536
    30  H    7.371146   6.737273   6.825608   8.032713   9.039776
    31  H    7.021951   6.453624   6.906330   8.183154   8.981209
    32  H    6.442101   6.370982   6.671231   8.008312   8.963020
                   16         17         18         19         20
    16  C    0.000000
    17  C    1.396384   0.000000
    18  H    3.869670   3.396005   0.000000
    19  H    3.398062   3.872646   2.467841   0.000000
    20  H    2.160243   3.410482   4.303334   2.494917   0.000000
    21  H    1.092247   2.154737   4.961875   4.306367   2.493014
    22  H    2.142760   1.090392   4.312039   4.962718   4.294483
    23  C    4.304820   2.910021   4.224559   5.970947   6.243964
    24  H    5.392176   3.996555   4.833453   6.822067   7.290066
    25  H    4.130139   2.821459   4.535005   6.056622   6.107831
    26  H    4.209050   2.885992   4.766441   6.270359   6.244604
    27  H    4.750226   3.829661   2.192566   4.335961   5.750297
    28  O    7.017333   5.914645   4.392803   6.674028   8.168032
    29  C    8.364822   7.208831   5.736299   8.048016   9.568938
    30  H    8.981668   7.917183   6.119004   8.324048  10.001940
    31  H    8.648341   7.448354   6.428823   8.690693  10.001117
    32  H    8.751653   7.543267   6.016386   8.427834   9.999443
                   21         22         23         24         25
    21  H    0.000000
    22  H    2.453628   0.000000
    23  C    4.906621   2.522202   0.000000
    24  H    6.001817   3.601095   1.097101   0.000000
    25  H    4.626897   2.317685   1.098536   1.775586   0.000000
    26  H    4.654193   2.266668   1.102329   1.794026   1.786198
    27  H    5.740172   4.366202   3.362409   3.646807   3.464594
    28  O    7.939104   6.161423   4.290757   3.903977   4.457418
    29  C    9.259808   7.355307   5.256817   4.630203   5.448946
    30  H    9.908820   8.159107   6.207233   5.660907   6.342578
    31  H    9.462009   7.453795   5.298843   4.581147   5.353281
    32  H    9.659599   7.662547   5.409730   4.672035   5.795962
                   26         27         28         29         30
    26  H    0.000000
    27  H    4.304509   0.000000
    28  O    5.339763   2.423543   0.000000
    29  C    6.267786   3.826247   1.404146   0.000000
    30  H    7.242500   4.292449   2.015618   1.099361   0.000000
    31  H    6.305487   4.369496   2.081578   1.102555   1.793437
    32  H    6.320725   4.327026   2.083126   1.100043   1.799414
                   31         32
    31  H    0.000000
    32  H    1.777506   0.000000
 Stoichiometry    C12H17NO2
 Framework group  C1[X(C12H17NO2)]
 Deg. of freedom    90
 Full point group                 C1      NOp   1
 Largest Abelian subgroup         C1      NOp   1
 Largest concise Abelian subgroup C1      NOp   1
                         Standard orientation:                         
 ---------------------------------------------------------------------
 Center     Atomic      Atomic             Coordinates (Angstroms)
 Number     Number       Type             X           Y           Z
 ---------------------------------------------------------------------
      1          6           0       -0.932656   -0.575014   -0.038427
      2          6           0       -2.316525   -0.416072    0.136529
      3          8           0       -2.975570    0.627134    0.290096
      4          6           0        0.067867    0.490867    0.190993
      5          6           0       -1.015498    2.480100   -1.160512
      6          1           0       -0.842057    3.273054   -0.424858
      7          1           0       -1.031942    2.914694   -2.166152
      8          1           0       -1.951455    1.960798   -0.906240
      9          7           0        0.085332    1.493643   -1.073765
     10          1           0        0.035023    0.859615   -1.870485
     11          1           0        0.994232    1.965826   -1.124131
     12          6           0        1.498415   -0.062568    0.147354
     13          6           0        1.855660   -0.997089   -0.838630
     14          6           0        3.162432   -1.462608   -0.949869
     15          6           0        4.148933   -1.002909   -0.076594
     16          6           0        3.811594   -0.074744    0.903864
     17          6           0        2.500283    0.392873    1.011973
     18          1           0        1.092240   -1.374651   -1.523007
     19          1           0        3.411157   -2.195464   -1.720830
     20          1           0        5.174439   -1.368875   -0.161279
     21          1           0        4.571749    0.292859    1.596710
     22          1           0        2.268010    1.113228    1.796888
     23          6           0       -0.209073    1.379816    1.403834
     24          1           0       -1.277411    1.627785    1.432056
     25          1           0        0.028782    0.804803    2.309133
     26          1           0        0.381552    2.310493    1.415290
     27          1           0       -0.571022   -1.599512   -0.112212
     28          8           0       -2.985924   -1.616454    0.091559
     29          6           0       -4.387033   -1.560128    0.164679
     30          1           0       -4.758522   -2.541516   -0.163146
     31          1           0       -4.734510   -1.368614    1.193372
     32          1           0       -4.802028   -0.770602   -0.479156
 ---------------------------------------------------------------------
 Rotational constants (GHZ):           1.1065190           0.3316597           0.2947565
 Basis read from chk: "TS-92_opt_sqm.chk" (5D, 7F)
 Pseudo-potential data read from chk file.
 There are   310 symmetry adapted cartesian basis functions of A   symmetry.
 There are   295 symmetry adapted basis functions of A   symmetry.
   295 basis functions,   494 primitive gaussians,   310 cartesian basis functions
    56 alpha electrons       56 beta electrons
       nuclear repulsion energy      1009.4969634335 Hartrees.
 NAtoms=   32 NActive=   32 NUniq=   32 SFac= 1.00D+00 NAtFMM=   60 NAOKFM=F Big=F
 Integral buffers will be    131072 words long.
 Raffenetti 2 integral format.
 Two-electron integral symmetry is turned on.
 Nuclear repulsion after empirical dispersion term =     1009.4732065121 Hartrees.
 ------------------------------------------------------------------------------
 Polarizable Continuum Model (PCM)
 =================================
 Model                : PCM.
 Atomic radii         : UFF (Universal Force Field).
 Polarization charges : Total charges.
 Charge compensation  : None.
 Solution method      : On-the-fly selection.
 Cavity type          : Scaled VdW (van der Waals Surface) (Alpha=1.100).
 Cavity algorithm     : GePol (No added spheres)
                        Default sphere list used, NSphG=   32.
                        Lebedev-Laikov grids with approx.  5.0 points / Ang**2.
                        Smoothing algorithm: York/Karplus (Gamma=1.0000).
                        Polarization charges: spherical gaussians, with
                                              point-specific exponents (IZeta= 3).
                        Self-potential: point-specific (ISelfS= 7).
                        Self-field    : sphere-specific E.n sum rule (ISelfD= 2).
 1st derivatives      : Analytical E(r).r(x)/FMM algorithm (CHGder, D1EAlg=3).
                        Cavity 1st derivative terms included.
 Solvent              : Toluene, Eps=   2.374100 Eps(inf)=   2.238315
 ------------------------------------------------------------------------------
 One-electron integrals computed using PRISM.
   1 Symmetry operations used in ECPInt.
 ECPInt:  NShTT=   10011 NPrTT=   35491 LenC2=    9433 LenP2D=   24589.
 LDataN:  DoStor=T MaxTD1= 4 Len=   56
 NBasis=   295 RedAO= T EigKep=  2.76D-04  NBF=   295
 NBsUse=   295 1.00D-06 EigRej= -1.00D+00 NBFU=   295
 Initial guess from the checkpoint file:  "TS-92_opt_sqm.chk"
 B after Tr=    -0.000000   -0.000000    0.000000
         Rot=    1.000000    0.000000    0.000000    0.000000 Ang=   0.00 deg.
 Requested convergence on RMS density matrix=1.00D-08 within 128 cycles.
 Requested convergence on MAX density matrix=1.00D-06.
 Requested convergence on             energy=1.00D-06.
 No special actions if energy rises.
 Inv3:  Mode=1 IEnd=    14639043.
 Iteration    1 A*A^-1 deviation from unit magnitude is 3.55D-15 for    910.
 Iteration    1 A*A^-1 deviation from orthogonality  is 1.69D-15 for   1687   1110.
 Iteration    1 A^-1*A deviation from unit magnitude is 3.55D-15 for    910.
 Iteration    1 A^-1*A deviation from orthogonality  is 2.47D-15 for   1496    467.
 Error on total polarization charges =  0.00678
 SCF Done:  E(RwB97XD) =  -671.971376769     A.U. after    1 cycles
            NFock=  1  Conv=0.31D-08     -V/T= 2.0107

 **********************************************************************

            Population analysis using the SCF Density.

 **********************************************************************

 Orbital symmetries:
       Occupied  (A) (A) (A) (A) (A) (A) (A) (A) (A) (A) (A) (A)
                 (A) (A) (A) (A) (A) (A) (A) (A) (A) (A) (A) (A)
                 (A) (A) (A) (A) (A) (A) (A) (A) (A) (A) (A) (A)
                 (A) (A) (A) (A) (A) (A) (A) (A) (A) (A) (A) (A)
                 (A) (A) (A) (A) (A) (A) (A) (A)
       Virtual   (A) (A) (A) (A) (A) (A) (A) (A) (A) (A) (A) (A)
                 (A) (A) (A) (A) (A) (A) (A) (A) (A) (A) (A) (A)
                 (A) (A) (A) (A) (A) (A) (A) (A) (A) (A) (A) (A)
                 (A) (A) (A) (A) (A) (A) (A) (A) (A) (A) (A) (A)
                 (A) (A) (A) (A) (A) (A) (A) (A) (A) (A) (A) (A)
                 (A) (A) (A) (A) (A) (A) (A) (A) (A) (A) (A) (A)
                 (A) (A) (A) (A) (A) (A) (A) (A) (A) (A) (A) (A)
                 (A) (A) (A) (A) (A) (A) (A) (A) (A) (A) (A) (A)
                 (A) (A) (A) (A) (A) (A) (A) (A) (A) (A) (A) (A)
                 (A) (A) (A) (A) (A) (A) (A) (A) (A) (A) (A) (A)
                 (A) (A) (A) (A) (A) (A) (A) (A) (A) (A) (A) (A)
                 (A) (A) (A) (A) (A) (A) (A) (A) (A) (A) (A) (A)
                 (A) (A) (A) (A) (A) (A) (A) (A) (A) (A) (A) (A)
                 (A) (A) (A) (A) (A) (A) (A) (A) (A) (A) (A) (A)
                 (A) (A) (A) (A) (A) (A) (A) (A) (A) (A) (A) (A)
                 (A) (A) (A) (A) (A) (A) (A) (A) (A) (A) (A) (A)
                 (A) (A) (A) (A) (A) (A) (A) (A) (A) (A) (A) (A)
                 (A) (A) (A) (A) (A) (A) (A) (A) (A) (A) (A) (A)
                 (A) (A) (A) (A) (A) (A) (A) (A) (A) (A) (A) (A)
                 (A) (A) (A) (A) (A) (A) (A) (A) (A) (A) (A)
 The electronic state is 1-A.
 Alpha  occ. eigenvalues --  -19.24373 -19.17679 -14.55196 -10.36578 -10.36348
 Alpha  occ. eigenvalues --  -10.34535 -10.32057 -10.31879 -10.31211 -10.31164
 Alpha  occ. eigenvalues --  -10.31147 -10.31080 -10.31036 -10.28962 -10.22638
 Alpha  occ. eigenvalues --   -1.13776  -1.08684  -1.03658  -0.96430  -0.89796
 Alpha  occ. eigenvalues --   -0.84826  -0.83184  -0.80812  -0.80150  -0.75413
 Alpha  occ. eigenvalues --   -0.71184  -0.69848  -0.67232  -0.66309  -0.63061
 Alpha  occ. eigenvalues --   -0.60825  -0.58755  -0.57539  -0.55842  -0.54024
 Alpha  occ. eigenvalues --   -0.53264  -0.52670  -0.52074  -0.51135  -0.50927
 Alpha  occ. eigenvalues --   -0.49332  -0.49222  -0.46854  -0.46375  -0.46104
 Alpha  occ. eigenvalues --   -0.45203  -0.44185  -0.43257  -0.42399  -0.41550
 Alpha  occ. eigenvalues --   -0.39323  -0.34220  -0.34023  -0.33721  -0.30660
 Alpha  occ. eigenvalues --   -0.23623
 Alpha virt. eigenvalues --    0.04297   0.04908   0.10498   0.13701   0.14144
 Alpha virt. eigenvalues --    0.15365   0.17081   0.18045   0.18216   0.18474
 Alpha virt. eigenvalues --    0.18974   0.20755   0.21488   0.22379   0.22956
 Alpha virt. eigenvalues --    0.23250   0.23752   0.24145   0.24617   0.24854
 Alpha virt. eigenvalues --    0.25639   0.26065   0.27428   0.28251   0.30391
 Alpha virt. eigenvalues --    0.32450   0.35684   0.36168   0.36928   0.38628
 Alpha virt. eigenvalues --    0.39753   0.40668   0.41159   0.44431   0.46513
 Alpha virt. eigenvalues --    0.46710   0.48527   0.49536   0.50553   0.50870
 Alpha virt. eigenvalues --    0.52192   0.54373   0.55319   0.55433   0.56254
 Alpha virt. eigenvalues --    0.57115   0.57446   0.59472   0.60242   0.61487
 Alpha virt. eigenvalues --    0.62307   0.62652   0.64088   0.64957   0.65404
 Alpha virt. eigenvalues --    0.67580   0.68710   0.69906   0.71209   0.71420
 Alpha virt. eigenvalues --    0.72145   0.72730   0.73024   0.73499   0.74139
 Alpha virt. eigenvalues --    0.74548   0.74944   0.75681   0.76103   0.76292
 Alpha virt. eigenvalues --    0.77105   0.77389   0.78177   0.78841   0.79206
 Alpha virt. eigenvalues --    0.80388   0.80923   0.81464   0.82653   0.82870
 Alpha virt. eigenvalues --    0.83277   0.84145   0.85579   0.86565   0.87225
 Alpha virt. eigenvalues --    0.87796   0.88649   0.90767   0.91621   0.92238
 Alpha virt. eigenvalues --    0.96567   1.00048   1.02096   1.04412   1.05423
 Alpha virt. eigenvalues --    1.07285   1.11406   1.13800   1.15031   1.15773
 Alpha virt. eigenvalues --    1.17427   1.19840   1.22677   1.25044   1.25812
 Alpha virt. eigenvalues --    1.27947   1.28413   1.32214   1.32695   1.33325
 Alpha virt. eigenvalues --    1.34605   1.36545   1.38098   1.39324   1.39568
 Alpha virt. eigenvalues --    1.41047   1.41988   1.47076   1.48233   1.50930
 Alpha virt. eigenvalues --    1.53798   1.55595   1.57329   1.60899   1.62555
 Alpha virt. eigenvalues --    1.63849   1.65381   1.66970   1.69488   1.70557
 Alpha virt. eigenvalues --    1.73083   1.74395   1.76681   1.77488   1.77622
 Alpha virt. eigenvalues --    1.79707   1.80377   1.81705   1.82752   1.83445
 Alpha virt. eigenvalues --    1.83676   1.84418   1.84511   1.85638   1.86322
 Alpha virt. eigenvalues --    1.86728   1.87999   1.88626   1.89235   1.91513
 Alpha virt. eigenvalues --    1.92579   1.93729   1.94643   1.95526   1.97274
 Alpha virt. eigenvalues --    1.97774   1.99424   1.99976   2.00860   2.02508
 Alpha virt. eigenvalues --    2.03457   2.04715   2.05945   2.06397   2.07064
 Alpha virt. eigenvalues --    2.08976   2.09407   2.10794   2.12576   2.13767
 Alpha virt. eigenvalues --    2.14714   2.16180   2.19330   2.20312   2.22414
 Alpha virt. eigenvalues --    2.23374   2.23963   2.26066   2.27511   2.28600
 Alpha virt. eigenvalues --    2.33825   2.36712   2.37712   2.38684   2.40128
 Alpha virt. eigenvalues --    2.40760   2.42302   2.43053   2.44412   2.44686
 Alpha virt. eigenvalues --    2.45619   2.47572   2.49865   2.51059   2.52046
 Alpha virt. eigenvalues --    2.59183   2.59902   2.62244   2.63716   2.67406
 Alpha virt. eigenvalues --    2.70194   2.71182   2.72494   2.74727   2.76746
 Alpha virt. eigenvalues --    2.78017   2.79304   2.79563   2.80898   2.81697
 Alpha virt. eigenvalues --    2.83303   2.84769   2.86930   2.90981   2.92062
 Alpha virt. eigenvalues --    2.93003   2.96238   2.97112   2.99030   3.02811
 Alpha virt. eigenvalues --    3.03711   3.05201   3.05715   3.08234   3.10865
 Alpha virt. eigenvalues --    3.12547   3.13519   3.16734   3.20630   3.23764
 Alpha virt. eigenvalues --    3.28500   3.31531   3.32977   3.34254   3.47253
 Alpha virt. eigenvalues --    3.58516   3.71035   3.74295   3.83064
          Condensed to atoms (all electrons):
               1          2          3          4          5          6
     1  C    5.683642   0.389424  -0.126555   0.249166   0.005490  -0.000082
     2  C    0.389424   4.440330   0.601344  -0.019853   0.001190  -0.000344
     3  O   -0.126555   0.601344   7.932513   0.010359  -0.028508  -0.000291
     4  C    0.249166  -0.019853   0.010359   5.520268  -0.037195  -0.013033
     5  C    0.005490   0.001190  -0.028508  -0.037195   4.621322   0.399375
     6  H   -0.000082  -0.000344  -0.000291  -0.013033   0.399375   0.578987
     7  H   -0.000984   0.000098   0.000713   0.005635   0.390738  -0.021655
     8  H   -0.004459  -0.002266   0.063624  -0.004440   0.359931  -0.009578
     9  N   -0.083485  -0.007307  -0.000102   0.089745   0.285418  -0.015964
    10  H    0.011123  -0.001049  -0.000377   0.000469  -0.012766   0.005421
    11  H    0.008417  -0.000138  -0.000101  -0.002949  -0.016668  -0.007739
    12  C   -0.039238   0.007451   0.000256   0.177391   0.007625   0.000037
    13  C   -0.018778   0.000074  -0.000008  -0.092191  -0.000193   0.000080
    14  C    0.000777  -0.000020  -0.000000   0.013478   0.000023  -0.000000
    15  C    0.000002   0.000000  -0.000000  -0.001617  -0.000002   0.000000
    16  C   -0.000581   0.000005  -0.000000   0.019773   0.000009   0.000001
    17  C    0.008213  -0.000231   0.000001  -0.082839  -0.000161  -0.000102
    18  H    0.013385   0.000091  -0.000009  -0.011308   0.000004  -0.000004
    19  H   -0.000011  -0.000000   0.000000  -0.000290  -0.000000  -0.000000
    20  H    0.000001   0.000000   0.000000   0.000019   0.000000   0.000000
    21  H    0.000005  -0.000000   0.000000  -0.000265  -0.000000   0.000000
    22  H    0.000659  -0.000026   0.000003  -0.032502  -0.000063  -0.000035
    23  C   -0.043454  -0.012292  -0.022331   0.388202   0.012793   0.014825
    24  H   -0.033030   0.005647   0.039366   0.013821   0.006559  -0.002807
    25  H   -0.001174  -0.000671  -0.000076  -0.009110  -0.000028  -0.000085
    26  H    0.009930   0.000697   0.000261  -0.008357  -0.004991   0.000375
    27  H    0.388581  -0.001067   0.004651  -0.063581   0.000097  -0.000011
    28  O   -0.135611   0.367855  -0.081918   0.004745  -0.000098  -0.000003
    29  C    0.010379  -0.039060  -0.002271  -0.000372   0.000048  -0.000001
    30  H    0.000300   0.005607   0.000970   0.000007   0.000000  -0.000000
    31  H    0.000203  -0.002630   0.002861   0.000052   0.000010  -0.000000
    32  H    0.001626  -0.008127   0.018778  -0.000019  -0.000096   0.000003
               7          8          9         10         11         12
     1  C   -0.000984  -0.004459  -0.083485   0.011123   0.008417  -0.039238
     2  C    0.000098  -0.002266  -0.007307  -0.001049  -0.000138   0.007451
     3  O    0.000713   0.063624  -0.000102  -0.000377  -0.000101   0.000256
     4  C    0.005635  -0.004440   0.089745   0.000469  -0.002949   0.177391
     5  C    0.390738   0.359931   0.285418  -0.012766  -0.016668   0.007625
     6  H   -0.021655  -0.009578  -0.015964   0.005421  -0.007739   0.000037
     7  H    0.591382  -0.008320  -0.016153  -0.008192  -0.004153  -0.000383
     8  H   -0.008320   0.511833  -0.008795  -0.004100   0.003989   0.000794
     9  N   -0.016153  -0.008795   6.316543   0.325697   0.322191  -0.033750
    10  H   -0.008192  -0.004100   0.325697   0.499772  -0.007924  -0.010258
    11  H   -0.004153   0.003989   0.322191  -0.007924   0.522612  -0.003477
    12  C   -0.000383   0.000794  -0.033750  -0.010258  -0.003477   5.464754
    13  C   -0.000069  -0.000004  -0.007359   0.009923  -0.002202   0.295017
    14  C   -0.000000  -0.000002  -0.000508   0.000049  -0.000215   0.064157
    15  C    0.000000   0.000000   0.000081   0.000019  -0.000030  -0.140939
    16  C   -0.000000  -0.000001  -0.000362   0.000003  -0.000163   0.061802
    17  C    0.000003  -0.000018  -0.001358  -0.000544   0.006027   0.343945
    18  H   -0.000011  -0.000022  -0.003839   0.004366   0.000664  -0.075566
    19  H    0.000000   0.000000   0.000006  -0.000002   0.000001   0.014428
    20  H   -0.000000   0.000000   0.000000  -0.000000  -0.000001  -0.001495
    21  H    0.000000   0.000000   0.000002   0.000000   0.000006   0.014598
    22  H    0.000001   0.000008   0.000369  -0.000035   0.000289  -0.054593
    23  C   -0.000492  -0.006524  -0.063911   0.008108  -0.001348  -0.064151
    24  H    0.000217  -0.002179  -0.009469   0.000232  -0.000029   0.005846
    25  H   -0.000007   0.000206   0.006241  -0.000301  -0.000277  -0.009093
    26  H    0.000212   0.000415   0.000710  -0.000632   0.001699  -0.015906
    27  H    0.000024  -0.000150   0.002919   0.000399  -0.000173  -0.008235
    28  O    0.000004   0.000467   0.000000  -0.000061   0.000001  -0.000062
    29  C   -0.000001  -0.000279   0.000000  -0.000001  -0.000000   0.000004
    30  H   -0.000000   0.000004  -0.000000   0.000000   0.000000  -0.000001
    31  H   -0.000000  -0.000092   0.000002  -0.000001  -0.000000   0.000001
    32  H   -0.000001   0.000584  -0.000003   0.000005  -0.000000  -0.000001
              13         14         15         16         17         18
     1  C   -0.018778   0.000777   0.000002  -0.000581   0.008213   0.013385
     2  C    0.000074  -0.000020   0.000000   0.000005  -0.000231   0.000091
     3  O   -0.000008  -0.000000  -0.000000  -0.000000   0.000001  -0.000009
     4  C   -0.092191   0.013478  -0.001617   0.019773  -0.082839  -0.011308
     5  C   -0.000193   0.000023  -0.000002   0.000009  -0.000161   0.000004
     6  H    0.000080  -0.000000   0.000000   0.000001  -0.000102  -0.000004
     7  H   -0.000069  -0.000000   0.000000  -0.000000   0.000003  -0.000011
     8  H   -0.000004  -0.000002   0.000000  -0.000001  -0.000018  -0.000022
     9  N   -0.007359  -0.000508   0.000081  -0.000362  -0.001358  -0.003839
    10  H    0.009923   0.000049   0.000019   0.000003  -0.000544   0.004366
    11  H   -0.002202  -0.000215  -0.000030  -0.000163   0.006027   0.000664
    12  C    0.295017   0.064157  -0.140939   0.061802   0.343945  -0.075566
    13  C    5.162186   0.324738   0.071588  -0.128574   0.025425   0.450175
    14  C    0.324738   5.023302   0.297870   0.073218  -0.120280  -0.053195
    15  C    0.071588   0.297870   5.076902   0.305579   0.067540   0.012613
    16  C   -0.128574   0.073218   0.305579   5.056712   0.305629  -0.001723
    17  C    0.025425  -0.120280   0.067540   0.305629   5.073972   0.011521
    18  H    0.450175  -0.053195   0.012613  -0.001723   0.011521   0.635863
    19  H   -0.062393   0.448608  -0.067356   0.012388  -0.001644  -0.011683
    20  H    0.012510  -0.063929   0.447890  -0.063027   0.012590  -0.000187
    21  H   -0.001699   0.012314  -0.067505   0.446024  -0.059896   0.000019
    22  H    0.013209  -0.001823   0.013196  -0.066239   0.450138  -0.000146
    23  C    0.013410  -0.000431   0.000102  -0.000447   0.006083   0.000666
    24  H   -0.000101   0.000007   0.000002  -0.000036   0.000464   0.000039
    25  H    0.000243   0.000015  -0.000052   0.000605  -0.000989  -0.000017
    26  H   -0.001197  -0.000018  -0.000025   0.000710   0.005256  -0.000070
    27  H   -0.005776   0.001090  -0.000133   0.000015   0.000674   0.000541
    28  O   -0.000036  -0.000000  -0.000000   0.000000   0.000000  -0.000051
    29  C    0.000001   0.000000  -0.000000   0.000000  -0.000000  -0.000002
    30  H    0.000000   0.000000   0.000000  -0.000000   0.000000   0.000001
    31  H   -0.000000  -0.000000   0.000000  -0.000000   0.000000  -0.000000
    32  H    0.000000   0.000000  -0.000000   0.000000  -0.000000  -0.000001
              19         20         21         22         23         24
     1  C   -0.000011   0.000001   0.000005   0.000659  -0.043454  -0.033030
     2  C   -0.000000   0.000000  -0.000000  -0.000026  -0.012292   0.005647
     3  O    0.000000   0.000000   0.000000   0.000003  -0.022331   0.039366
     4  C   -0.000290   0.000019  -0.000265  -0.032502   0.388202   0.013821
     5  C   -0.000000   0.000000  -0.000000  -0.000063   0.012793   0.006559
     6  H   -0.000000   0.000000   0.000000  -0.000035   0.014825  -0.002807
     7  H    0.000000  -0.000000   0.000000   0.000001  -0.000492   0.000217
     8  H    0.000000   0.000000   0.000000   0.000008  -0.006524  -0.002179
     9  N    0.000006   0.000000   0.000002   0.000369  -0.063911  -0.009469
    10  H   -0.000002  -0.000000   0.000000  -0.000035   0.008108   0.000232
    11  H    0.000001  -0.000001   0.000006   0.000289  -0.001348  -0.000029
    12  C    0.014428  -0.001495   0.014598  -0.054593  -0.064151   0.005846
    13  C   -0.062393   0.012510  -0.001699   0.013209   0.013410  -0.000101
    14  C    0.448608  -0.063929   0.012314  -0.001823  -0.000431   0.000007
    15  C   -0.067356   0.447890  -0.067505   0.013196   0.000102   0.000002
    16  C    0.012388  -0.063027   0.446024  -0.066239  -0.000447  -0.000036
    17  C   -0.001644   0.012590  -0.059896   0.450138   0.006083   0.000464
    18  H   -0.011683  -0.000187   0.000019  -0.000146   0.000666   0.000039
    19  H    0.646945  -0.010549  -0.000208   0.000022   0.000004  -0.000000
    20  H   -0.010549   0.644384  -0.010584  -0.000205   0.000000   0.000000
    21  H   -0.000208  -0.010584   0.648921  -0.011920  -0.000008  -0.000001
    22  H    0.000022  -0.000205  -0.011920   0.652644   0.017890  -0.000028
    23  C    0.000004   0.000000  -0.000008   0.017890   4.592418   0.362530
    24  H   -0.000000   0.000000  -0.000001  -0.000028   0.362530   0.578693
    25  H    0.000000  -0.000000   0.000016   0.000390   0.389923  -0.011049
    26  H    0.000000  -0.000000   0.000019  -0.000256   0.364009  -0.026190
    27  H    0.000057  -0.000001   0.000000  -0.000004   0.002938  -0.000136
    28  O    0.000000  -0.000000   0.000000   0.000000  -0.000334   0.000558
    29  C   -0.000000   0.000000  -0.000000  -0.000000   0.000017   0.000026
    30  H   -0.000000   0.000000   0.000000  -0.000000   0.000001  -0.000001
    31  H    0.000000  -0.000000   0.000000  -0.000000  -0.000014   0.000062
    32  H    0.000000  -0.000000  -0.000000  -0.000000   0.000027  -0.000114
              25         26         27         28         29         30
     1  C   -0.001174   0.009930   0.388581  -0.135611   0.010379   0.000300
     2  C   -0.000671   0.000697  -0.001067   0.367855  -0.039060   0.005607
     3  O   -0.000076   0.000261   0.004651  -0.081918  -0.002271   0.000970
     4  C   -0.009110  -0.008357  -0.063581   0.004745  -0.000372   0.000007
     5  C   -0.000028  -0.004991   0.000097  -0.000098   0.000048   0.000000
     6  H   -0.000085   0.000375  -0.000011  -0.000003  -0.000001  -0.000000
     7  H   -0.000007   0.000212   0.000024   0.000004  -0.000001  -0.000000
     8  H    0.000206   0.000415  -0.000150   0.000467  -0.000279   0.000004
     9  N    0.006241   0.000710   0.002919   0.000000   0.000000  -0.000000
    10  H   -0.000301  -0.000632   0.000399  -0.000061  -0.000001   0.000000
    11  H   -0.000277   0.001699  -0.000173   0.000001  -0.000000   0.000000
    12  C   -0.009093  -0.015906  -0.008235  -0.000062   0.000004  -0.000001
    13  C    0.000243  -0.001197  -0.005776  -0.000036   0.000001   0.000000
    14  C    0.000015  -0.000018   0.001090  -0.000000   0.000000   0.000000
    15  C   -0.000052  -0.000025  -0.000133  -0.000000  -0.000000   0.000000
    16  C    0.000605   0.000710   0.000015   0.000000   0.000000  -0.000000
    17  C   -0.000989   0.005256   0.000674   0.000000  -0.000000   0.000000
    18  H   -0.000017  -0.000070   0.000541  -0.000051  -0.000002   0.000001
    19  H    0.000000   0.000000   0.000057   0.000000  -0.000000  -0.000000
    20  H   -0.000000  -0.000000  -0.000001  -0.000000   0.000000   0.000000
    21  H    0.000016   0.000019   0.000000   0.000000  -0.000000   0.000000
    22  H    0.000390  -0.000256  -0.000004   0.000000  -0.000000  -0.000000
    23  C    0.389923   0.364009   0.002938  -0.000334   0.000017   0.000001
    24  H   -0.011049  -0.026190  -0.000136   0.000558   0.000026  -0.000001
    25  H    0.600195  -0.022440   0.000510  -0.000006  -0.000004  -0.000000
    26  H   -0.022440   0.678778  -0.000160   0.000000  -0.000001  -0.000000
    27  H    0.000510  -0.000160   0.667220   0.010072  -0.000184  -0.000256
    28  O   -0.000006   0.000000   0.010072   8.009160   0.289405  -0.027001
    29  C   -0.000004  -0.000001  -0.000184   0.289405   4.401701   0.395175
    30  H   -0.000000  -0.000000  -0.000256  -0.027001   0.395175   0.649321
    31  H    0.000002   0.000001   0.000017  -0.031070   0.403339  -0.030925
    32  H   -0.000000  -0.000001   0.000101  -0.031204   0.394535  -0.024330
              31         32
     1  C    0.000203   0.001626
     2  C   -0.002630  -0.008127
     3  O    0.002861   0.018778
     4  C    0.000052  -0.000019
     5  C    0.000010  -0.000096
     6  H   -0.000000   0.000003
     7  H   -0.000000  -0.000001
     8  H   -0.000092   0.000584
     9  N    0.000002  -0.000003
    10  H   -0.000001   0.000005
    11  H   -0.000000  -0.000000
    12  C    0.000001  -0.000001
    13  C   -0.000000   0.000000
    14  C   -0.000000   0.000000
    15  C    0.000000  -0.000000
    16  C   -0.000000   0.000000
    17  C    0.000000  -0.000000
    18  H   -0.000000  -0.000001
    19  H    0.000000   0.000000
    20  H   -0.000000  -0.000000
    21  H    0.000000  -0.000000
    22  H   -0.000000  -0.000000
    23  C   -0.000014   0.000027
    24  H    0.000062  -0.000114
    25  H    0.000002  -0.000000
    26  H    0.000001  -0.000001
    27  H    0.000017   0.000101
    28  O   -0.031070  -0.031204
    29  C    0.403339   0.394535
    30  H   -0.030925  -0.024330
    31  H    0.671801  -0.037173
    32  H   -0.037173   0.659966
 Mulliken charges:
               1
     1  C   -0.293878
     2  C    0.275273
     3  O   -0.413153
     4  C   -0.113210
     5  C    0.010140
     6  H    0.072629
     7  H    0.071393
     8  H    0.109375
     9  N   -0.097560
    10  H    0.180659
    11  H    0.181693
    12  C   -0.000956
    13  C   -0.057998
    14  C   -0.019223
    15  C   -0.015725
    16  C   -0.021321
    17  C   -0.049418
    18  H    0.027882
    19  H    0.031676
    20  H    0.032583
    21  H    0.030160
    22  H    0.019058
    23  C    0.041792
    24  H    0.071100
    25  H    0.057034
    26  H    0.017171
    27  H   -0.000039
    28  O   -0.374812
    29  C    0.147546
    30  H    0.031127
    31  H    0.023557
    32  H    0.025445
 Sum of Mulliken charges =  -0.00000
 Mulliken charges with hydrogens summed into heavy atoms:
               1
     1  C   -0.293917
     2  C    0.275273
     3  O   -0.413153
     4  C   -0.113210
     5  C    0.263537
     9  N    0.264792
    12  C   -0.000956
    13  C   -0.030116
    14  C    0.012453
    15  C    0.016859
    16  C    0.008839
    17  C   -0.030360
    23  C    0.187097
    28  O   -0.374812
    29  C    0.227675
 Electronic spatial extent (au):  <R**2>=           3905.4877
 Charge=             -0.0000 electrons
 Dipole moment (field-independent basis, Debye):
    X=              6.0700    Y=              4.3947    Z=             -3.3588  Tot=              8.2122
 Quadrupole moment (field-independent basis, Debye-Ang):
   XX=            -94.0381   YY=            -83.3485   ZZ=            -83.2906
   XY=              1.5459   XZ=              2.2661   YZ=             -2.6385
 Traceless Quadrupole moment (field-independent basis, Debye-Ang):
   XX=             -7.1457   YY=              3.5439   ZZ=              3.6018
   XY=              1.5459   XZ=              2.2661   YZ=             -2.6385
 Octapole moment (field-independent basis, Debye-Ang**2):
  XXX=             23.7578  YYY=             32.8081  ZZZ=            -12.6913  XYY=             -1.8384
  XXY=            -27.2808  XXZ=             -0.4258  XZZ=             -4.6256  YZZ=             11.5842
  YYZ=            -18.2363  XYZ=             12.5601
 Hexadecapole moment (field-independent basis, Debye-Ang**3):
 XXXX=          -3494.4811 YYYY=           -915.8676 ZZZZ=           -445.8965 XXXY=             58.8734
 XXXZ=             43.7988 YYYX=              2.1439 YYYZ=            -20.8581 ZZZX=              0.2095
 ZZZY=            -16.8610 XXYY=           -768.7488 XXZZ=           -689.9738 YYZZ=           -217.9629
 XXYZ=             17.4654 YYXZ=            -10.7222 ZZXY=              2.8881
 N-N= 1.009473206512D+03 E-N=-3.581055826138D+03  KE= 6.648327552618D+02
   1 Symmetry operations used in ECPInt.
 ECPInt:  NShTT=   10011 NPrTT=   35491 LenC2=    9433 LenP2D=   24589.
 LDataN:  DoStor=T MaxTD1= 5 Len=  102
 D1PCM: PCM CHGder 1st derivatives, ID1Alg=3 FixD1E=F DoIter=F DoCFld=F I1PDM=0.
 Calling FoFJK, ICntrl=      2127 FMM=F ISym2X=0 I1Cent= 0 IOpClX= 0 NMat=1 NMatS=1 NMatT=0.
 ***** Axes restored to original set *****
 -------------------------------------------------------------------
 Center     Atomic                   Forces (Hartrees/Bohr)
 Number     Number              X              Y              Z
 -------------------------------------------------------------------
      1        6           0.001869198   -0.001362374    0.001847283
      2        6          -0.001306126    0.000340900    0.000951800
      3        8           0.000387176   -0.000021505   -0.000236983
      4        6          -0.000507779   -0.003382718    0.001355008
      5        6          -0.000123510   -0.000925763    0.001109782
      6        1           0.000288450    0.000064876   -0.000368567
      7        1          -0.000591767    0.000009030   -0.000955347
      8        1          -0.000111107    0.000805465   -0.000839993
      9        7          -0.000223862    0.004894927    0.001047701
     10        1          -0.000202300   -0.001748595   -0.003291052
     11        1           0.000036715    0.000062623   -0.000072836
     12        6           0.000166187    0.000590044   -0.000334705
     13        6          -0.000509313    0.000512968    0.000079510
     14        6           0.000539744   -0.000257825    0.000137035
     15        6           0.000022745   -0.000113268   -0.000436539
     16        6          -0.000439997    0.000080299    0.000323543
     17        6           0.000094413   -0.000481799    0.000587595
     18        1           0.000305973    0.000094481    0.000037994
     19        1          -0.000051106    0.000146701    0.000018111
     20        1          -0.000032972   -0.000002334    0.000047076
     21        1           0.000004110   -0.000152430    0.000049568
     22        1          -0.000219276    0.000352310   -0.000145743
     23        6           0.000334610   -0.000346047    0.000743489
     24        1           0.000312658    0.000050002    0.000019808
     25        1          -0.000472460    0.000495443   -0.000149979
     26        1           0.000784873   -0.000511273    0.000427189
     27        1          -0.000255783    0.000731392   -0.001306475
     28        8           0.000410765    0.000436054   -0.001242808
     29        6          -0.000028353   -0.000849341   -0.000024984
     30        1          -0.000228509    0.000316881    0.000654308
     31        1          -0.000313255    0.000064318    0.000383805
     32        1           0.000059857    0.000106558   -0.000414595
 -------------------------------------------------------------------
 Cartesian Forces:  Max     0.004894927 RMS     0.000915518

 GradGradGradGradGradGradGradGradGradGradGradGradGradGradGradGradGradGrad
 Berny optimization.
 FormGI is forming the generalized inverse of G from B-inverse, IUseBI=4.
 Internal  Forces:  Max     0.004585908 RMS     0.000669096
 Search for a saddle point.
 Step number   1 out of a maximum of   50
 All quantities printed in internal units (Hartrees-Bohrs-Radians)
 Swapping is turned off.
 Second derivative matrix not updated -- first step.
 ITU=  0
     Eigenvalues ---    0.00048   0.00147   0.00289   0.00454   0.00523
     Eigenvalues ---    0.00785   0.01133   0.01144   0.01266   0.01325
     Eigenvalues ---    0.01494   0.01746   0.02022   0.02084   0.02398
     Eigenvalues ---    0.02467   0.02554   0.02817   0.02912   0.03028
     Eigenvalues ---    0.03597   0.03672   0.03694   0.03817   0.04144
     Eigenvalues ---    0.05948   0.06199   0.06220   0.06469   0.06898
     Eigenvalues ---    0.07874   0.09030   0.10213   0.10574   0.10812
     Eigenvalues ---    0.10917   0.10987   0.11009   0.11115   0.11379
     Eigenvalues ---    0.11660   0.11982   0.12235   0.12662   0.13505
     Eigenvalues ---    0.14195   0.14672   0.14859   0.15004   0.15210
     Eigenvalues ---    0.15689   0.15990   0.16518   0.17131   0.20645
     Eigenvalues ---    0.22344   0.23363   0.24635   0.25765   0.25985
     Eigenvalues ---    0.26144   0.26185   0.26253   0.26501   0.26536
     Eigenvalues ---    0.26890   0.27080   0.27398   0.27751   0.27955
     Eigenvalues ---    0.28185   0.28233   0.28244   0.28902   0.29069
     Eigenvalues ---    0.32016   0.32939   0.33800   0.36986   0.40247
     Eigenvalues ---    0.42095   0.51105   0.52756   0.52954   0.54151
     Eigenvalues ---    0.54281   0.56003   0.69583   0.71950   0.86922
 Eigenvectors required to have negative eigenvalues:
                          D10       R6        D8        D19       D20
   1                   -0.26484   0.22258  -0.21302  -0.20048  -0.19959
                          D21       D13       D14       D15       D9
   1                   -0.19744  -0.19643  -0.19555  -0.19340  -0.18386
 RFO step:  Lambda0=1.320336983D-03 Lambda=-1.85835004D-03.
 Linear search not attempted -- option 19 set.
 Maximum step size (   0.100) exceeded in Quadratic search.
    -- Step size scaled by   0.897
 Iteration  1 RMS(Cart)=  0.10046303 RMS(Int)=  0.00862112
 Iteration  2 RMS(Cart)=  0.01308222 RMS(Int)=  0.00023342
 Iteration  3 RMS(Cart)=  0.00030045 RMS(Int)=  0.00006246
 Iteration  4 RMS(Cart)=  0.00000018 RMS(Int)=  0.00006246
 Variable       Old X    -DE/DX   Delta X   Delta X   Delta X     New X
                                 (Linear)    (Quad)   (Total)
    R1        2.65301   0.00104   0.00000   0.00350   0.00350   2.65650
    R2        2.79640  -0.00041   0.00000  -0.00999  -0.00999   2.78641
    R3        2.05782  -0.00044   0.00000   0.00029   0.00029   2.05811
    R4        2.34981  -0.00029   0.00000  -0.00235  -0.00235   2.34746
    R5        2.59865   0.00012   0.00000  -0.00193  -0.00193   2.59673
    R6        3.05030   0.00459   0.00000   0.05314   0.05314   3.10344
    R7        2.89977  -0.00040   0.00000  -0.00670  -0.00670   2.89306
    R8        2.88943   0.00059   0.00000  -0.00324  -0.00324   2.88619
    R9        2.07013  -0.00022   0.00000  -0.00155  -0.00155   2.06858
   R10        2.07048   0.00080   0.00000   0.00210   0.00210   2.07258
   R11        2.07899  -0.00043   0.00000  -0.00121  -0.00121   2.07778
   R12        2.79810   0.00032   0.00000  -0.00396  -0.00396   2.79415
   R13        1.92649   0.00373   0.00000   0.00348   0.00348   1.92997
   R14        1.93786   0.00006   0.00000  -0.00032  -0.00032   1.93754
   R15        2.65445  -0.00031   0.00000  -0.00008  -0.00006   2.65439
   R16        2.64476  -0.00001   0.00000  -0.00062  -0.00060   2.64416
   R17        2.62987   0.00041   0.00000   0.00031   0.00031   2.63018
   R18        2.06468  -0.00026   0.00000   0.00085   0.00085   2.06553
   R19        2.63691  -0.00016   0.00000  -0.00029  -0.00031   2.63660
   R20        2.06432  -0.00010   0.00000  -0.00010  -0.00010   2.06422
   R21        2.62977   0.00028   0.00000   0.00067   0.00064   2.63041
   R22        2.06384  -0.00004   0.00000  -0.00004  -0.00004   2.06380
   R23        2.63878  -0.00029   0.00000  -0.00056  -0.00056   2.63822
   R24        2.06405   0.00000   0.00000   0.00001   0.00001   2.06406
   R25        2.06054   0.00011   0.00000  -0.00028  -0.00028   2.06026
   R26        2.07322  -0.00029   0.00000  -0.00172  -0.00172   2.07150
   R27        2.07593  -0.00054   0.00000  -0.00042  -0.00042   2.07551
   R28        2.08310   0.00006   0.00000  -0.00032  -0.00032   2.08278
   R29        2.65345   0.00053   0.00000   0.00066   0.00066   2.65411
   R30        2.07749  -0.00050   0.00000  -0.00134  -0.00134   2.07615
   R31        2.08353   0.00047   0.00000  -0.00228  -0.00228   2.08125
   R32        2.07878   0.00025   0.00000   0.00348   0.00348   2.08226
    A1        2.17196  -0.00138   0.00000  -0.01107  -0.01144   2.16052
    A2        2.02897   0.00053   0.00000   0.01622   0.01586   2.04483
    A3        2.05288   0.00093   0.00000   0.00658   0.00619   2.05907
    A4        2.25598  -0.00058   0.00000  -0.00249  -0.00249   2.25348
    A5        1.95728   0.00048   0.00000   0.00217   0.00217   1.95945
    A6        2.06959   0.00010   0.00000   0.00032   0.00032   2.06991
    A7        1.91061  -0.00105   0.00000  -0.01049  -0.01049   1.90013
    A8        1.94565   0.00087   0.00000  -0.00458  -0.00458   1.94107
    A9        2.00345   0.00018   0.00000   0.00604   0.00605   2.00950
   A10        1.76368   0.00025   0.00000   0.00555   0.00552   1.76920
   A11        1.83620   0.00121   0.00000   0.00234   0.00235   1.83855
   A12        1.98351  -0.00144   0.00000   0.00068   0.00067   1.98418
   A13        1.90883   0.00010   0.00000  -0.00136  -0.00137   1.90746
   A14        1.89775   0.00005   0.00000   0.01219   0.01218   1.90994
   A15        1.90201  -0.00020   0.00000   0.00460   0.00460   1.90660
   A16        1.96774  -0.00091   0.00000  -0.01112  -0.01115   1.95659
   A17        1.90624  -0.00009   0.00000   0.00008   0.00006   1.90630
   A18        1.88019   0.00108   0.00000  -0.00391  -0.00393   1.87626
   A19        2.03951   0.00192   0.00000   0.01285   0.01282   2.05233
   A20        1.79820  -0.00068   0.00000  -0.01777  -0.01774   1.78046
   A21        1.91148  -0.00050   0.00000   0.00103   0.00095   1.91243
   A22        1.90907  -0.00071   0.00000  -0.00394  -0.00388   1.90520
   A23        1.92762  -0.00044   0.00000   0.00174   0.00167   1.92929
   A24        1.86683   0.00029   0.00000   0.00435   0.00434   1.87117
   A25        2.09094   0.00111   0.00000  -0.00423  -0.00443   2.08651
   A26        2.13226  -0.00128   0.00000   0.00549   0.00530   2.13756
   A27        2.05792   0.00019   0.00000   0.00073   0.00064   2.05856
   A28        2.11468  -0.00017   0.00000   0.00051   0.00054   2.11522
   A29        2.08504   0.00024   0.00000   0.00110   0.00105   2.08610
   A30        2.08339  -0.00007   0.00000  -0.00172  -0.00176   2.08163
   A31        2.09858   0.00001   0.00000  -0.00112  -0.00111   2.09747
   A32        2.08819  -0.00006   0.00000   0.00054   0.00053   2.08873
   A33        2.09639   0.00004   0.00000   0.00057   0.00057   2.09695
   A34        2.08206  -0.00002   0.00000   0.00024   0.00022   2.08228
   A35        2.10008   0.00004   0.00000   0.00006   0.00007   2.10015
   A36        2.10104  -0.00002   0.00000  -0.00030  -0.00029   2.10075
   A37        2.10080  -0.00003   0.00000   0.00078   0.00078   2.10158
   A38        2.09750  -0.00003   0.00000  -0.00075  -0.00075   2.09675
   A39        2.08488   0.00007   0.00000  -0.00003  -0.00003   2.08485
   A40        2.11231   0.00002   0.00000  -0.00110  -0.00106   2.11125
   A41        2.10274  -0.00029   0.00000  -0.00059  -0.00062   2.10212
   A42        2.06804   0.00027   0.00000   0.00173   0.00171   2.06975
   A43        1.90518   0.00015   0.00000   0.00488   0.00487   1.91005
   A44        1.88615   0.00040   0.00000  -0.00276  -0.00276   1.88339
   A45        1.98455  -0.00013   0.00000  -0.00189  -0.00190   1.98265
   A46        1.88384  -0.00027   0.00000  -0.00976  -0.00976   1.87408
   A47        1.90779   0.00022   0.00000   0.00793   0.00791   1.91571
   A48        1.89373  -0.00039   0.00000   0.00087   0.00087   1.89460
   A49        2.03645  -0.00028   0.00000  -0.00570  -0.00570   2.03075
   A50        1.86068   0.00061   0.00000  -0.00230  -0.00231   1.85837
   A51        1.94984   0.00019   0.00000   0.00388   0.00388   1.95371
   A52        1.95492  -0.00038   0.00000  -0.00025  -0.00026   1.95466
   A53        1.90369  -0.00041   0.00000   0.00613   0.00613   1.90982
   A54        1.91633  -0.00009   0.00000  -0.00719  -0.00720   1.90913
   A55        1.87812   0.00006   0.00000  -0.00027  -0.00027   1.87785
    D1        0.22109  -0.00022   0.00000  -0.03420  -0.03429   0.18681
    D2       -2.94917  -0.00014   0.00000  -0.03417  -0.03425  -2.98342
    D3        3.09766   0.00033   0.00000   0.01903   0.01912   3.11678
    D4       -0.07260   0.00041   0.00000   0.01907   0.01915  -0.05345
    D5       -1.37594  -0.00034   0.00000   0.04369   0.04368  -1.33226
    D6        2.97077  -0.00051   0.00000   0.04531   0.04526   3.01603
    D7        0.68382   0.00056   0.00000   0.04313   0.04309   0.72692
    D8        2.03400  -0.00084   0.00000  -0.01149  -0.01144   2.02256
    D9        0.09752  -0.00100   0.00000  -0.00987  -0.00986   0.08766
   D10       -2.18942   0.00007   0.00000  -0.01206  -0.01203  -2.20145
   D11       -3.06794  -0.00032   0.00000  -0.00032  -0.00032  -3.06826
   D12        0.04838  -0.00026   0.00000  -0.00035  -0.00035   0.04803
   D13        1.35214  -0.00053   0.00000   0.10308   0.10307   1.45521
   D14       -0.74108  -0.00023   0.00000   0.11360   0.11363  -0.62746
   D15       -2.72310  -0.00003   0.00000   0.11690   0.11691  -2.60619
   D16       -2.87692   0.00015   0.00000   0.09640   0.09637  -2.78055
   D17        1.31304   0.00045   0.00000   0.10691   0.10693   1.41997
   D18       -0.66897   0.00065   0.00000   0.11022   0.11021  -0.55876
   D19       -0.80935  -0.00089   0.00000   0.10032   0.10030  -0.70905
   D20       -2.90258  -0.00058   0.00000   0.11083   0.11086  -2.79172
   D21        1.39859  -0.00038   0.00000   0.11414   0.11414   1.51274
   D22        0.73681   0.00016   0.00000   0.10073   0.10072   0.83753
   D23       -2.47533   0.00037   0.00000   0.13462   0.13462  -2.34071
   D24       -1.29159   0.00089   0.00000   0.11172   0.11172  -1.17987
   D25        1.77945   0.00109   0.00000   0.14561   0.14562   1.92507
   D26        3.03395  -0.00009   0.00000   0.10567   0.10566   3.13961
   D27       -0.17819   0.00012   0.00000   0.13957   0.13956  -0.03863
   D28       -0.74703  -0.00005   0.00000  -0.07186  -0.07185  -0.81888
   D29        1.29756  -0.00007   0.00000  -0.08236  -0.08236   1.21519
   D30       -2.88217  -0.00036   0.00000  -0.08440  -0.08440  -2.96657
   D31        1.35430  -0.00043   0.00000  -0.07977  -0.07976   1.27454
   D32       -2.88429  -0.00044   0.00000  -0.09028  -0.09028  -2.97457
   D33       -0.78083  -0.00073   0.00000  -0.09232  -0.09232  -0.87315
   D34       -3.01556  -0.00009   0.00000  -0.07161  -0.07162  -3.08717
   D35       -0.97097  -0.00011   0.00000  -0.08212  -0.08213  -1.05310
   D36        1.13249  -0.00040   0.00000  -0.08416  -0.08417   1.04832
   D37        1.30491   0.00049   0.00000  -0.07396  -0.07395   1.23096
   D38       -2.94517   0.00033   0.00000  -0.09158  -0.09157  -3.03674
   D39       -0.89504   0.00000   0.00000  -0.08762  -0.08764  -0.98267
   D40       -2.89393   0.00045   0.00000  -0.07284  -0.07283  -2.96676
   D41       -0.86082   0.00028   0.00000  -0.09045  -0.09046  -0.95128
   D42        1.18931  -0.00005   0.00000  -0.08650  -0.08652   1.10279
   D43       -0.75119  -0.00005   0.00000  -0.08877  -0.08875  -0.83995
   D44        1.28192  -0.00022   0.00000  -0.10639  -0.10638   1.17554
   D45       -2.95114  -0.00055   0.00000  -0.10244  -0.10245  -3.05358
   D46        3.07998   0.00017   0.00000   0.02505   0.02496   3.10494
   D47       -0.07453   0.00020   0.00000   0.01429   0.01420  -0.06033
   D48        0.00596   0.00004   0.00000  -0.00762  -0.00761  -0.00165
   D49        3.13463   0.00006   0.00000  -0.01839  -0.01837   3.11626
   D50       -3.08043  -0.00036   0.00000  -0.02804  -0.02813  -3.10856
   D51        0.07655  -0.00032   0.00000  -0.03049  -0.03057   0.04599
   D52       -0.00811  -0.00012   0.00000   0.00505   0.00505  -0.00306
   D53       -3.13431  -0.00009   0.00000   0.00259   0.00262  -3.13169
   D54       -0.00152   0.00004   0.00000   0.00476   0.00474   0.00322
   D55        3.13307   0.00005   0.00000   0.00234   0.00234   3.13541
   D56       -3.13020   0.00002   0.00000   0.01549   0.01545  -3.11475
   D57        0.00439   0.00003   0.00000   0.01307   0.01305   0.01744
   D58       -0.00094  -0.00004   0.00000   0.00089   0.00089  -0.00005
   D59        3.13933  -0.00005   0.00000  -0.00116  -0.00115   3.13818
   D60       -3.13550  -0.00005   0.00000   0.00331   0.00330  -3.13220
   D61        0.00478  -0.00006   0.00000   0.00127   0.00126   0.00604
   D62       -0.00120  -0.00004   0.00000  -0.00343  -0.00342  -0.00462
   D63        3.13880  -0.00004   0.00000  -0.00279  -0.00279   3.13601
   D64       -3.14147  -0.00003   0.00000  -0.00139  -0.00138   3.14033
   D65       -0.00147  -0.00003   0.00000  -0.00074  -0.00075  -0.00223
   D66        0.00587   0.00013   0.00000   0.00040   0.00038   0.00625
   D67        3.13237   0.00009   0.00000   0.00279   0.00276   3.13513
   D68       -3.13414   0.00012   0.00000  -0.00024  -0.00024  -3.13438
   D69       -0.00764   0.00008   0.00000   0.00214   0.00213  -0.00551
   D70        2.87119   0.00053   0.00000   0.22659   0.22659   3.09778
   D71       -1.33383   0.00052   0.00000   0.23479   0.23479  -1.09904
   D72        0.77472   0.00047   0.00000   0.23701   0.23701   1.01173
         Item               Value     Threshold  Converged?
 Maximum Force            0.004586     0.000450     NO 
 RMS     Force            0.000669     0.000300     NO 
 Maximum Displacement     0.483002     0.001800     NO 
 RMS     Displacement     0.106511     0.001200     NO 
 Predicted change in Energy=-5.632335D-04
 GradGradGradGradGradGradGradGradGradGradGradGradGradGradGradGradGradGrad

                          Input orientation:                          
 ---------------------------------------------------------------------
 Center     Atomic      Atomic             Coordinates (Angstroms)
 Number     Number       Type             X           Y           Z
 ---------------------------------------------------------------------
      1          6           0       -0.909368   -0.573210   -0.194287
      2          6           0       -2.303161   -0.463700   -0.047619
      3          8           0       -2.983872    0.531248    0.252088
      4          6           0        0.042992    0.476266    0.212865
      5          6           0       -1.049501    2.705829   -0.771040
      6          1           0       -0.843939    3.330205    0.104257
      7          1           0       -1.057090    3.333721   -1.670254
      8          1           0       -2.002843    2.177181   -0.627497
      9          7           0        0.010846    1.683449   -0.900114
     10          1           0       -0.125944    1.166675   -1.770331
     11          1           0        0.933760    2.126982   -0.952549
     12          6           0        1.489401   -0.009898    0.089040
     13          6           0        1.906494   -0.650165   -1.089569
     14          6           0        3.223951   -1.067074   -1.255971
     15          6           0        4.159470   -0.856631   -0.242472
     16          6           0        3.760492   -0.226781    0.932959
     17          6           0        2.439737    0.195497    1.095278
     18          1           0        1.180068   -0.845126   -1.882673
     19          1           0        3.520032   -1.567861   -2.180499
     20          1           0        5.193136   -1.185592   -0.369091
     21          1           0        4.480407   -0.059873    1.737246
     22          1           0        2.158170    0.680118    2.030420
     23          6           0       -0.265703    1.149717    1.548467
     24          1           0       -1.327666    1.419126    1.584324
     25          1           0       -0.086266    0.416237    2.346024
     26          1           0        0.351751    2.040992    1.746299
     27          1           0       -0.511242   -1.556229   -0.441921
     28          8           0       -2.949504   -1.646262   -0.315983
     29          6           0       -4.353196   -1.610657   -0.284529
[...]
 Alpha virt. eigenvalues --    2.15948   2.16478   2.19006   2.20271   2.21271
 Alpha virt. eigenvalues --    2.23362   2.24037   2.25513   2.28894   2.32134
 Alpha virt. eigenvalues --    2.35357   2.35464   2.37599   2.38759   2.39491
 Alpha virt. eigenvalues --    2.40509   2.41331   2.43101   2.43682   2.45024
 Alpha virt. eigenvalues --    2.46121   2.48520   2.50289   2.50528   2.52539
 Alpha virt. eigenvalues --    2.56568   2.59016   2.61862   2.62663   2.67333
 Alpha virt. eigenvalues --    2.70937   2.71547   2.73055   2.73982   2.76629
 Alpha virt. eigenvalues --    2.77526   2.78871   2.80005   2.81067   2.81840
 Alpha virt. eigenvalues --    2.82464   2.83820   2.87101   2.89980   2.91666
 Alpha virt. eigenvalues --    2.93258   2.96239   2.97176   2.99616   3.02719
 Alpha virt. eigenvalues --    3.03822   3.04187   3.05972   3.08714   3.09987
 Alpha virt. eigenvalues --    3.12356   3.13225   3.16288   3.20928   3.24449
 Alpha virt. eigenvalues --    3.28884   3.31406   3.32510   3.34469   3.47551
 Alpha virt. eigenvalues --    3.58546   3.71237   3.74154   3.82657
          Condensed to atoms (all electrons):
               1          2          3          4          5          6
     1  C    5.738213   0.353025  -0.141308   0.255298   0.002716  -0.000578
     2  C    0.353025   4.449351   0.636586  -0.016479  -0.000907   0.000199
     3  O   -0.141308   0.636586   7.928327   0.016860  -0.017154   0.000479
     4  C    0.255298  -0.016479   0.016860   5.474522  -0.031450  -0.012692
     5  C    0.002716  -0.000907  -0.017154  -0.031450   4.540255   0.395580
     6  H   -0.000578   0.000199   0.000479  -0.012692   0.395580   0.592388
     7  H   -0.000490   0.000014   0.000255   0.005247   0.397469  -0.021129
     8  H   -0.002440   0.000389   0.041336  -0.003702   0.385443  -0.012182
     9  N   -0.092075  -0.004918   0.001548   0.095521   0.303757  -0.015106
    10  H    0.001670   0.006785   0.002443   0.012816  -0.014502   0.005526
    11  H    0.006533  -0.000331  -0.000008  -0.004796  -0.015638  -0.006061
    12  C   -0.051528   0.010348   0.000818   0.166177   0.004268   0.000662
    13  C   -0.014891   0.000362  -0.000004  -0.097472   0.000064   0.000154
    14  C    0.000758  -0.000005  -0.000000   0.013080   0.000009  -0.000001
    15  C    0.000004   0.000000  -0.000000  -0.001744  -0.000001  -0.000000
    16  C   -0.000469   0.000007  -0.000000   0.021153  -0.000001  -0.000005
    17  C    0.007220  -0.000553  -0.000003  -0.089717   0.000139  -0.000152
    18  H    0.018670  -0.000762  -0.000036  -0.014646   0.000026  -0.000023
    19  H   -0.000018  -0.000001   0.000000  -0.000297  -0.000000  -0.000000
    20  H    0.000001   0.000000   0.000000   0.000020   0.000000   0.000000
    21  H    0.000005  -0.000000   0.000000  -0.000276  -0.000000  -0.000000
    22  H    0.000442  -0.000025   0.000004  -0.034901  -0.000089  -0.000080
    23  C   -0.043462  -0.016347  -0.016165   0.402127   0.020666   0.007128
    24  H   -0.024612   0.003022   0.024903   0.007930   0.004765  -0.002376
    25  H   -0.000222  -0.001286   0.000018  -0.009024  -0.000054   0.000111
    26  H    0.009571   0.000999   0.000052   0.004278  -0.002099   0.001064
    27  H    0.404046  -0.010857   0.004199  -0.062942  -0.000052   0.000004
    28  O   -0.131490   0.364729  -0.083519   0.005266  -0.000041   0.000001
    29  C    0.010640  -0.039271   0.001373  -0.000479   0.000006   0.000000
    30  H    0.000165   0.005688   0.001056   0.000001  -0.000000  -0.000000
    31  H    0.000780  -0.005483   0.009390   0.000055   0.000004  -0.000000
    32  H    0.001088  -0.003953   0.008334   0.000047  -0.000005  -0.000000
               7          8          9         10         11         12
     1  C   -0.000490  -0.002440  -0.092075   0.001670   0.006533  -0.051528
     2  C    0.000014   0.000389  -0.004918   0.006785  -0.000331   0.010348
     3  O    0.000255   0.041336   0.001548   0.002443  -0.000008   0.000818
     4  C    0.005247  -0.003702   0.095521   0.012816  -0.004796   0.166177
     5  C    0.397469   0.385443   0.303757  -0.014502  -0.015638   0.004268
     6  H   -0.021129  -0.012182  -0.015106   0.005526  -0.006061   0.000662
     7  H    0.588689  -0.014124  -0.016524  -0.006376  -0.005448  -0.000278
     8  H   -0.014124   0.520838  -0.016643  -0.004430   0.005267   0.000368
     9  N   -0.016524  -0.016643   6.305976   0.320784   0.332749  -0.025180
    10  H   -0.006376  -0.004430   0.320784   0.491648  -0.007053  -0.008735
    11  H   -0.005448   0.005267   0.332749  -0.007053   0.509000  -0.008665
    12  C   -0.000278   0.000368  -0.025180  -0.008735  -0.008665   5.496778
    13  C   -0.000073  -0.000020  -0.010229   0.005242   0.005570   0.273918
    14  C   -0.000001  -0.000001  -0.000342   0.000123  -0.000338   0.071194
    15  C    0.000000   0.000000   0.000046   0.000008  -0.000030  -0.142769
    16  C    0.000000  -0.000001  -0.000177   0.000003  -0.000307   0.065552
    17  C   -0.000005  -0.000017  -0.000180  -0.000370   0.002139   0.344465
    18  H   -0.000012   0.000008  -0.003162   0.002184   0.001868  -0.080223
    19  H    0.000000   0.000000   0.000003  -0.000006   0.000013   0.014307
    20  H   -0.000000   0.000000  -0.000000   0.000000  -0.000003  -0.001482
    21  H    0.000000   0.000000   0.000002  -0.000000   0.000002   0.014433
    22  H    0.000000   0.000011   0.000377  -0.000021   0.000106  -0.050052
    23  C   -0.000267  -0.001562  -0.060158   0.006043   0.002689  -0.069474
    24  H    0.000184  -0.001099  -0.010358   0.000259  -0.000160   0.007032
    25  H   -0.000018   0.000088   0.006000  -0.000250  -0.000241  -0.008940
    26  H    0.000314  -0.000663  -0.002473  -0.000740   0.000622  -0.016193
    27  H    0.000011  -0.000131   0.003456   0.000462  -0.000100  -0.004243
    28  O    0.000001   0.000299   0.000052  -0.000509   0.000003  -0.000017
    29  C    0.000000  -0.000037   0.000012  -0.000041  -0.000001   0.000005
    30  H   -0.000000   0.000001   0.000000  -0.000002   0.000000  -0.000001
    31  H    0.000000  -0.000046   0.000004  -0.000032  -0.000000   0.000001
    32  H   -0.000002   0.000043  -0.000027   0.000167   0.000001  -0.000004
              13         14         15         16         17         18
     1  C   -0.014891   0.000758   0.000004  -0.000469   0.007220   0.018670
     2  C    0.000362  -0.000005   0.000000   0.000007  -0.000553  -0.000762
     3  O   -0.000004  -0.000000  -0.000000  -0.000000  -0.000003  -0.000036
     4  C   -0.097472   0.013080  -0.001744   0.021153  -0.089717  -0.014646
     5  C    0.000064   0.000009  -0.000001  -0.000001   0.000139   0.000026
     6  H    0.000154  -0.000001  -0.000000  -0.000005  -0.000152  -0.000023
     7  H   -0.000073  -0.000001   0.000000   0.000000  -0.000005  -0.000012
     8  H   -0.000020  -0.000001   0.000000  -0.000001  -0.000017   0.000008
     9  N   -0.010229  -0.000342   0.000046  -0.000177  -0.000180  -0.003162
    10  H    0.005242   0.000123   0.000008   0.000003  -0.000370   0.002184
    11  H    0.005570  -0.000338  -0.000030  -0.000307   0.002139   0.001868
    12  C    0.273918   0.071194  -0.142769   0.065552   0.344465  -0.080223
    13  C    5.177334   0.323109   0.073162  -0.131979   0.031705   0.453622
    14  C    0.323109   5.021771   0.296287   0.075209  -0.122571  -0.055168
    15  C    0.073162   0.296287   5.076890   0.305238   0.068688   0.013101
    16  C   -0.131979   0.075209   0.305238   5.061508   0.301158  -0.002030
    17  C    0.031705  -0.122571   0.068688   0.301158   5.068342   0.012879
    18  H    0.453622  -0.055168   0.013101  -0.002030   0.012879   0.643047
    19  H   -0.063370   0.449286  -0.067075   0.012344  -0.001626  -0.011541
    20  H    0.012519  -0.064077   0.447532  -0.062606   0.012557  -0.000187
    21  H   -0.001599   0.012221  -0.067265   0.445036  -0.058969   0.000021
    22  H    0.013412  -0.001868   0.013115  -0.067822   0.448236  -0.000137
    23  C    0.014785  -0.000475   0.000143  -0.000907   0.009330   0.000965
    24  H   -0.000096   0.000006   0.000003  -0.000045   0.000707   0.000051
    25  H   -0.000133   0.000024  -0.000048   0.000671   0.000074  -0.000029
    26  H   -0.001273  -0.000002  -0.000050   0.000934   0.004108  -0.000095
    27  H   -0.003710   0.000733  -0.000098   0.000005   0.000464   0.000716
    28  O   -0.000021  -0.000000  -0.000000   0.000000   0.000000  -0.000018
    29  C    0.000000   0.000000  -0.000000   0.000000  -0.000000  -0.000005
    30  H    0.000000  -0.000000   0.000000  -0.000000   0.000000   0.000000
    31  H   -0.000000  -0.000000  -0.000000  -0.000000   0.000000  -0.000000
    32  H    0.000001   0.000000  -0.000000   0.000000  -0.000000   0.000000
              19         20         21         22         23         24
     1  C   -0.000018   0.000001   0.000005   0.000442  -0.043462  -0.024612
     2  C   -0.000001   0.000000  -0.000000  -0.000025  -0.016347   0.003022
     3  O    0.000000   0.000000   0.000000   0.000004  -0.016165   0.024903
     4  C   -0.000297   0.000020  -0.000276  -0.034901   0.402127   0.007930
     5  C   -0.000000   0.000000  -0.000000  -0.000089   0.020666   0.004765
     6  H   -0.000000   0.000000  -0.000000  -0.000080   0.007128  -0.002376
     7  H    0.000000  -0.000000   0.000000   0.000000  -0.000267   0.000184
     8  H    0.000000   0.000000   0.000000   0.000011  -0.001562  -0.001099
     9  N    0.000003  -0.000000   0.000002   0.000377  -0.060158  -0.010358
    10  H   -0.000006   0.000000  -0.000000  -0.000021   0.006043   0.000259
    11  H    0.000013  -0.000003   0.000002   0.000106   0.002689  -0.000160
    12  C    0.014307  -0.001482   0.014433  -0.050052  -0.069474   0.007032
    13  C   -0.063370   0.012519  -0.001599   0.013412   0.014785  -0.000096
    14  C    0.449286  -0.064077   0.012221  -0.001868  -0.000475   0.000006
    15  C   -0.067075   0.447532  -0.067265   0.013115   0.000143   0.000003
    16  C    0.012344  -0.062606   0.445036  -0.067822  -0.000907  -0.000045
    17  C   -0.001626   0.012557  -0.058969   0.448236   0.009330   0.000707
    18  H   -0.011541  -0.000187   0.000021  -0.000137   0.000965   0.000051
    19  H    0.647171  -0.010562  -0.000208   0.000023   0.000004  -0.000000
    20  H   -0.010562   0.644720  -0.010588  -0.000202   0.000000   0.000000
    21  H   -0.000208  -0.010588   0.649006  -0.011789  -0.000002  -0.000000
    22  H    0.000023  -0.000202  -0.011789   0.653582   0.019739   0.000023
    23  C    0.000004   0.000000  -0.000002   0.019739   4.543063   0.373666
    24  H   -0.000000   0.000000  -0.000000   0.000023   0.373666   0.594177
    25  H    0.000000  -0.000000   0.000011   0.000632   0.388102  -0.012010
    26  H    0.000000  -0.000000   0.000019  -0.001146   0.355331  -0.027064
    27  H    0.000040  -0.000001   0.000000   0.000011   0.002016   0.000048
    28  O    0.000000  -0.000000   0.000000   0.000000  -0.000166   0.000068
    29  C   -0.000000   0.000000  -0.000000  -0.000000   0.000009  -0.000067
    30  H   -0.000000  -0.000000   0.000000  -0.000000   0.000002  -0.000003
    31  H    0.000000  -0.000000  -0.000000  -0.000000  -0.000037   0.000159
    32  H   -0.000000  -0.000000   0.000000  -0.000000   0.000014  -0.000049
              25         26         27         28         29         30
     1  C   -0.000222   0.009571   0.404046  -0.131490   0.010640   0.000165
     2  C   -0.001286   0.000999  -0.010857   0.364729  -0.039271   0.005688
     3  O    0.000018   0.000052   0.004199  -0.083519   0.001373   0.001056
     4  C   -0.009024   0.004278  -0.062942   0.005266  -0.000479   0.000001
     5  C   -0.000054  -0.002099  -0.000052  -0.000041   0.000006  -0.000000
     6  H    0.000111   0.001064   0.000004   0.000001   0.000000  -0.000000
     7  H   -0.000018   0.000314   0.000011   0.000001   0.000000  -0.000000
     8  H    0.000088  -0.000663  -0.000131   0.000299  -0.000037   0.000001
     9  N    0.006000  -0.002473   0.003456   0.000052   0.000012   0.000000
    10  H   -0.000250  -0.000740   0.000462  -0.000509  -0.000041  -0.000002
    11  H   -0.000241   0.000622  -0.000100   0.000003  -0.000001   0.000000
    12  C   -0.008940  -0.016193  -0.004243  -0.000017   0.000005  -0.000001
    13  C   -0.000133  -0.001273  -0.003710  -0.000021   0.000000   0.000000
    14  C    0.000024  -0.000002   0.000733  -0.000000   0.000000  -0.000000
    15  C   -0.000048  -0.000050  -0.000098  -0.000000  -0.000000   0.000000
    16  C    0.000671   0.000934   0.000005   0.000000   0.000000  -0.000000
    17  C    0.000074   0.004108   0.000464   0.000000  -0.000000   0.000000
    18  H   -0.000029  -0.000095   0.000716  -0.000018  -0.000005   0.000000
    19  H    0.000000   0.000000   0.000040   0.000000  -0.000000  -0.000000
    20  H   -0.000000  -0.000000  -0.000001  -0.000000   0.000000  -0.000000
    21  H    0.000011   0.000019   0.000000   0.000000  -0.000000   0.000000
    22  H    0.000632  -0.001146   0.000011   0.000000  -0.000000  -0.000000
    23  C    0.388102   0.355331   0.002016  -0.000166   0.000009   0.000002
    24  H   -0.012010  -0.027064   0.000048   0.000068  -0.000067  -0.000003
    25  H    0.604336  -0.024926   0.000786  -0.000010  -0.000001  -0.000000
    26  H   -0.024926   0.682680  -0.000158  -0.000000   0.000000   0.000000
    27  H    0.000786  -0.000158   0.658666   0.006000  -0.000183  -0.000177
    28  O   -0.000010  -0.000000   0.006000   8.011965   0.289121  -0.025948
    29  C   -0.000001   0.000000  -0.000183   0.289121   4.392616   0.395433
    30  H   -0.000000   0.000000  -0.000177  -0.025948   0.395433   0.645797
    31  H    0.000001   0.000001   0.000027  -0.030505   0.401680  -0.027324
    32  H   -0.000000  -0.000001   0.000032  -0.031992   0.397283  -0.027672
              31         32
     1  C    0.000780   0.001088
     2  C   -0.005483  -0.003953
     3  O    0.009390   0.008334
     4  C    0.000055   0.000047
     5  C    0.000004  -0.000005
     6  H   -0.000000  -0.000000
     7  H    0.000000  -0.000002
     8  H   -0.000046   0.000043
     9  N    0.000004  -0.000027
    10  H   -0.000032   0.000167
    11  H   -0.000000   0.000001
    12  C    0.000001  -0.000004
    13  C   -0.000000   0.000001
    14  C   -0.000000   0.000000
    15  C   -0.000000  -0.000000
    16  C   -0.000000   0.000000
    17  C    0.000000  -0.000000
    18  H   -0.000000   0.000000
    19  H    0.000000  -0.000000
    20  H   -0.000000  -0.000000
    21  H   -0.000000   0.000000
    22  H   -0.000000  -0.000000
    23  C   -0.000037   0.000014
    24  H    0.000159  -0.000049
    25  H    0.000001  -0.000000
    26  H    0.000001  -0.000001
    27  H    0.000027   0.000032
    28  O   -0.030505  -0.031992
    29  C    0.401680   0.397283
    30  H   -0.027324  -0.027672
    31  H    0.663695  -0.038579
    32  H   -0.038579   0.676439
 Mulliken charges:
               1
     1  C   -0.307260
     2  C    0.269675
     3  O   -0.419787
     4  C   -0.099780
     5  C    0.026828
     6  H    0.067091
     7  H    0.072562
     8  H    0.103006
     9  N   -0.112735
    10  H    0.186903
    11  H    0.182617
    12  C   -0.002543
    13  C   -0.060090
    14  C   -0.018961
    15  C   -0.015139
    16  C   -0.022471
    17  C   -0.038047
    18  H    0.020914
    19  H    0.031514
    20  H    0.032359
    21  H    0.029940
    22  H    0.018420
    23  C    0.063202
    24  H    0.060939
    25  H    0.056340
    26  H    0.016907
    27  H    0.000929
    28  O   -0.373268
    29  C    0.151907
    30  H    0.032985
    31  H    0.026210
    32  H    0.018835
 Sum of Mulliken charges =  -0.00000
 Mulliken charges with hydrogens summed into heavy atoms:
               1
     1  C   -0.306331
     2  C    0.269675
     3  O   -0.419787
     4  C   -0.099780
     5  C    0.269486
     9  N    0.256785
    12  C   -0.002543
    13  C   -0.039176
    14  C    0.012553
    15  C    0.017221
    16  C    0.007468
    17  C   -0.019627
    23  C    0.197388
    28  O   -0.373268
    29  C    0.229936
 Electronic spatial extent (au):  <R**2>=           3887.7309
 Charge=             -0.0000 electrons
 Dipole moment (field-independent basis, Debye):
    X=              5.2352    Y=              4.0265    Z=             -3.3731  Tot=              7.4161
 Quadrupole moment (field-independent basis, Debye-Ang):
   XX=            -92.5031   YY=            -85.3929   ZZ=            -82.7114
   XY=              0.2260   XZ=              2.1478   YZ=             -1.0254
 Traceless Quadrupole moment (field-independent basis, Debye-Ang):
   XX=             -5.6340   YY=              1.4763   ZZ=              4.1577
   XY=              0.2260   XZ=              2.1478   YZ=             -1.0254
 Octapole moment (field-independent basis, Debye-Ang**2):
  XXX=             15.3197  YYY=             30.7248  ZZZ=            -14.9401  XYY=             -3.6770
  XXY=            -24.9890  XXZ=              2.0891  XZZ=             -6.2037  YZZ=             11.7470
  YYZ=            -16.7744  XYZ=             10.1313
 Hexadecapole moment (field-independent basis, Debye-Ang**3):
 XXXX=          -3435.1240 YYYY=           -913.3400 ZZZZ=           -450.4202 XXXY=             50.2815
 XXXZ=             24.7727 YYYX=             -2.7525 YYYZ=            -21.6962 ZZZX=              7.9294
 ZZZY=            -13.7780 XXYY=           -775.7823 XXZZ=           -683.5589 YYZZ=           -219.4617
 XXYZ=             29.7500 YYXZ=             -8.2198 ZZXY=             -1.2305
 N-N= 1.010494950294D+03 E-N=-3.583121532115D+03  KE= 6.648223445455D+02
 Unable to Open any file for archive entry.
 1\1\GINC-NODE-001\FTS\RwB97XD\Gen\C12H17N1O2\JP2658\19-Dec-2023\0\\# w
 b97xd chkbasis guess=read geom=allchk scrf=(iefpcm,solvent=toluene) op
 t=(readfc,ts,noeigen,maxcycles=50,maxstep=10)\\TS-92.out\\0,1\C,-0.887
 2127033,-0.7349535198,-0.0664229529\C,-2.2753975638,-0.5398035419,-0.0
 98905337\O,-2.8866763116,0.5411810882,-0.0216347085\C,0.0199124982,0.3
 791769416,0.2683154996\C,-0.8937915863,2.7895101857,-0.6233441384\H,-0
 .3284276748,3.3813592259,0.1040993601\H,-0.9967597327,3.3611303914,-1.
 5551559416\H,-1.8796980574,2.5156991637,-0.2331103194\N,-0.1754244429,
 1.5339776955,-0.9119470731\H,-0.6949788201,0.9938581172,-1.6112367644\
 H,0.7458072769,1.7339925901,-1.3097433961\C,1.4866328054,-0.0209201058
 ,0.1135689364\C,1.8958210189,-0.6928493517,-1.0493751697\C,3.228550340
 2,-1.0439485333,-1.2464785494\C,4.1845982235,-0.7354201762,-0.27844762
 69\C,3.7926187578,-0.0720925342,0.8814154165\C,2.4574558355,0.28668958
 64,1.0730541218\H,1.149472532,-0.9572769238,-1.8024710088\H,3.52050322
 87,-1.5694496089,-2.1584178099\H,5.2299454027,-1.0142718711,-0.4274135
 257\H,4.5302621284,0.1704563252,1.6495645593\H,2.1807693634,0.80304968
 81,1.992445415\C,-0.285715968,1.0759084669,1.5930853558\H,-1.356343130
 1,1.3046799544,1.6449411291\H,-0.0553818974,0.36801813,2.4001247937\H,
 0.2963306418,1.9947183777,1.7647482651\H,-0.4787943372,-1.7339512681,-
 0.2055210072\O,-2.9884502827,-1.6980152443,-0.2791990211\C,-4.37990831
 72,-1.5559838205,-0.4126593824\H,-4.7855653352,-2.5669833529,-0.551513
 9152\H,-4.8350908962,-1.0987323643,0.4802157801\H,-4.6497729964,-0.932
 3337111,-1.2807009849\\Version=ES64L-G16RevC.01\State=1-A\HF=-671.9706
 48\RMSD=5.714e-09\RMSF=6.760e-06\Dipole=2.0219567,1.8919145,-0.9194622
 \Quadrupole=-4.2711852,1.4529082,2.8182771,-0.3293518,1.4043755,-1.040
 684\PG=C01 [X(C12H17N1O2)]\\@
 The archive entry for this job was punched.


 REVOLUTIONS HAVE NEVER LIGHTENED THE BURDEN OF TYRANNY:
 THEY HAVE MERELY SHIFTED IT TO OTHER SHOULDERS.
                                   -- G. B. SHAW (1903)
 Job cpu time:       0 days  2 hours  7 minutes 22.8 seconds.
 Elapsed time:       0 days  0 hours 10 minutes 51.3 seconds.
 File lengths (MBytes):  RWF=    218 Int=      0 D2E=      0 Chk=     14 Scr=      1
 Normal termination of Gaussian 16 at Tue Dec 19 14:17:01 2023.
