Unloading slurm/anatra/current
  ERROR: No such file or directory on
    '/cm/local/modulefiles/slurm/anatra/current'
environment: line 0: unalias: gv: not found
environment: line 0: unalias: sl: not found
 Entering Gaussian System, Link 0=g16
 Initial command:
 /apps/gaussian/g16/C.01/g16/l1.exe "/local/jobs/1153181/Gau-1740456.inp" -scrdir="/local/jobs/1153181/"
 Entering Link 1 = /apps/gaussian/g16/C.01/g16/l1.exe PID=   1740459.
  
 Copyright (c) 1988-2019, Gaussian, Inc.  All Rights Reserved.
  
 This is part of the Gaussian(R) 16 program.  It is based on
 the Gaussian(R) 09 system (copyright 2009, Gaussian, Inc.),
 the Gaussian(R) 03 system (copyright 2003, Gaussian, Inc.),
 the Gaussian(R) 98 system (copyright 1998, Gaussian, Inc.),
 the Gaussian(R) 94 system (copyright 1995, Gaussian, Inc.),
 the Gaussian 92(TM) system (copyright 1992, Gaussian, Inc.),
 the Gaussian 90(TM) system (copyright 1990, Gaussian, Inc.),
 the Gaussian 88(TM) system (copyright 1988, Gaussian, Inc.),
 the Gaussian 86(TM) system (copyright 1986, Carnegie Mellon
 University), and the Gaussian 82(TM) system (copyright 1983,
 Carnegie Mellon University). Gaussian is a federally registered
 trademark of Gaussian, Inc.
  
 This software contains proprietary and confidential information,
 including trade secrets, belonging to Gaussian, Inc.
  
 This software is provided under written license and may be
 used, copied, transmitted, or stored only in accord with that
 written license.
  
 The following legend is applicable only to US Government
 contracts under FAR:
  
                    RESTRICTED RIGHTS LEGEND
  
 Use, reproduction and disclosure by the US Government is
 subject to restrictions as set forth in subparagraphs (a)
 and (c) of the Commercial Computer Software - Restricted
 Rights clause in FAR 52.227-19.
  
 Gaussian, Inc.
 340 Quinnipiac St., Bldg. 40, Wallingford CT 06492
  
  
 ---------------------------------------------------------------
 Warning -- This program may not be used in any manner that
 competes with the business of Gaussian, Inc. or will provide
 assistance to any competitor of Gaussian, Inc.  The licensee
 of this program is prohibited from giving any competitor of
 Gaussian, Inc. access to this program.  By using this program,
 the user acknowledges that Gaussian, Inc. is engaged in the
 business of creating and licensing software in the field of
 computational chemistry and represents and warrants to the
 licensee that it is not a competitor of Gaussian, Inc. and that
 it will not use this program in any manner prohibited above.
 ---------------------------------------------------------------
  

 Cite this work as:
 Gaussian 16, Revision C.01,
 M. J. Frisch, G. W. Trucks, H. B. Schlegel, G. E. Scuseria, 
 M. A. Robb, J. R. Cheeseman, G. Scalmani, V. Barone, 
 G. A. Petersson, H. Nakatsuji, X. Li, M. Caricato, A. V. Marenich, 
 J. Bloino, B. G. Janesko, R. Gomperts, B. Mennucci, H. P. Hratchian, 
 J. V. Ortiz, A. F. Izmaylov, J. L. Sonnenberg, D. Williams-Young, 
 F. Ding, F. Lipparini, F. Egidi, J. Goings, B. Peng, A. Petrone, 
 T. Henderson, D. Ranasinghe, V. G. Zakrzewski, J. Gao, N. Rega, 
 G. Zheng, W. Liang, M. Hada, M. Ehara, K. Toyota, R. Fukuda, 
 J. Hasegawa, M. Ishida, T. Nakajima, Y. Honda, O. Kitao, H. Nakai, 
 T. Vreven, K. Throssell, J. A. Montgomery, Jr., J. E. Peralta, 
 F. Ogliaro, M. J. Bearpark, J. J. Heyd, E. N. Brothers, K. N. Kudin, 
 V. N. Staroverov, T. A. Keith, R. Kobayashi, J. Normand, 
 K. Raghavachari, A. P. Rendell, J. C. Burant, S. S. Iyengar, 
 J. Tomasi, M. Cossi, J. M. Millam, M. Klene, C. Adamo, R. Cammi, 
 J. W. Ochterski, R. L. Martin, K. Morokuma, O. Farkas, 
 J. B. Foresman, and D. J. Fox, Gaussian, Inc., Wallingford CT, 2019.
 
 ******************************************
 Gaussian 16:  ES64L-G16RevC.01  3-Jul-2019
                30-Dec-2023 
 ******************************************
 %chk=TS-325_opt_hf_freq.chk
 %nprocshared=12
 Will use up to   12 processors via shared memory.
 %mem=48GB
 -----------------------------------------------------------
 # wb97xd def2svp scrf=(iefpcm,solvent=toluene) freq=noraman
 -----------------------------------------------------------
 1/10=4,30=1,38=1/1,3;
 2/12=2,17=6,18=5,40=1/2;
 3/5=43,7=101,11=2,25=1,30=1,70=2201,71=2,72=13,74=-58,140=1/1,2,3;
 4//1;
 5/5=2,38=5,53=13,98=1/2;
 8/6=4,10=90,11=11/1;
 11/6=1,8=1,9=11,15=111,16=1/1,2,10;
 10/6=1/2;
 6/7=2,8=2,9=2,10=2,28=1/1;
 7/8=1,10=1,25=1/1,2,3,16;
 1/10=4,30=1/3;
 99//99;
 -----------------
 TS-325_opt_hf.out
 -----------------
 Symbolic Z-matrix:
 Charge =  0 Multiplicity = 1
 C                     0.10075   0.10034  -0.11028 
 C                    -0.33403   1.50255   0.04155 
 O                    -1.34528   1.80627   0.68613 
 C                    -0.84988  -0.89193   0.02535 
 C                    -0.50725  -0.98043   2.85549 
 H                    -0.76576  -0.58808   3.85167 
 H                    -0.26029  -2.04728   2.94662 
 H                     0.38549  -0.4471    2.49445 
 N                    -1.56639  -0.79366   1.88564 
 H                    -2.3919   -1.36703   2.05084 
 H                    -1.82997   0.19534   1.78019 
 H                    -0.51744  -1.93165   0.03423 
 Br                   -2.58304  -0.8005   -0.84436 
 C                     1.53113  -0.2801   -0.19137 
 C                     2.52724   0.41346   0.52481 
 C                     3.8644    0.03071   0.46149 
 C                     4.25078  -1.06827  -0.30718 
 C                     3.28104  -1.76882  -1.02294 
 C                     1.94587  -1.37169  -0.97684 
 H                     2.24334   1.2632    1.15033 
 H                     4.61135   0.58891   1.03128 
 H                     5.29904  -1.37127  -0.35182 
 H                     3.56766  -2.62318  -1.641 
 H                     1.20628  -1.90558  -1.57896 
 N                     0.44309   2.45437  -0.54213 
 C                     0.18344   3.86682  -0.43273 
 H                     1.20659   2.14303  -1.12798 
 H                    -0.59796   4.01086   0.323 
 H                     1.08842   4.41255  -0.12391 
 H                    -0.17402   4.29373  -1.38403 
 

 GradGradGradGradGradGradGradGradGradGradGradGradGradGradGradGradGradGrad
 Berny optimization.
 Initialization pass.
 Trust Radius=3.00D-01 FncErr=1.00D-07 GrdErr=1.00D-07 EigMax=2.50D+02 EigMin=1.00D-04
 Number of steps in this run=      2 maximum allowed number of steps=      2.
 GradGradGradGradGradGradGradGradGradGradGradGradGradGradGradGradGradGrad

                          Input orientation:                          
 ---------------------------------------------------------------------
 Center     Atomic      Atomic             Coordinates (Angstroms)
 Number     Number       Type             X           Y           Z
 ---------------------------------------------------------------------
      1          6           0        0.100750    0.100340   -0.110280
      2          6           0       -0.334030    1.502550    0.041550
      3          8           0       -1.345280    1.806270    0.686130
      4          6           0       -0.849880   -0.891930    0.025350
      5          6           0       -0.507250   -0.980430    2.855490
      6          1           0       -0.765760   -0.588080    3.851670
      7          1           0       -0.260290   -2.047280    2.946620
      8          1           0        0.385490   -0.447100    2.494450
      9          7           0       -1.566390   -0.793660    1.885640
     10          1           0       -2.391900   -1.367030    2.050840
     11          1           0       -1.829970    0.195340    1.780190
     12          1           0       -0.517440   -1.931650    0.034230
     13         35           0       -2.583040   -0.800500   -0.844360
     14          6           0        1.531130   -0.280100   -0.191370
     15          6           0        2.527240    0.413460    0.524810
     16          6           0        3.864400    0.030710    0.461490
     17          6           0        4.250780   -1.068270   -0.307180
     18          6           0        3.281040   -1.768820   -1.022940
     19          6           0        1.945870   -1.371690   -0.976840
     20          1           0        2.243340    1.263200    1.150330
     21          1           0        4.611350    0.588910    1.031280
     22          1           0        5.299040   -1.371270   -0.351820
     23          1           0        3.567660   -2.623180   -1.641000
     24          1           0        1.206280   -1.905580   -1.578960
     25          7           0        0.443090    2.454370   -0.542130
     26          6           0        0.183440    3.866820   -0.432730
     27          1           0        1.206590    2.143030   -1.127980
     28          1           0       -0.597960    4.010860    0.323000
     29          1           0        1.088420    4.412550   -0.123910
     30          1           0       -0.174020    4.293730   -1.384030
 ---------------------------------------------------------------------
                    Distance matrix (angstroms):
                    1          2          3          4          5
     1  C    0.000000
     2  C    1.475899   0.000000
     3  O    2.373914   1.237075   0.000000
     4  C    1.380830   2.449469   2.821761   0.000000
     5  C    3.214579   3.756788   3.629616   2.852178   0.000000
     6  H    4.113613   4.367395   4.011159   3.839287   1.101427
     7  H    3.753300   4.587610   4.597485   3.196290   1.098846
     8  H    2.676824   3.214897   3.367976   2.796510   1.100807
     9  N    2.749962   3.192485   2.871820   1.995926   1.448195
    10  H    3.610667   4.062827   3.609388   2.589625   2.085384
    11  H    2.703809   2.639982   2.006735   2.285212   2.070819
    12  H    2.128855   3.439102   3.883599   1.091610   2.977319
    13  Br   2.924571   3.338701   3.266451   1.941288   4.246195
    14  C    1.482328   2.590543   3.660148   2.467896   3.732132
    15  C    2.527694   3.099439   4.118538   3.654920   4.072239
    16  C    3.807470   4.468722   5.508524   4.823476   5.085761
    17  C    4.315920   5.267942   6.369108   5.114529   5.713934
    18  C    3.800125   4.990364   6.091389   4.351132   5.478587
    19  C    2.514412   3.807403   4.867912   3.008450   4.567016
    20  H    2.744462   2.815940   3.659044   3.934231   3.937917
    21  H    4.678394   5.125533   6.089543   5.747157   5.656027
    22  H    5.407975   6.336013   7.437815   6.179097   6.644742
    23  H    4.666919   5.922483   7.012314   5.028778   6.286648
    24  H    2.720833   4.076022   5.041718   2.798051   4.843184
    25  N    2.417674   1.360353   2.264271   3.632014   4.923903
    26  C    3.781162   2.466270   2.799053   4.891144   5.897904
    27  H    2.535977   2.037529   3.149038   3.843205   5.344276
    28  H    3.996010   2.537812   2.355964   4.918273   5.597741
    29  H    4.423893   3.243276   3.656741   5.649495   6.364528
    30  H    4.391179   3.138243   3.441638   5.416106   6.775052
                    6          7          8          9         10
     6  H    0.000000
     7  H    1.789939   0.000000
     8  H    1.785301   1.783835   0.000000
     9  N    2.132732   2.098366   2.073786   0.000000
    10  H    2.548349   2.410171   2.959215   1.018583   0.000000
    11  H    2.457096   2.975533   2.414779   1.028939   1.682265
    12  H    4.054589   2.926006   3.011952   2.413097   2.810536
    13  Br   5.039874   4.617484   4.481597   2.913164   2.956294
    14  C    4.660121   4.022324   2.924724   3.764617   4.647482
    15  C    4.786954   4.437424   3.034327   4.479599   5.449482
    16  C    5.771880   5.244710   4.057591   5.674616   6.604620
    17  C    6.533934   5.647604   4.814089   6.222808   7.055120
    18  C    6.444576   5.326909   4.743752   5.736580   6.464658
    19  C    5.592986   4.551604   3.916568   4.567700   5.289907
    20  H    4.447377   4.522621   2.860663   4.391514   5.405042
    21  H    6.184919   5.860964   4.590433   6.387950   7.342392
    22  H    7.420547   6.499450   5.753114   7.243893   8.057503
    23  H    7.286260   6.002593   5.653625   6.491749   7.122075
    24  H    5.925917   4.759389   4.403808   4.574660   5.139298
    25  N    5.479352   5.738551   4.200317   4.525680   5.418834
    26  C    6.253255   6.825942   5.217194   5.491522   6.339849
    27  H    6.012158   6.026010   4.528242   5.039392   5.947651
    28  H    5.799131   6.610481   5.055272   5.144231   5.926665
    29  H    6.652031   7.278501   5.564721   6.179881   7.088421
    30  H    7.182951   7.679217   6.150701   6.205721   6.982945
                   11         12         13         14         15
    11  H    0.000000
    12  H    3.048803   0.000000
    13  Br   2.906385   2.513588   0.000000
    14  C    3.925568   2.641051   4.198048   0.000000
    15  C    4.539695   3.874311   5.428009   1.409317   0.000000
    16  C    5.847386   4.820159   6.630659   2.442740   1.392302
    17  C    6.552049   4.857768   6.860128   2.833923   2.420397
    18  C    6.151251   3.946210   5.946173   2.443354   2.779585
    19  C    4.930899   2.720977   4.566709   1.407317   2.404102
    20  H    4.257805   4.367454   5.615300   2.165451   1.092672
    21  H    6.496643   5.801019   7.563579   3.426048   2.151931
    22  H    7.604112   5.856151   7.918053   3.926008   3.411249
    23  H    6.984483   4.469077   6.464357   3.426209   3.872259
    24  H    4.991650   2.360990   4.014945   2.161740   3.398342
    25  N    3.957675   4.526807   4.454546   2.963813   3.106019
    26  C    4.736095   5.859312   5.441206   4.367089   4.282053
    27  H    4.633751   4.574498   4.806881   2.618038   2.732626
    28  H    4.266081   5.950067   5.334084   4.817669   4.769580
    29  H    5.470599   6.546195   6.416740   4.713969   4.299275
    30  H    5.436107   6.394119   5.660901   5.024927   5.098722
                   16         17         18         19         20
    16  C    0.000000
    17  C    1.395672   0.000000
    18  C    2.404610   1.394087   0.000000
    19  C    2.777819   2.419322   1.393742   0.000000
    20  H    2.149737   3.404395   3.872088   3.399410   0.000000
    21  H    1.092786   2.160493   3.398299   3.870566   2.465017
    22  H    2.164535   1.092086   2.163509   3.410924   4.305135
    23  H    3.398772   2.159508   1.092740   2.153494   4.964806
    24  H    3.870175   3.404041   2.152322   1.092969   4.308791
    25  N    4.311235   5.192562   5.110819   4.133528   2.743029
    26  C    5.391181   6.396415   6.457857   5.553756   3.678057
    27  H    3.748635   4.500361   4.429102   3.594807   2.653233
    28  H    5.981089   7.050175   7.089633   6.093644   4.038205
    29  H    5.220084   6.330363   6.620058   5.909327   3.588305
    30  H    6.155333   7.034878   6.987298   6.062732   4.631492
                   21         22         23         24         25
    21  H    0.000000
    22  H    2.495634   0.000000
    23  H    4.306726   2.495384   0.000000
    24  H    4.962896   4.306047   2.468788   0.000000
    25  N    4.830109   6.184819   6.062340   4.546058   0.000000
    26  C    5.700386   7.322124   7.418420   5.973328   1.440278
    27  H    4.320889   5.449851   5.343650   4.073650   1.011477
    28  H    6.272823   8.012323   8.075901   6.471244   2.062740
    29  H    5.325948   7.157782   7.612469   6.484584   2.103765
    30  H    6.516071   7.944310   7.868281   6.354107   2.114915
                   26         27         28         29         30
    26  C    0.000000
    27  H    2.121712   0.000000
    28  H    1.096568   2.974984   0.000000
    29  H    1.100990   2.484520   1.790240   0.000000
    30  H    1.102271   2.568493   1.781486   1.787673   0.000000
 Stoichiometry    C11H15BrN2O
 Framework group  C1[X(C11H15BrN2O)]
 Deg. of freedom    84
 Full point group                 C1      NOp   1
 Largest Abelian subgroup         C1      NOp   1
 Largest concise Abelian subgroup C1      NOp   1
                         Standard orientation:                         
 ---------------------------------------------------------------------
 Center     Atomic      Atomic             Coordinates (Angstroms)
 Number     Number       Type             X           Y           Z
 ---------------------------------------------------------------------
      1          6           0        0.100750    0.100340   -0.110280
      2          6           0       -0.334027    1.502551    0.041550
      3          8           0       -1.345277    1.806273    0.686130
      4          6           0       -0.849882   -0.891928    0.025350
      5          6           0       -0.507252   -0.980428    2.855490
      6          1           0       -0.765761   -0.588078    3.851670
      7          1           0       -0.260294   -2.047279    2.946620
      8          1           0        0.385489   -0.447100    2.494450
      9          7           0       -1.566392   -0.793657    1.885640
     10          1           0       -2.391903   -1.367025    2.050840
     11          1           0       -1.829970    0.195344    1.780190
     12          1           0       -0.517444   -1.931648    0.034230
     13         35           0       -2.583042   -0.800495   -0.844360
     14          6           0        1.531129   -0.280102   -0.191370
     15          6           0        2.527241    0.413456    0.524810
     16          6           0        3.864400    0.030704    0.461490
     17          6           0        4.250778   -1.068277   -0.307180
     18          6           0        3.281037   -1.768825   -1.022940
     19          6           0        1.945867   -1.371693   -0.976840
     20          1           0        2.243342    1.263196    1.150330
     21          1           0        4.611351    0.588902    1.031280
     22          1           0        5.299037   -1.371279   -0.351820
     23          1           0        3.567655   -2.623186   -1.641000
     24          1           0        1.206276   -1.905582   -1.578960
     25          7           0        0.443094    2.454370   -0.542130
     26          6           0        0.183447    3.866820   -0.432730
     27          1           0        1.206594    2.143028   -1.127980
     28          1           0       -0.597953    4.010862    0.323000
     29          1           0        1.088428    4.412549   -0.123910
     30          1           0       -0.174012    4.293731   -1.384030
 ---------------------------------------------------------------------
 Rotational constants (GHZ):           0.5748150           0.3051864           0.2598636
 Standard basis: def2SVP (5D, 7F)
 There are   320 symmetry adapted cartesian basis functions of A   symmetry.
 There are   303 symmetry adapted basis functions of A   symmetry.
   303 basis functions,   535 primitive gaussians,   320 cartesian basis functions
    69 alpha electrons       69 beta electrons
       nuclear repulsion energy      1351.9316379204 Hartrees.
 NAtoms=   30 NActive=   30 NUniq=   30 SFac= 1.00D+00 NAtFMM=   60 NAOKFM=F Big=F
 Integral buffers will be    131072 words long.
 Raffenetti 2 integral format.
 Two-electron integral symmetry is turned on.
 Nuclear repulsion after empirical dispersion term =     1351.9094331773 Hartrees.
 Force inversion solution in PCM.
 ------------------------------------------------------------------------------
 Polarizable Continuum Model (PCM)
 =================================
 Model                : PCM.
 Atomic radii         : UFF (Universal Force Field).
 Polarization charges : Total charges.
 Charge compensation  : None.
 Solution method      : Matrix inversion.
 Cavity type          : Scaled VdW (van der Waals Surface) (Alpha=1.100).
 Cavity algorithm     : GePol (No added spheres)
                        Default sphere list used, NSphG=   30.
                        Lebedev-Laikov grids with approx.  5.0 points / Ang**2.
                        Smoothing algorithm: York/Karplus (Gamma=1.0000).
                        Polarization charges: spherical gaussians, with
                                              point-specific exponents (IZeta= 3).
                        Self-potential: point-specific (ISelfS= 7).
                        Self-field    : sphere-specific E.n sum rule (ISelfD= 2).
 1st derivatives      : Analytical E(r).r(x)/FMM algorithm (CHGder, D1EAlg=3).
                        Cavity 1st derivative terms included.
 2nd derivatives      : Analytical E(r).r(xy)/FMM algorithm (CHGder, D2EAlg=3).
                        Cavity 2nd derivative terms included.
 Solvent              : Toluene, Eps=   2.374100 Eps(inf)=   2.238315
 ------------------------------------------------------------------------------
 One-electron integrals computed using PRISM.
   1 Symmetry operations used in ECPInt.
 ECPInt:  NShTT=   10011 NPrTT=   37668 LenC2=    9556 LenP2D=   25808.
 LDataN:  DoStor=T MaxTD1= 4 Len=   56
 NBasis=   303 RedAO= T EigKep=  2.89D-04  NBF=   303
 NBsUse=   303 1.00D-06 EigRej= -1.00D+00 NBFU=   303
 ExpMin= 1.22D-01 ExpMax= 1.13D+05 ExpMxC= 1.70D+04 IAcc=3 IRadAn=         5 AccDes= 0.00D+00
 Harris functional with IExCor= 4639 and IRadAn=       5 diagonalized for initial guess.
 HarFok:  IExCor= 4639 AccDes= 0.00D+00 IRadAn=         5 IDoV= 1 UseB2=F ITyADJ=14
 ICtDFT=  3500011 ScaDFX=  1.000000  1.000000  1.000000  1.000000
 FoFCou: FMM=F IPFlag=           0 FMFlag=      100000 FMFlg1=           0
         NFxFlg=           0 DoJE=T BraDBF=F KetDBF=T FulRan=T
         wScrn=  0.000000 ICntrl=       500 IOpCl=  0 I1Cent=   200000004 NGrid=           0
         NMat0=    1 NMatS0=      1 NMatT0=    0 NMatD0=    1 NMtDS0=    0 NMtDT0=    0
 Petite list used in FoFCou.
 Requested convergence on RMS density matrix=1.00D-08 within 128 cycles.
 Requested convergence on MAX density matrix=1.00D-06.
 Requested convergence on             energy=1.00D-06.
 No special actions if energy rises.
 Inv3:  Mode=1 IEnd=    16202928.
 Iteration    1 A*A^-1 deviation from unit magnitude is 2.89D-15 for    223.
 Iteration    1 A*A^-1 deviation from orthogonality  is 1.81D-15 for   1521   1005.
 Iteration    1 A^-1*A deviation from unit magnitude is 3.33D-15 for    568.
 Iteration    1 A^-1*A deviation from orthogonality  is 2.37D-15 for   1737    747.
 Error on total polarization charges =  0.00657
 SCF Done:  E(RwB97XD) =  -3186.16695677     A.U. after   15 cycles
            NFock= 15  Conv=0.61D-08     -V/T= 2.0030
 DoSCS=F DFT=T ScalE2(SS,OS)=  1.000000  1.000000
 Range of M.O.s used for correlation:     1   303
 NBasis=   303 NAE=    69 NBE=    69 NFC=     0 NFV=     0
 NROrb=    303 NOA=    69 NOB=    69 NVA=   234 NVB=   234

 **** Warning!!: The largest alpha MO coefficient is  0.12424622D+02

   1 Symmetry operations used in ECPInt.
 ECPInt:  NShTT=   10011 NPrTT=   37668 LenC2=    9556 LenP2D=   25808.
 LDataN:  DoStor=T MaxTD1= 5 Len=  102
 Symmetrizing basis deriv contribution to polar:
 IMax=3 JMax=2 DiffMx= 0.00D+00
 G2DrvN: will do    31 centers at a time, making    1 passes.
 Calling FoFCou, ICntrl=  3107 FMM=F I1Cent=   0 AccDes= 0.00D+00.
 NEqPCM:  Using equilibrium solvation (IEInf=0, Eps=   2.3741, EpsInf=   2.2383)
 G2PCM: DoFxE=T DoFxN=T DoGrad=T DoDP/DQ/DG/TGxP=FFFF NFrqRd=   0 IEInf=0 SqF1=F DoCFld=F IF1Alg=4.
 End of G2Drv F.D. properties file   721 does not exist.
 End of G2Drv F.D. properties file   722 does not exist.
 End of G2Drv F.D. properties file   788 does not exist.
          IDoAtm=111111111111111111111111111111
 NEqPCM:  Using equilibrium solvation (IEInf=0, Eps=   2.3741, EpsInf=   2.2383)
          Differentiating once with respect to electric field.
                with respect to dipole field.
          Differentiating once with respect to nuclear coordinates.
 Keep R1 ints in memory in canonical form, NReq=2151801606.
          There are    93 degrees of freedom in the 1st order CPHF.  IDoFFX=6 NUNeed=     3.
     90 vectors produced by pass  0 Test12= 1.74D-14 1.08D-09 XBig12= 1.05D+02 5.09D+00.
 AX will form    90 AO Fock derivatives at one time.
     90 vectors produced by pass  1 Test12= 1.74D-14 1.08D-09 XBig12= 8.23D+00 3.58D-01.
     90 vectors produced by pass  2 Test12= 1.74D-14 1.08D-09 XBig12= 1.81D-01 7.10D-02.
     90 vectors produced by pass  3 Test12= 1.74D-14 1.08D-09 XBig12= 2.94D-03 6.37D-03.
     90 vectors produced by pass  4 Test12= 1.74D-14 1.08D-09 XBig12= 2.80D-05 4.46D-04.
     90 vectors produced by pass  5 Test12= 1.74D-14 1.08D-09 XBig12= 1.55D-07 2.80D-05.
     83 vectors produced by pass  6 Test12= 1.74D-14 1.08D-09 XBig12= 7.56D-10 2.38D-06.
     22 vectors produced by pass  7 Test12= 1.74D-14 1.08D-09 XBig12= 3.44D-12 1.47D-07.
      3 vectors produced by pass  8 Test12= 1.74D-14 1.08D-09 XBig12= 1.47D-14 1.15D-08.
 InvSVY:  IOpt=1 It=  1 EMax= 7.11D-15
 Solved reduced A of dimension   648 with    93 vectors.
 Isotropic polarizability for W=    0.000000      184.25 Bohr**3.
 End of Minotr F.D. properties file   721 does not exist.
 End of Minotr F.D. properties file   722 does not exist.
 End of Minotr F.D. properties file   788 does not exist.

 **********************************************************************

            Population analysis using the SCF Density.

 **********************************************************************

 Orbital symmetries:
       Occupied  (A) (A) (A) (A) (A) (A) (A) (A) (A) (A) (A) (A)
                 (A) (A) (A) (A) (A) (A) (A) (A) (A) (A) (A) (A)
                 (A) (A) (A) (A) (A) (A) (A) (A) (A) (A) (A) (A)
                 (A) (A) (A) (A) (A) (A) (A) (A) (A) (A) (A) (A)
                 (A) (A) (A) (A) (A) (A) (A) (A) (A) (A) (A) (A)
                 (A) (A) (A) (A) (A) (A) (A) (A) (A)
       Virtual   (A) (A) (A) (A) (A) (A) (A) (A) (A) (A) (A) (A)
                 (A) (A) (A) (A) (A) (A) (A) (A) (A) (A) (A) (A)
                 (A) (A) (A) (A) (A) (A) (A) (A) (A) (A) (A) (A)
                 (A) (A) (A) (A) (A) (A) (A) (A) (A) (A) (A) (A)
                 (A) (A) (A) (A) (A) (A) (A) (A) (A) (A) (A) (A)
                 (A) (A) (A) (A) (A) (A) (A) (A) (A) (A) (A) (A)
                 (A) (A) (A) (A) (A) (A) (A) (A) (A) (A) (A) (A)
                 (A) (A) (A) (A) (A) (A) (A) (A) (A) (A) (A) (A)
                 (A) (A) (A) (A) (A) (A) (A) (A) (A) (A) (A) (A)
                 (A) (A) (A) (A) (A) (A) (A) (A) (A) (A) (A) (A)
                 (A) (A) (A) (A) (A) (A) (A) (A) (A) (A) (A) (A)
                 (A) (A) (A) (A) (A) (A) (A) (A) (A) (A) (A) (A)
                 (A) (A) (A) (A) (A) (A) (A) (A) (A) (A) (A) (A)
                 (A) (A) (A) (A) (A) (A) (A) (A) (A) (A) (A) (A)
                 (A) (A) (A) (A) (A) (A) (A) (A) (A) (A) (A) (A)
                 (A) (A) (A) (A) (A) (A) (A) (A) (A) (A) (A) (A)
                 (A) (A) (A) (A) (A) (A) (A) (A) (A) (A) (A) (A)
                 (A) (A) (A) (A) (A) (A) (A) (A) (A) (A) (A) (A)
                 (A) (A) (A) (A) (A) (A) (A) (A) (A) (A) (A) (A)
                 (A) (A) (A) (A) (A) (A)
 The electronic state is 1-A.
 Alpha  occ. eigenvalues -- -483.04786 -62.63004 -56.43769 -56.43420 -56.43406
 Alpha  occ. eigenvalues --  -19.20960 -14.47864 -14.45732 -10.38804 -10.38363
 Alpha  occ. eigenvalues --  -10.33228 -10.32139 -10.31341 -10.30154 -10.30110
 Alpha  occ. eigenvalues --  -10.29790 -10.29783 -10.29715 -10.27649  -8.79955
 Alpha  occ. eigenvalues --   -6.62483  -6.61216  -6.61161  -2.72853  -2.72503
 Alpha  occ. eigenvalues --   -2.72460  -2.71450  -2.71449  -1.11372  -1.01254
 Alpha  occ. eigenvalues --   -1.00014  -0.95256  -0.91157  -0.86407  -0.83516
 Alpha  occ. eigenvalues --   -0.80887  -0.78680  -0.77156  -0.70538  -0.68886
 Alpha  occ. eigenvalues --   -0.67614  -0.65516  -0.62060  -0.61068  -0.57573
 Alpha  occ. eigenvalues --   -0.56099  -0.55344  -0.54619  -0.53139  -0.52658
 Alpha  occ. eigenvalues --   -0.52079  -0.51269  -0.50127  -0.49336  -0.47282
 Alpha  occ. eigenvalues --   -0.47064  -0.46398  -0.45494  -0.45388  -0.43310
 Alpha  occ. eigenvalues --   -0.42609  -0.42032  -0.36308  -0.35493  -0.34892
 Alpha  occ. eigenvalues --   -0.33313  -0.32762  -0.32415  -0.25610
 Alpha virt. eigenvalues --    0.03935   0.05959   0.07249   0.08661   0.13568
 Alpha virt. eigenvalues --    0.14816   0.15748   0.17416   0.17706   0.18013
 Alpha virt. eigenvalues --    0.18936   0.20124   0.20235   0.21063   0.21761
 Alpha virt. eigenvalues --    0.22363   0.22977   0.24165   0.24786   0.25512
 Alpha virt. eigenvalues --    0.26064   0.28422   0.29338   0.33168   0.34097
 Alpha virt. eigenvalues --    0.35436   0.37072   0.37572   0.39261   0.41635
 Alpha virt. eigenvalues --    0.41857   0.43053   0.44470   0.46090   0.47121
 Alpha virt. eigenvalues --    0.49091   0.49747   0.49998   0.50343   0.53133
 Alpha virt. eigenvalues --    0.53404   0.54171   0.54777   0.55734   0.57217
 Alpha virt. eigenvalues --    0.57505   0.57762   0.58880   0.59384   0.59873
 Alpha virt. eigenvalues --    0.60790   0.62805   0.63858   0.64952   0.65109
 Alpha virt. eigenvalues --    0.65717   0.66396   0.67079   0.69356   0.69905
 Alpha virt. eigenvalues --    0.70426   0.71493   0.72587   0.72950   0.73469
 Alpha virt. eigenvalues --    0.73729   0.73890   0.74039   0.75067   0.75864
 Alpha virt. eigenvalues --    0.76046   0.76332   0.77006   0.77800   0.78135
 Alpha virt. eigenvalues --    0.78763   0.80266   0.81395   0.82634   0.82702
 Alpha virt. eigenvalues --    0.83625   0.83678   0.85192   0.86479   0.86941
 Alpha virt. eigenvalues --    0.87414   0.88839   0.90713   0.92134   0.93315
 Alpha virt. eigenvalues --    0.95420   0.96701   0.98422   1.00424   1.00909
 Alpha virt. eigenvalues --    1.03312   1.05026   1.07057   1.08056   1.13298
 Alpha virt. eigenvalues --    1.13906   1.15939   1.17630   1.19995   1.21672
 Alpha virt. eigenvalues --    1.23390   1.27865   1.29334   1.29748   1.30978
 Alpha virt. eigenvalues --    1.33163   1.33530   1.35547   1.36457   1.37291
 Alpha virt. eigenvalues --    1.38812   1.39978   1.41969   1.42787   1.45946
 Alpha virt. eigenvalues --    1.48873   1.52519   1.55629   1.57706   1.59919
 Alpha virt. eigenvalues --    1.61640   1.61691   1.62766   1.67610   1.70298
 Alpha virt. eigenvalues --    1.70855   1.74719   1.75089   1.78117   1.78983
 Alpha virt. eigenvalues --    1.80674   1.82141   1.83049   1.84351   1.84610
 Alpha virt. eigenvalues --    1.84849   1.85508   1.86470   1.86511   1.87362
 Alpha virt. eigenvalues --    1.88356   1.88806   1.89996   1.91362   1.92797
 Alpha virt. eigenvalues --    1.93108   1.95069   1.95444   1.97320   2.00457
 Alpha virt. eigenvalues --    2.03156   2.03683   2.04565   2.05271   2.05600
 Alpha virt. eigenvalues --    2.07508   2.08439   2.09500   2.12287   2.13005
 Alpha virt. eigenvalues --    2.15408   2.16611   2.17076   2.18917   2.21742
 Alpha virt. eigenvalues --    2.23172   2.23488   2.24826   2.25751   2.27198
 Alpha virt. eigenvalues --    2.27421   2.30795   2.33488   2.36947   2.38582
 Alpha virt. eigenvalues --    2.39669   2.39937   2.40229   2.43006   2.43556
 Alpha virt. eigenvalues --    2.44722   2.48650   2.51135   2.52229   2.52603
 Alpha virt. eigenvalues --    2.58149   2.61866   2.65191   2.66347   2.68170
 Alpha virt. eigenvalues --    2.69879   2.71949   2.72815   2.73968   2.74684
 Alpha virt. eigenvalues --    2.75109   2.77045   2.81012   2.81356   2.81941
 Alpha virt. eigenvalues --    2.83604   2.87312   2.89838   2.96437   2.96750
 Alpha virt. eigenvalues --    2.97206   2.97715   3.02253   3.02992   3.06493
 Alpha virt. eigenvalues --    3.07984   3.08576   3.08796   3.17750   3.21682
 Alpha virt. eigenvalues --    3.24908   3.26322   3.26877   3.34477   3.40289
 Alpha virt. eigenvalues --    3.49237   3.55548   3.58229   3.65174   3.68526
 Alpha virt. eigenvalues --    3.70949   3.72929   3.77860   3.92916
          Condensed to atoms (all electrons):
               1          2          3          4          5          6
     1  C    5.728386   0.241775  -0.129203   0.464802  -0.002465  -0.001231
     2  C    0.241775   4.612098   0.689778  -0.045783  -0.001029   0.000132
     3  O   -0.129203   0.689778   7.821688   0.007434   0.000064   0.000006
     4  C    0.464802  -0.045783   0.007434   4.968780  -0.022249   0.002387
     5  C   -0.002465  -0.001029   0.000064  -0.022249   4.492231   0.403395
     6  H   -0.001231   0.000132   0.000006   0.002387   0.403395   0.613869
     7  H   -0.000714  -0.000070  -0.000042   0.000063   0.403816  -0.024397
     8  H    0.019176   0.000383   0.001042  -0.011219   0.400971  -0.022954
     9  N   -0.060266  -0.008081  -0.016158   0.074454   0.328501  -0.018404
    10  H    0.004349   0.000331   0.000141  -0.006296  -0.020636  -0.003926
    11  H   -0.015156   0.000526   0.054987  -0.009613  -0.017755  -0.008182
    12  H   -0.017162   0.008183   0.000328   0.390457   0.001214  -0.000063
    13  Br  -0.076503  -0.003951  -0.001984   0.254806   0.002757  -0.000221
    14  C    0.340906  -0.025877   0.002224  -0.041436  -0.000325   0.000064
    15  C   -0.121321  -0.008650  -0.000222   0.007704  -0.000334   0.000049
    16  C    0.015541  -0.000528  -0.000003  -0.000074  -0.000130  -0.000000
    17  C   -0.000851   0.000058  -0.000000   0.000078  -0.000002  -0.000001
    18  C    0.013952  -0.000169   0.000001   0.000291   0.000010   0.000000
    19  C   -0.092815   0.006492  -0.000098  -0.012802  -0.000060   0.000014
    20  H   -0.024674   0.006802  -0.000565   0.000138  -0.000088   0.000004
    21  H   -0.000301   0.000003   0.000000  -0.000001  -0.000001   0.000000
    22  H    0.000019  -0.000000   0.000000   0.000000   0.000000  -0.000000
    23  H   -0.000303   0.000001  -0.000000  -0.000011   0.000000  -0.000000
    24  H   -0.017151  -0.000080  -0.000002   0.003540   0.000006   0.000001
    25  N   -0.147029   0.386779  -0.099407   0.004920  -0.000005   0.000002
    26  C    0.009425  -0.032837  -0.008646  -0.000264   0.000001   0.000000
    27  H   -0.015614  -0.001383   0.003351   0.000024   0.000001  -0.000000
    28  H    0.003615  -0.009182   0.026719  -0.000044  -0.000004  -0.000000
    29  H   -0.000058   0.004976   0.000373  -0.000011  -0.000001  -0.000000
    30  H   -0.000345   0.000747   0.000149   0.000059   0.000000   0.000000
               7          8          9         10         11         12
     1  C   -0.000714   0.019176  -0.060266   0.004349  -0.015156  -0.017162
     2  C   -0.000070   0.000383  -0.008081   0.000331   0.000526   0.008183
     3  O   -0.000042   0.001042  -0.016158   0.000141   0.054987   0.000328
     4  C    0.000063  -0.011219   0.074454  -0.006296  -0.009613   0.390457
     5  C    0.403816   0.400971   0.328501  -0.020636  -0.017755   0.001214
     6  H   -0.024397  -0.022954  -0.018404  -0.003926  -0.008182  -0.000063
     7  H    0.608315  -0.017558  -0.025252  -0.007527   0.005912   0.001499
     8  H   -0.017558   0.592650  -0.030230   0.007318  -0.002277  -0.000545
     9  N   -0.025252  -0.030230   6.384420   0.342038   0.330413  -0.011335
    10  H   -0.007527   0.007318   0.342038   0.532624  -0.012474  -0.000695
    11  H    0.005912  -0.002277   0.330413  -0.012474   0.498575   0.002271
    12  H    0.001499  -0.000545  -0.011335  -0.000695   0.002271   0.582006
    13  Br   0.000033   0.000536  -0.066606   0.008492   0.003823  -0.035548
    14  C    0.000210   0.001469   0.000833  -0.000092  -0.000665  -0.010942
    15  C    0.000004   0.000793   0.000347  -0.000017  -0.000013   0.000095
    16  C    0.000004   0.000327  -0.000009   0.000000   0.000002  -0.000056
    17  C    0.000000   0.000018  -0.000001   0.000000  -0.000000  -0.000024
    18  C    0.000003  -0.000101   0.000014  -0.000001   0.000001   0.000068
    19  C   -0.000054  -0.000355   0.000382  -0.000013  -0.000055   0.007793
    20  H   -0.000013   0.001049   0.000028   0.000000  -0.000053  -0.000009
    21  H   -0.000000   0.000010   0.000000  -0.000000   0.000000   0.000001
    22  H   -0.000000  -0.000001  -0.000000  -0.000000   0.000000  -0.000001
    23  H    0.000000   0.000000  -0.000000   0.000000  -0.000000   0.000019
    24  H   -0.000012  -0.000031   0.000142  -0.000004  -0.000009   0.001415
    25  N   -0.000003  -0.000253  -0.000101   0.000004   0.001197  -0.000098
    26  C   -0.000000  -0.000012   0.000004  -0.000000  -0.000018   0.000006
    27  H    0.000000   0.000020   0.000002   0.000000  -0.000064  -0.000022
    28  H    0.000000   0.000006   0.000004  -0.000000  -0.000046  -0.000000
    29  H    0.000000   0.000007  -0.000001   0.000000   0.000005  -0.000000
    30  H   -0.000000  -0.000001   0.000001  -0.000000  -0.000005  -0.000000
              13         14         15         16         17         18
     1  C   -0.076503   0.340906  -0.121321   0.015541  -0.000851   0.013952
     2  C   -0.003951  -0.025877  -0.008650  -0.000528   0.000058  -0.000169
     3  O   -0.001984   0.002224  -0.000222  -0.000003  -0.000000   0.000001
     4  C    0.254806  -0.041436   0.007704  -0.000074   0.000078   0.000291
     5  C    0.002757  -0.000325  -0.000334  -0.000130  -0.000002   0.000010
     6  H   -0.000221   0.000064   0.000049  -0.000000  -0.000001   0.000000
     7  H    0.000033   0.000210   0.000004   0.000004   0.000000   0.000003
     8  H    0.000536   0.001469   0.000793   0.000327   0.000018  -0.000101
     9  N   -0.066606   0.000833   0.000347  -0.000009  -0.000001   0.000014
    10  H    0.008492  -0.000092  -0.000017   0.000000   0.000000  -0.000001
    11  H    0.003823  -0.000665  -0.000013   0.000002  -0.000000   0.000001
    12  H   -0.035548  -0.010942   0.000095  -0.000056  -0.000024   0.000068
    13  Br  35.013506   0.002846  -0.000117   0.000003  -0.000000  -0.000008
    14  C    0.002846   5.180239   0.306280   0.072714  -0.135257   0.069362
    15  C   -0.000117   0.306280   5.150753   0.330937   0.061157  -0.123843
    16  C    0.000003   0.072714   0.330937   5.021687   0.309862   0.067073
    17  C   -0.000000  -0.135257   0.061157   0.309862   5.087523   0.312315
    18  C   -0.000008   0.069362  -0.123843   0.067073   0.312315   5.023864
    19  C   -0.000309   0.324835   0.040117  -0.123379   0.062051   0.327118
    20  H   -0.000011  -0.065729   0.449923  -0.061202   0.013137  -0.002021
    21  H   -0.000000   0.014156  -0.062501   0.446009  -0.068226   0.012721
    22  H    0.000000  -0.001474   0.012774  -0.064493   0.447464  -0.064333
    23  H   -0.000000   0.013847  -0.001568   0.012495  -0.067277   0.444831
    24  H    0.000359  -0.063681   0.013701  -0.001956   0.012918  -0.060395
    25  N   -0.000476  -0.010939   0.003931  -0.000302   0.000021  -0.000018
    26  C   -0.000040   0.000032  -0.000485  -0.000013  -0.000000  -0.000000
    27  H    0.000032   0.006184   0.004248  -0.000290  -0.000043  -0.000031
    28  H    0.000007  -0.000116  -0.000058  -0.000003   0.000000  -0.000000
    29  H    0.000001   0.000070   0.000163   0.000016  -0.000001  -0.000000
    30  H    0.000000  -0.000012   0.000030  -0.000002   0.000000  -0.000000
              19         20         21         22         23         24
     1  C   -0.092815  -0.024674  -0.000301   0.000019  -0.000303  -0.017151
     2  C    0.006492   0.006802   0.000003  -0.000000   0.000001  -0.000080
     3  O   -0.000098  -0.000565   0.000000   0.000000  -0.000000  -0.000002
     4  C   -0.012802   0.000138  -0.000001   0.000000  -0.000011   0.003540
     5  C   -0.000060  -0.000088  -0.000001   0.000000   0.000000   0.000006
     6  H    0.000014   0.000004   0.000000  -0.000000  -0.000000   0.000001
     7  H   -0.000054  -0.000013  -0.000000  -0.000000   0.000000  -0.000012
     8  H   -0.000355   0.001049   0.000010  -0.000001   0.000000  -0.000031
     9  N    0.000382   0.000028   0.000000  -0.000000  -0.000000   0.000142
    10  H   -0.000013   0.000000  -0.000000  -0.000000   0.000000  -0.000004
    11  H   -0.000055  -0.000053   0.000000   0.000000  -0.000000  -0.000009
    12  H    0.007793  -0.000009   0.000001  -0.000001   0.000019   0.001415
    13  Br  -0.000309  -0.000011  -0.000000   0.000000  -0.000000   0.000359
    14  C    0.324835  -0.065729   0.014156  -0.001474   0.013847  -0.063681
    15  C    0.040117   0.449923  -0.062501   0.012774  -0.001568   0.013701
    16  C   -0.123379  -0.061202   0.446009  -0.064493   0.012495  -0.001956
    17  C    0.062051   0.013137  -0.068226   0.447464  -0.067277   0.012918
    18  C    0.327118  -0.002021   0.012721  -0.064333   0.444831  -0.060395
    19  C    5.119726   0.014217  -0.001680   0.012423  -0.061454   0.445644
    20  H    0.014217   0.660042  -0.011829  -0.000204   0.000024  -0.000166
    21  H   -0.001680  -0.011829   0.659760  -0.010901  -0.000232   0.000025
    22  H    0.012423  -0.000204  -0.010901   0.655963  -0.010896  -0.000207
    23  H   -0.061454   0.000024  -0.000232  -0.010896   0.658114  -0.011785
    24  H    0.445644  -0.000166   0.000025  -0.000207  -0.011785   0.662786
    25  N   -0.000451   0.006949  -0.000015   0.000000  -0.000000  -0.000009
    26  C    0.000027  -0.000318   0.000002   0.000000   0.000000   0.000001
    27  H   -0.000626  -0.001171   0.000003  -0.000001  -0.000002  -0.000011
    28  H    0.000002  -0.000052   0.000000  -0.000000   0.000000  -0.000000
    29  H   -0.000001  -0.000274   0.000000  -0.000000   0.000000  -0.000000
    30  H    0.000001   0.000065  -0.000000   0.000000  -0.000000   0.000000
              25         26         27         28         29         30
     1  C   -0.147029   0.009425  -0.015614   0.003615  -0.000058  -0.000345
     2  C    0.386779  -0.032837  -0.001383  -0.009182   0.004976   0.000747
     3  O   -0.099407  -0.008646   0.003351   0.026719   0.000373   0.000149
     4  C    0.004920  -0.000264   0.000024  -0.000044  -0.000011   0.000059
     5  C   -0.000005   0.000001   0.000001  -0.000004  -0.000001   0.000000
     6  H    0.000002   0.000000  -0.000000  -0.000000  -0.000000   0.000000
     7  H   -0.000003  -0.000000   0.000000   0.000000   0.000000  -0.000000
     8  H   -0.000253  -0.000012   0.000020   0.000006   0.000007  -0.000001
     9  N   -0.000101   0.000004   0.000002   0.000004  -0.000001   0.000001
    10  H    0.000004  -0.000000   0.000000  -0.000000   0.000000  -0.000000
    11  H    0.001197  -0.000018  -0.000064  -0.000046   0.000005  -0.000005
    12  H   -0.000098   0.000006  -0.000022  -0.000000  -0.000000  -0.000000
    13  Br  -0.000476  -0.000040   0.000032   0.000007   0.000001   0.000000
    14  C   -0.010939   0.000032   0.006184  -0.000116   0.000070  -0.000012
    15  C    0.003931  -0.000485   0.004248  -0.000058   0.000163   0.000030
    16  C   -0.000302  -0.000013  -0.000290  -0.000003   0.000016  -0.000002
    17  C    0.000021  -0.000000  -0.000043   0.000000  -0.000001   0.000000
    18  C   -0.000018  -0.000000  -0.000031  -0.000000  -0.000000  -0.000000
    19  C   -0.000451   0.000027  -0.000626   0.000002  -0.000001   0.000001
    20  H    0.006949  -0.000318  -0.001171  -0.000052  -0.000274   0.000065
    21  H   -0.000015   0.000002   0.000003   0.000000   0.000000  -0.000000
    22  H    0.000000   0.000000  -0.000001  -0.000000  -0.000000   0.000000
    23  H   -0.000000   0.000000  -0.000002   0.000000   0.000000  -0.000000
    24  H   -0.000009   0.000001  -0.000011  -0.000000  -0.000000   0.000000
    25  N    6.508519   0.318383   0.354043  -0.027843  -0.030545  -0.029093
    26  C    0.318383   4.477566  -0.024681   0.394144   0.399681   0.409935
    27  H    0.354043  -0.024681   0.524652   0.006013  -0.002871  -0.004009
    28  H   -0.027843   0.394144   0.006013   0.584473  -0.016835  -0.020863
    29  H   -0.030545   0.399681  -0.002871  -0.016835   0.634045  -0.031176
    30  H   -0.029093   0.409935  -0.004009  -0.020863  -0.031176   0.625521
 Mulliken charges:
               1
     1  C   -0.118784
     2  C    0.178555
     3  O   -0.351954
     4  C   -0.030131
     5  C    0.032113
     6  H    0.059454
     7  H    0.055782
     8  H    0.059764
     9  N   -0.225141
    10  H    0.156382
    11  H    0.168673
    12  H    0.081146
    13  Br  -0.101430
    14  C    0.020273
    15  C   -0.063879
    16  C   -0.024229
    17  C   -0.034919
    18  C   -0.020704
    19  C   -0.066691
    20  H    0.016000
    21  H    0.022998
    22  H    0.023870
    23  H    0.024196
    24  H    0.014960
    25  N   -0.238160
    26  C    0.058108
    27  H    0.152246
    28  H    0.060064
    29  H    0.042438
    30  H    0.048999
 Sum of Mulliken charges =  -0.00000
 Mulliken charges with hydrogens summed into heavy atoms:
               1
     1  C   -0.118784
     2  C    0.178555
     3  O   -0.351954
     4  C    0.051014
     5  C    0.207113
     9  N    0.099915
    13  Br  -0.101430
    14  C    0.020273
    15  C   -0.047879
    16  C   -0.001232
    17  C   -0.011049
    18  C    0.003492
    19  C   -0.051731
    25  N   -0.085914
    26  C    0.209610
 APT charges:
               1
     1  C   -1.027803
     2  C    1.423128
     3  O   -0.936187
     4  C    1.484657
     5  C    0.194868
     6  H   -0.031871
     7  H    0.002497
     8  H    0.045359
     9  N   -0.919906
    10  H    0.151074
    11  H    0.292314
    12  H   -0.010538
    13  Br  -0.423447
    14  C    0.333787
    15  C   -0.184934
    16  C    0.042062
    17  C   -0.148670
    18  C    0.040424
    19  C   -0.157232
    20  H    0.050209
    21  H    0.025440
    22  H    0.032519
    23  H    0.025844
    24  H    0.040166
    25  N   -0.894202
    26  C    0.364601
    27  H    0.220982
    28  H    0.064696
    29  H   -0.045312
    30  H   -0.054525
 Sum of APT charges =  -0.00000
 APT charges with hydrogens summed into heavy atoms:
               1
     1  C   -1.027803
     2  C    1.423128
     3  O   -0.936187
     4  C    1.474119
     5  C    0.210854
     9  N   -0.476518
    13  Br  -0.423447
    14  C    0.333787
    15  C   -0.134725
    16  C    0.067502
    17  C   -0.116151
    18  C    0.066267
    19  C   -0.117066
    25  N   -0.673220
    26  C    0.329461
 Electronic spatial extent (au):  <R**2>=           4475.8341
 Charge=              0.0000 electrons
 Dipole moment (field-independent basis, Debye):
    X=              1.6298    Y=             -1.2363    Z=              2.3355  Tot=              3.1047
 Quadrupole moment (field-independent basis, Debye-Ang):
   XX=           -101.0768   YY=            -93.8210   ZZ=            -94.4621
   XY=              7.1982   XZ=             -5.0622   YZ=             -5.1839
 Traceless Quadrupole moment (field-independent basis, Debye-Ang):
   XX=             -4.6235   YY=              2.6323   ZZ=              1.9912
   XY=              7.1982   XZ=             -5.0622   YZ=             -5.1839
 Octapole moment (field-independent basis, Debye-Ang**2):
  XXX=            -76.5310  YYY=              3.6857  ZZZ=              6.1807  XYY=            -18.3661
  XXY=            -14.9716  XXZ=              5.8885  XZZ=            -45.2223  YZZ=            -12.0625
  YYZ=            -15.3662  XYZ=             17.1617
 Hexadecapole moment (field-independent basis, Debye-Ang**3):
 XXXX=          -2900.6614 YYYY=          -1487.0938 ZZZZ=           -790.6213 XXXY=             61.1109
 XXXZ=             58.1510 YYYX=             94.7458 YYYZ=            -10.7804 ZZZX=             28.8613
 ZZZY=             -7.1382 XXYY=           -776.4914 XXZZ=           -640.0576 YYZZ=           -385.8169
 XXYZ=             17.1128 YYXZ=             -7.3421 ZZXY=             38.4580
 N-N= 1.351909433177D+03 E-N=-1.027924113835D+04  KE= 3.176722809119D+03
  Exact polarizability:     235.112       3.168     170.895      -8.236       9.864     146.742
 Approx polarizability:     213.488       3.839     166.668      -4.950      14.720     150.638
   1 Symmetry operations used in ECPInt.
 ECPInt:  NShTT=   10011 NPrTT=   37668 LenC2=    9556 LenP2D=   25808.
 LDataN:  DoStor=T MaxTD1= 6 Len=  172
 D2PCM: PCM CHGder 2nd derivatives, FixD1E=F FixD2E=F DoIter=F DoCFld=F I1PDM=0
 Calling FoFJK, ICntrl=    100127 FMM=F ISym2X=0 I1Cent= 0 IOpClX= 0 NMat=1 NMatS=1 NMatT=0.
 Full mass-weighted force constant matrix:
 Low frequencies --- -351.6732  -19.5191   -3.6609   -0.0022    0.0077    0.0081
 Low frequencies ---    8.9093   38.9777   59.7439
 ******    1 imaginary frequencies (negative Signs) ****** 
 Diagonal vibrational polarizability:
      105.9393712      78.4047908     142.9934523
 Harmonic frequencies (cm**-1), IR intensities (KM/Mole), Raman scattering
 activities (A**4/AMU), depolarization ratios for plane and unpolarized
 incident light, reduced masses (AMU), force constants (mDyne/A),
 and normal coordinates:
                      1                      2                      3
                      A                      A                      A
 Frequencies --   -351.6729                38.6641                59.6011
 Red. masses --      5.4053                 4.1672                 3.8864
 Frc consts  --      0.3939                 0.0037                 0.0081
 IR Inten    --    474.0144                 2.2631                 3.8361
  Atom  AN      X      Y      Z        X      Y      Z        X      Y      Z
     1   6     0.01   0.02   0.08    -0.00   0.02   0.04    -0.02   0.04  -0.13
     2   6     0.02  -0.03   0.05    -0.00   0.02  -0.00    -0.02   0.03  -0.08
     3   8    -0.02  -0.01   0.02    -0.06   0.03  -0.11    -0.04   0.00  -0.11
     4   6    -0.07   0.03   0.44     0.01   0.01   0.04     0.00   0.02  -0.07
     5   6    -0.01   0.00  -0.11    -0.09   0.21   0.08     0.22   0.02  -0.12
     6   1    -0.29  -0.03  -0.19    -0.14   0.30   0.04     0.25  -0.05  -0.09
     7   1    -0.07  -0.01  -0.13    -0.05   0.23   0.19     0.29   0.03  -0.19
     8   1     0.03   0.03   0.07    -0.10   0.21   0.06     0.16   0.09  -0.15
     9   7     0.15   0.09  -0.33    -0.06   0.08   0.03     0.14  -0.00  -0.05
    10   1     0.13   0.03  -0.56    -0.04   0.05   0.04     0.17  -0.03   0.01
    11   1     0.11   0.13  -0.20    -0.11   0.06  -0.05     0.10  -0.01  -0.02
    12   1    -0.03   0.03   0.26     0.03   0.01   0.08     0.03   0.03  -0.09
    13  35    -0.01  -0.01  -0.00     0.02  -0.07  -0.00    -0.05  -0.03   0.04
    14   6    -0.02   0.00  -0.02    -0.00   0.01   0.01    -0.01   0.03  -0.07
    15   6     0.01  -0.00  -0.02     0.00  -0.10   0.10    -0.05  -0.01   0.02
    16   6     0.00  -0.00  -0.02    -0.00  -0.11   0.05    -0.06  -0.05   0.14
    17   6     0.00  -0.01  -0.01    -0.02  -0.01  -0.10    -0.03  -0.06   0.16
    18   6    -0.00  -0.01   0.00    -0.03   0.09  -0.19     0.01  -0.01   0.05
    19   6    -0.01  -0.01   0.00    -0.02   0.10  -0.13     0.02   0.04  -0.06
    20   1     0.00  -0.00  -0.02     0.01  -0.18   0.22    -0.08  -0.01   0.01
    21   1     0.00  -0.00  -0.01     0.00  -0.20   0.13    -0.09  -0.09   0.21
    22   1     0.00  -0.01  -0.01    -0.02  -0.02  -0.14    -0.04  -0.10   0.25
    23   1    -0.01  -0.02   0.01    -0.03   0.17  -0.30     0.03  -0.01   0.06
    24   1    -0.01  -0.02   0.02    -0.03   0.19  -0.20     0.05   0.07  -0.12
    25   7    -0.01  -0.00   0.02     0.08   0.01   0.09     0.01   0.05  -0.01
    26   6    -0.01  -0.01   0.01     0.08   0.01   0.08     0.06   0.05   0.11
    27   1    -0.02  -0.00   0.01     0.13   0.01   0.16     0.05   0.08   0.03
    28   1    -0.02  -0.01   0.00     0.01   0.02  -0.00    -0.11  -0.01  -0.06
    29   1    -0.02   0.01   0.01     0.06   0.00   0.17     0.02  -0.03   0.39
    30   1    -0.01  -0.01   0.01     0.18   0.03   0.04     0.31   0.18   0.07
                      4                      5                      6
                      A                      A                      A
 Frequencies --     64.3671                72.9289                85.6564
 Red. masses --      3.4018                 1.5934                 1.8579
 Frc consts  --      0.0083                 0.0050                 0.0080
 IR Inten    --      1.0662                 0.3102                 0.1485
  Atom  AN      X      Y      Z        X      Y      Z        X      Y      Z
     1   6    -0.00   0.01  -0.02    -0.01  -0.02   0.01    -0.02  -0.02  -0.03
     2   6    -0.02   0.00   0.02     0.01  -0.01  -0.01     0.02  -0.01  -0.02
     3   8    -0.04  -0.03   0.01     0.03   0.01   0.02     0.05   0.03   0.03
     4   6     0.01   0.00  -0.03    -0.02  -0.01   0.01    -0.02  -0.01  -0.01
     5   6     0.00   0.18   0.01    -0.05  -0.05   0.01    -0.01   0.02  -0.02
     6   1    -0.02   0.23  -0.02    -0.04  -0.05   0.01    -0.00   0.03  -0.02
     7   1     0.10   0.21   0.09    -0.10  -0.06   0.01    -0.04   0.01  -0.01
     8   1    -0.04   0.23  -0.03    -0.02  -0.09   0.03    -0.00  -0.01  -0.02
     9   7    -0.02   0.01   0.00    -0.03   0.01   0.00    -0.01   0.03  -0.01
    10   1     0.04  -0.06   0.03    -0.06   0.04  -0.01    -0.03   0.05  -0.00
    11   1    -0.10  -0.01  -0.05     0.01   0.02   0.01     0.01   0.03  -0.02
    12   1     0.01   0.01  -0.01    -0.03  -0.02   0.02    -0.03  -0.01  -0.00
    13  35     0.02  -0.03  -0.03    -0.02  -0.01   0.01    -0.04  -0.03  -0.00
    14   6    -0.00   0.00  -0.02    -0.01  -0.01   0.01    -0.02  -0.01  -0.01
    15   6     0.03   0.08  -0.15    -0.02   0.02  -0.00    -0.04   0.02  -0.01
    16   6     0.03   0.06  -0.15    -0.01   0.07  -0.03    -0.03   0.07  -0.00
    17   6    -0.01  -0.05  -0.03     0.02   0.08  -0.03     0.01   0.07   0.01
    18   6    -0.05  -0.12   0.10     0.03   0.04  -0.00     0.03   0.04   0.01
    19   6    -0.04  -0.10   0.10     0.01  -0.01   0.02     0.02  -0.01   0.01
    20   1     0.07   0.16  -0.23    -0.04   0.01   0.00    -0.07   0.02  -0.02
    21   1     0.06   0.12  -0.26    -0.02   0.09  -0.04    -0.05   0.09  -0.00
    22   1    -0.02  -0.06  -0.03     0.03   0.12  -0.05     0.02   0.11   0.01
    23   1    -0.09  -0.20   0.19     0.04   0.04  -0.00     0.06   0.04   0.02
    24   1    -0.06  -0.16   0.18     0.02  -0.03   0.03     0.04  -0.04   0.01
    25   7    -0.01   0.04   0.09    -0.00  -0.04  -0.06     0.04  -0.03  -0.02
    26   6     0.01   0.04   0.21     0.13  -0.02   0.01     0.15  -0.02   0.08
    27   1     0.02   0.08   0.10     0.02  -0.07  -0.02    -0.01  -0.05  -0.08
    28   1    -0.09  -0.03   0.13    -0.21  -0.04  -0.33     0.53   0.04   0.45
    29   1    -0.02  -0.02   0.39     0.04  -0.16   0.52     0.34  -0.08  -0.37
    30   1     0.14   0.15   0.21     0.63   0.13  -0.10    -0.28   0.00   0.25
                      7                      8                      9
                      A                      A                      A
 Frequencies --     94.1225               100.3130               142.0940
 Red. masses --      3.6942                 7.9398                 2.5517
 Frc consts  --      0.0193                 0.0471                 0.0304
 IR Inten    --      0.8410                 6.4632                 8.2433
  Atom  AN      X      Y      Z        X      Y      Z        X      Y      Z
     1   6     0.01  -0.10  -0.01    -0.02   0.07  -0.01    -0.03   0.02   0.09
     2   6     0.01  -0.10   0.03     0.02   0.08   0.11    -0.01   0.03   0.05
     3   8     0.04  -0.11   0.08     0.24   0.10   0.44    -0.04   0.07  -0.01
     4   6    -0.02  -0.07  -0.02     0.02   0.04  -0.02    -0.03   0.01   0.03
     5   6     0.05   0.26  -0.03     0.04   0.11  -0.01     0.13   0.01  -0.08
     6   1    -0.03   0.30  -0.07     0.05   0.12  -0.02     0.09  -0.27   0.02
     7   1     0.30   0.32   0.07     0.11   0.13   0.00     0.46   0.07  -0.33
     8   1    -0.07   0.43  -0.09     0.00   0.16  -0.05    -0.06   0.35  -0.05
     9   7     0.01  -0.07  -0.05     0.01   0.04   0.01     0.00  -0.11   0.03
    10   1     0.13  -0.23   0.01     0.03   0.01   0.05     0.11  -0.26   0.08
    11   1    -0.18  -0.12  -0.10    -0.01   0.03   0.01    -0.17  -0.15   0.12
    12   1    -0.07  -0.09  -0.07     0.07   0.05  -0.01    -0.01   0.02   0.01
    13  35    -0.04   0.07  -0.00     0.03  -0.08  -0.06     0.01  -0.01  -0.03
    14   6     0.01  -0.07   0.00    -0.03   0.07  -0.04    -0.04   0.00   0.09
    15   6    -0.03  -0.06   0.04    -0.02  -0.00   0.01    -0.02   0.00   0.06
    16   6    -0.01   0.02   0.05    -0.05  -0.10   0.07    -0.02   0.02  -0.02
    17   6     0.06   0.07   0.01    -0.09  -0.11   0.07    -0.04   0.04  -0.06
    18   6     0.10   0.04  -0.03    -0.09  -0.01  -0.02    -0.08   0.02   0.01
    19   6     0.08  -0.03  -0.02    -0.07   0.08  -0.08    -0.08  -0.00   0.08
    20   1    -0.08  -0.09   0.07     0.00  -0.00   0.02     0.00  -0.00   0.07
    21   1    -0.04   0.03   0.08    -0.04  -0.17   0.13     0.01   0.03  -0.07
    22   1     0.08   0.13  -0.00    -0.11  -0.20   0.13    -0.04   0.06  -0.13
    23   1     0.15   0.08  -0.05    -0.12  -0.01  -0.03    -0.10   0.02  -0.01
    24   1     0.11  -0.05  -0.04    -0.07   0.15  -0.13    -0.10  -0.00   0.11
    25   7    -0.04  -0.09  -0.01    -0.16   0.04  -0.18     0.06  -0.02   0.06
    26   6    -0.06  -0.10  -0.01    -0.01   0.06  -0.06     0.10  -0.01  -0.10
    27   1    -0.05  -0.08  -0.04    -0.30  -0.01  -0.32     0.05  -0.09   0.08
    28   1    -0.10  -0.12  -0.05    -0.06   0.07  -0.12     0.09   0.10  -0.13
    29   1    -0.09  -0.08   0.05     0.02  -0.06   0.09     0.10   0.00  -0.14
    30   1    -0.01  -0.10  -0.03     0.14   0.18  -0.06     0.12  -0.10  -0.15
                     10                     11                     12
                      A                      A                      A
 Frequencies --    160.9251               163.1800               202.5901
 Red. masses --      2.3566                 3.3176                 1.7136
 Frc consts  --      0.0360                 0.0520                 0.0414
 IR Inten    --      2.9431                11.1184                 7.2970
  Atom  AN      X      Y      Z        X      Y      Z        X      Y      Z
     1   6    -0.03  -0.04   0.04     0.01   0.00  -0.01     0.01  -0.01  -0.03
     2   6    -0.05  -0.04  -0.01     0.09   0.02   0.08     0.03  -0.00  -0.03
     3   8    -0.05  -0.03  -0.01     0.08   0.03   0.06     0.04  -0.01  -0.00
     4   6    -0.04  -0.03   0.06    -0.03   0.03  -0.06    -0.02   0.02   0.01
     5   6     0.14  -0.00  -0.02     0.04   0.01  -0.06     0.01  -0.02  -0.00
     6   1     0.42   0.31  -0.08     0.24   0.28  -0.12    -0.09  -0.51   0.16
     7   1    -0.19  -0.06   0.19    -0.24  -0.04   0.14     0.26  -0.00  -0.46
     8   1     0.26  -0.37  -0.27     0.15  -0.30  -0.25    -0.10   0.33   0.24
     9   7     0.06   0.11   0.09     0.01   0.09  -0.01    -0.01   0.14   0.06
    10   1    -0.02   0.26   0.22    -0.05   0.19   0.06    -0.06   0.22   0.07
    11   1     0.20   0.15   0.04     0.11   0.11  -0.04     0.09   0.17   0.06
    12   1    -0.06  -0.03   0.10    -0.04   0.02  -0.06    -0.05   0.01   0.09
    13  35     0.04   0.02  -0.04    -0.07  -0.04  -0.02    -0.01  -0.01  -0.02
    14   6    -0.04  -0.03   0.05     0.01  -0.03   0.01     0.00  -0.05   0.02
    15   6    -0.04  -0.03   0.05     0.01  -0.02   0.01    -0.01  -0.06   0.04
    16   6    -0.04   0.00   0.01     0.02   0.02  -0.01     0.01  -0.01   0.00
    17   6    -0.03   0.03  -0.03     0.04   0.04  -0.02     0.03   0.03  -0.04
    18   6    -0.03   0.02  -0.01     0.04   0.00   0.01     0.03  -0.01  -0.01
    19   6    -0.04  -0.02   0.03     0.03  -0.04   0.03     0.02  -0.05   0.03
    20   1    -0.05  -0.05   0.07     0.00  -0.02   0.01    -0.02  -0.07   0.06
    21   1    -0.03   0.00   0.00     0.01   0.05  -0.02    -0.00  -0.00   0.00
    22   1    -0.02   0.06  -0.07     0.05   0.07  -0.05     0.04   0.08  -0.09
    23   1    -0.03   0.03  -0.03     0.05   0.00   0.02     0.05   0.01  -0.03
    24   1    -0.05  -0.02   0.04     0.04  -0.06   0.04     0.02  -0.07   0.04
    25   7    -0.06  -0.05  -0.04     0.16   0.04   0.20    -0.01   0.02  -0.03
    26   6    -0.00  -0.05   0.05    -0.08   0.02  -0.09    -0.08   0.01   0.05
    27   1    -0.05  -0.05  -0.01     0.13   0.05   0.15     0.01   0.07  -0.03
    28   1     0.03  -0.05   0.08    -0.23   0.03  -0.25    -0.09  -0.08   0.06
    29   1     0.03  -0.10   0.04    -0.22   0.22  -0.03    -0.10   0.04   0.09
    30   1    -0.02   0.02   0.08     0.02  -0.21  -0.23    -0.09   0.05   0.08
                     13                     14                     15
                      A                      A                      A
 Frequencies --    226.1823               261.1396               269.5181
 Red. masses --      4.2689                 4.8957                 4.2099
 Frc consts  --      0.1287                 0.1967                 0.1802
 IR Inten    --      2.0674                 8.5568                25.0912
  Atom  AN      X      Y      Z        X      Y      Z        X      Y      Z
     1   6    -0.05  -0.05  -0.07    -0.03   0.02  -0.12     0.01   0.03  -0.01
     2   6     0.01  -0.06   0.03     0.08   0.05  -0.08     0.01   0.03  -0.01
     3   8     0.01  -0.04   0.04     0.12   0.06  -0.02    -0.00   0.01  -0.02
     4   6    -0.02  -0.05   0.05     0.01   0.00  -0.04    -0.00   0.03   0.06
     5   6     0.00  -0.01   0.12    -0.04   0.01   0.01     0.05  -0.02   0.33
     6   1    -0.14  -0.26   0.18    -0.11   0.20  -0.08    -0.26   0.05   0.22
     7   1     0.13  -0.00  -0.08    -0.11   0.01   0.23     0.07   0.00   0.47
     8   1    -0.03   0.17   0.31     0.02  -0.10  -0.00     0.12   0.01   0.53
     9   7     0.05   0.06   0.07     0.05  -0.10  -0.10     0.24  -0.10   0.05
    10   1     0.00   0.13   0.07     0.07  -0.16  -0.16     0.23  -0.10  -0.02
    11   1     0.12   0.08   0.05    -0.03  -0.12  -0.09     0.19  -0.11   0.07
    12   1    -0.02  -0.05   0.07     0.06   0.02  -0.06    -0.01   0.03  -0.05
    13  35     0.05   0.02  -0.01     0.08   0.00   0.04    -0.07   0.00  -0.08
    14   6    -0.07   0.01  -0.16    -0.10  -0.12  -0.00     0.00  -0.01   0.01
    15   6    -0.14   0.08  -0.15    -0.19  -0.12   0.09     0.01  -0.03   0.03
    16   6    -0.15   0.07   0.00    -0.16   0.02   0.02     0.02  -0.01   0.01
    17   6    -0.10   0.01   0.11    -0.09   0.13  -0.09     0.03   0.01  -0.03
    18   6    -0.02   0.01   0.00    -0.05  -0.02   0.01     0.01  -0.00   0.00
    19   6    -0.03   0.02  -0.15    -0.09  -0.16   0.07     0.01  -0.02   0.03
    20   1    -0.21   0.10  -0.22    -0.27  -0.18   0.13     0.01  -0.04   0.05
    21   1    -0.19   0.09   0.04    -0.19   0.06   0.03     0.01  -0.01   0.01
    22   1    -0.11  -0.03   0.27    -0.05   0.29  -0.20     0.03   0.04  -0.06
    23   1     0.05  -0.01   0.06     0.02  -0.00   0.01     0.01  -0.00  -0.00
    24   1     0.01   0.01  -0.19    -0.07  -0.23   0.10     0.01  -0.04   0.04
    25   7     0.12  -0.07   0.17     0.07   0.10  -0.03    -0.01   0.04  -0.03
    26   6     0.03  -0.08  -0.06    -0.08   0.08   0.03     0.01   0.05  -0.01
    27   1     0.03  -0.10   0.07     0.07   0.17  -0.07     0.00   0.05  -0.02
    28   1    -0.04  -0.01  -0.14    -0.11  -0.05   0.02     0.03   0.05   0.01
    29   1    -0.03   0.03  -0.07    -0.14   0.17   0.08     0.03   0.03  -0.01
    30   1     0.08  -0.25  -0.15    -0.11   0.09   0.05     0.00   0.07   0.01
                     16                     17                     18
                      A                      A                      A
 Frequencies --    314.5782               334.5922               419.1177
 Red. masses --      3.5890                 4.1448                 7.0598
 Frc consts  --      0.2093                 0.2734                 0.7307
 IR Inten    --     51.5082                 2.9743                14.7872
  Atom  AN      X      Y      Z        X      Y      Z        X      Y      Z
     1   6    -0.00  -0.02   0.10    -0.03   0.03  -0.01    -0.10   0.01   0.06
     2   6     0.09   0.02  -0.05    -0.11   0.07   0.06    -0.16   0.06   0.08
     3   8     0.10   0.11  -0.08    -0.14  -0.01   0.06    -0.10   0.48   0.01
     4   6    -0.07   0.03   0.21    -0.04   0.04   0.07     0.00  -0.08  -0.14
     5   6     0.04  -0.02  -0.01     0.00  -0.01  -0.01    -0.00   0.01   0.01
     6   1     0.22   0.12  -0.02     0.10   0.02  -0.00    -0.15  -0.03  -0.00
     7   1     0.02  -0.01   0.07    -0.01  -0.01  -0.01     0.01   0.01   0.01
     8   1    -0.02  -0.08  -0.25    -0.01  -0.04  -0.10     0.03   0.05   0.15
     9   7    -0.12  -0.11   0.13    -0.06  -0.01   0.06     0.09   0.01  -0.09
    10   1     0.01  -0.30   0.12    -0.01  -0.08   0.04    -0.00   0.17   0.00
    11   1    -0.31  -0.15   0.26    -0.12  -0.02   0.11     0.17   0.04  -0.11
    12   1    -0.09   0.03   0.23    -0.02   0.05   0.07     0.05  -0.07  -0.23
    13  35    -0.01  -0.00  -0.02     0.02   0.00   0.00     0.02   0.00   0.01
    14   6    -0.00  -0.04  -0.05    -0.02  -0.11  -0.11    -0.05  -0.03  -0.04
    15   6    -0.01   0.01  -0.09    -0.05  -0.12  -0.08     0.00  -0.06  -0.08
    16   6    -0.01   0.01   0.00    -0.02  -0.04   0.01     0.02  -0.05  -0.00
    17   6     0.02  -0.02   0.07     0.11   0.02   0.00     0.11  -0.02   0.00
    18   6     0.06   0.01  -0.02     0.16  -0.04  -0.01     0.11  -0.00  -0.01
    19   6     0.04  -0.00  -0.09     0.10  -0.15  -0.05     0.06  -0.06   0.01
    20   1    -0.05   0.03  -0.12    -0.11  -0.15  -0.07     0.03  -0.04  -0.09
    21   1    -0.05   0.03   0.03    -0.11   0.00   0.09    -0.05  -0.02   0.05
    22   1     0.01  -0.06   0.17     0.14   0.09   0.04     0.12   0.01   0.03
    23   1     0.10   0.02  -0.02     0.23  -0.03   0.01     0.10   0.01  -0.03
    24   1     0.07  -0.02  -0.10     0.18  -0.27  -0.04     0.13  -0.16   0.01
    25   7     0.07   0.03  -0.09    -0.13   0.11   0.07    -0.02  -0.15   0.02
    26   6    -0.09  -0.01   0.08     0.10   0.18  -0.09    -0.09  -0.20   0.08
    27   1     0.13   0.12  -0.06    -0.12   0.03   0.11    -0.08  -0.21  -0.01
    28   1    -0.12  -0.23   0.09     0.15   0.46  -0.09    -0.14  -0.32   0.05
    29   1    -0.17   0.08   0.16     0.22   0.03  -0.19    -0.15  -0.14   0.15
    30   1    -0.15   0.08   0.14     0.18   0.12  -0.14    -0.09  -0.17   0.09
                     19                     20                     21
                      A                      A                      A
 Frequencies --    425.1534               475.3785               519.4797
 Red. masses --      2.8939                 3.7606                 3.4137
 Frc consts  --      0.3082                 0.5007                 0.5428
 IR Inten    --      3.6101                33.7131                39.9100
  Atom  AN      X      Y      Z        X      Y      Z        X      Y      Z
     1   6    -0.01   0.00  -0.03     0.09  -0.04   0.27    -0.12  -0.09  -0.13
     2   6    -0.00  -0.01  -0.02     0.10   0.01   0.11    -0.06  -0.01  -0.11
     3   8     0.01  -0.03   0.00    -0.00  -0.01  -0.05     0.03   0.03   0.02
     4   6    -0.01   0.01   0.00     0.06  -0.04  -0.12    -0.10  -0.13   0.03
     5   6    -0.00  -0.00   0.00    -0.00   0.01  -0.01     0.00   0.00   0.00
     6   1    -0.00   0.00  -0.00    -0.07  -0.04  -0.01    -0.04   0.02  -0.02
     7   1    -0.01  -0.00   0.01     0.04   0.02  -0.03     0.02   0.01   0.03
     8   1    -0.00  -0.01  -0.00     0.00   0.06   0.07    -0.00   0.02   0.02
     9   7    -0.00  -0.00   0.00     0.05   0.02  -0.06     0.01  -0.03  -0.02
    10   1     0.01  -0.02  -0.01    -0.07   0.23   0.09    -0.04   0.08   0.09
    11   1    -0.01  -0.01   0.01     0.23   0.05  -0.19     0.09  -0.01  -0.06
    12   1    -0.01   0.01   0.03     0.05  -0.04  -0.25    -0.10  -0.13   0.12
    13  35     0.00  -0.00   0.00    -0.01  -0.00   0.00     0.01   0.01   0.00
    14   6    -0.00   0.02   0.01    -0.00  -0.16   0.11    -0.06  -0.09   0.20
    15   6     0.04   0.14  -0.15    -0.04   0.02  -0.06     0.01  -0.00   0.03
    16   6    -0.02  -0.13   0.16    -0.05   0.07  -0.03     0.04   0.03  -0.11
    17   6    -0.00  -0.00  -0.01    -0.08  -0.04   0.12     0.04  -0.12   0.10
    18   6     0.01   0.13  -0.15    -0.00   0.05  -0.09     0.03   0.06  -0.07
    19   6    -0.04  -0.11   0.18    -0.03  -0.06  -0.05     0.04   0.06   0.04
    20   1     0.08   0.30  -0.35    -0.10   0.09  -0.18     0.12   0.17  -0.15
    21   1    -0.05  -0.27   0.34    -0.05   0.14  -0.12     0.08   0.20  -0.33
    22   1    -0.00   0.00  -0.03    -0.09  -0.09   0.23     0.03  -0.15   0.14
    23   1     0.03   0.28  -0.36     0.10   0.16  -0.21    -0.00   0.20  -0.28
    24   1    -0.08  -0.25   0.35    -0.01   0.00  -0.13     0.07   0.23  -0.15
    25   7     0.02  -0.00   0.01    -0.06   0.05  -0.07     0.02   0.06   0.06
    26   6     0.01  -0.00  -0.00     0.00   0.08  -0.01     0.01   0.10  -0.00
    27   1    -0.07  -0.00  -0.10     0.29   0.09   0.36    -0.28   0.07  -0.35
    28   1    -0.00  -0.00  -0.01     0.04   0.11   0.03    -0.02   0.15  -0.04
    29   1    -0.00   0.01   0.00     0.05   0.00  -0.03    -0.00   0.11  -0.01
    30   1     0.01  -0.01  -0.01    -0.00   0.13   0.02     0.04   0.04  -0.05
                     22                     23                     24
                      A                      A                      A
 Frequencies --    568.1045               579.8640               628.7774
 Red. masses --      2.3896                 1.4768                 3.8543
 Frc consts  --      0.4544                 0.2926                 0.8978
 IR Inten    --     42.7393                46.7292                28.1350
  Atom  AN      X      Y      Z        X      Y      Z        X      Y      Z
     1   6     0.04   0.12   0.00    -0.04   0.03  -0.10     0.10  -0.02  -0.10
     2   6     0.01   0.03   0.04    -0.01   0.00  -0.00    -0.05  -0.01  -0.00
     3   8    -0.05  -0.06  -0.00     0.01  -0.01   0.03    -0.01   0.09   0.01
     4   6    -0.03   0.23  -0.06    -0.07   0.08  -0.01     0.17  -0.04   0.05
     5   6    -0.00  -0.00   0.01     0.00  -0.00   0.01    -0.00  -0.00  -0.00
     6   1     0.01   0.01   0.01    -0.00   0.01   0.00     0.10  -0.03   0.03
     7   1    -0.06  -0.02   0.01    -0.03  -0.01   0.02    -0.11  -0.03  -0.06
     8   1     0.04  -0.06   0.02     0.02  -0.03   0.02     0.05  -0.10  -0.03
     9   7     0.02   0.03   0.00     0.01   0.01   0.00    -0.01   0.07   0.03
    10   1     0.14  -0.20  -0.20     0.08  -0.12  -0.10     0.21  -0.34  -0.34
    11   1    -0.18  -0.01   0.16    -0.10  -0.01   0.09    -0.32  -0.01   0.18
    12   1    -0.01   0.25  -0.08    -0.05   0.09   0.01     0.11  -0.06   0.17
    13  35     0.01  -0.01   0.00     0.01  -0.00   0.00    -0.02   0.00  -0.01
    14   6    -0.01  -0.08   0.06    -0.04  -0.01   0.03     0.13  -0.01   0.06
    15   6    -0.02  -0.04   0.01    -0.00  -0.01  -0.01    -0.06   0.15   0.13
    16   6    -0.00   0.04  -0.04     0.01  -0.00  -0.03    -0.13   0.01  -0.03
    17   6    -0.01  -0.03   0.06     0.03  -0.03   0.03    -0.14  -0.03  -0.01
    18   6     0.02   0.02  -0.04     0.01   0.04  -0.01     0.07  -0.17  -0.14
    19   6    -0.00  -0.03  -0.01     0.00   0.01   0.03     0.12  -0.04   0.03
    20   1    -0.03   0.04  -0.11     0.05   0.01  -0.01    -0.07   0.20   0.05
    21   1     0.00   0.16  -0.17     0.00   0.05  -0.07     0.02  -0.04  -0.18
    22   1    -0.01  -0.02   0.07     0.03  -0.05   0.03    -0.08   0.15   0.08
    23   1     0.07   0.11  -0.14    -0.01   0.08  -0.08     0.12  -0.10  -0.22
    24   1     0.03   0.03  -0.11     0.03   0.04  -0.02     0.01   0.14   0.01
    25   7     0.04  -0.05   0.00    -0.03  -0.03  -0.04    -0.05  -0.02   0.03
    26   6     0.01  -0.09   0.01    -0.01  -0.05  -0.01    -0.01  -0.01   0.00
    27   1    -0.41  -0.14  -0.53     0.57   0.01   0.73     0.05  -0.01   0.16
    28   1    -0.02  -0.18   0.00     0.02  -0.04   0.02     0.00   0.07  -0.01
    29   1    -0.04  -0.04   0.06     0.01  -0.06  -0.04     0.03  -0.05  -0.02
    30   1    -0.02  -0.08   0.03    -0.03  -0.03   0.01     0.03  -0.03  -0.02
                     25                     26                     27
                      A                      A                      A
 Frequencies --    641.2015               708.6007               723.9882
 Red. masses --      4.6730                 1.9656                 2.7038
 Frc consts  --      1.1320                 0.5815                 0.8350
 IR Inten    --     12.5131                32.0700                41.8558
  Atom  AN      X      Y      Z        X      Y      Z        X      Y      Z
     1   6     0.06  -0.04  -0.12     0.02   0.05  -0.06     0.01   0.07   0.00
     2   6    -0.07  -0.02  -0.04    -0.04   0.02  -0.04    -0.03   0.05  -0.04
     3   8    -0.00   0.08   0.02    -0.02   0.01   0.03    -0.01  -0.03   0.03
     4   6     0.14  -0.08   0.04    -0.04   0.10   0.06     0.18  -0.04   0.05
     5   6    -0.00  -0.00  -0.00    -0.00  -0.00  -0.01    -0.01   0.00  -0.01
     6   1     0.07  -0.03   0.03    -0.07   0.07  -0.06     0.04   0.01  -0.00
     7   1    -0.09  -0.03  -0.05     0.18   0.05   0.10     0.04   0.01  -0.02
     8   1     0.04  -0.07  -0.02    -0.10   0.12  -0.05    -0.04   0.02  -0.06
     9   7    -0.01   0.05   0.03    -0.03  -0.11  -0.02    -0.02  -0.02   0.01
    10   1     0.16  -0.27  -0.26    -0.34   0.46   0.47    -0.09   0.10   0.07
    11   1    -0.24  -0.01   0.13     0.40  -0.00  -0.20     0.10   0.00  -0.11
    12   1     0.08  -0.10   0.18    -0.03   0.10   0.03     0.24  -0.02   0.07
    13  35    -0.02   0.00  -0.01     0.00  -0.00   0.00    -0.02   0.00  -0.01
    14   6     0.08  -0.12  -0.04     0.08  -0.01  -0.01    -0.03   0.08  -0.08
    15   6     0.14  -0.12  -0.02     0.04   0.04   0.06    -0.05  -0.09   0.04
    16   6     0.22   0.14   0.11     0.04   0.06   0.04    -0.02   0.05  -0.15
    17   6    -0.09   0.07   0.10    -0.09   0.01   0.02     0.03  -0.07   0.08
    18   6    -0.14   0.13   0.04     0.01  -0.06  -0.06     0.02   0.12  -0.09
    19   6    -0.19  -0.14  -0.09     0.01  -0.07  -0.03    -0.02  -0.03   0.11
    20   1    -0.04  -0.07  -0.16    -0.03   0.06   0.01    -0.06  -0.32   0.34
    21   1     0.24   0.23  -0.00     0.14   0.03  -0.06    -0.10   0.00   0.00
    22   1    -0.15  -0.11  -0.14    -0.08   0.03   0.00    -0.02  -0.32   0.42
    23   1     0.08   0.25  -0.03     0.13  -0.02  -0.07    -0.07   0.03   0.00
    24   1    -0.16  -0.08  -0.18    -0.05  -0.02  -0.01    -0.03  -0.28   0.34
    25   7    -0.04  -0.01   0.04    -0.00  -0.01   0.01     0.04  -0.00  -0.01
    26   6    -0.01   0.00   0.00     0.00  -0.04   0.00     0.01  -0.03  -0.00
    27   1    -0.01  -0.00   0.08     0.05  -0.04   0.09     0.03  -0.03  -0.01
    28   1    -0.00   0.09  -0.01    -0.00  -0.04  -0.00    -0.00  -0.11   0.01
    29   1     0.02  -0.03  -0.02    -0.00  -0.03  -0.00    -0.03   0.02   0.02
    30   1     0.03  -0.03  -0.03    -0.00  -0.04  -0.00    -0.03  -0.02   0.02
                     28                     29                     30
                      A                      A                      A
 Frequencies --    732.1410               792.1571               816.1437
 Red. masses --      1.7718                 3.5375                 3.4843
 Frc consts  --      0.5596                 1.3079                 1.3674
 IR Inten    --    141.4549                 9.7550                53.5886
  Atom  AN      X      Y      Z        X      Y      Z        X      Y      Z
     1   6     0.01   0.07  -0.00     0.00  -0.05  -0.11    -0.04  -0.02   0.23
     2   6    -0.02   0.05  -0.02     0.18  -0.05   0.25    -0.15  -0.02  -0.22
     3   8    -0.02  -0.03   0.02    -0.00   0.04  -0.10     0.03  -0.04   0.08
     4   6     0.15  -0.03   0.06    -0.08  -0.03   0.01    -0.10  -0.01  -0.07
     5   6    -0.01   0.00  -0.01     0.00  -0.00   0.01     0.00   0.00   0.01
     6   1     0.03   0.01  -0.00     0.00   0.00   0.00    -0.03  -0.04   0.01
     7   1     0.04   0.01  -0.01     0.02   0.00   0.01    -0.08  -0.02  -0.03
     8   1    -0.04   0.02  -0.05    -0.01   0.01  -0.01     0.05  -0.03   0.07
     9   7    -0.02  -0.02   0.01    -0.02  -0.01   0.01     0.03   0.04  -0.01
    10   1    -0.11   0.12   0.10    -0.04   0.03   0.06     0.15  -0.15  -0.13
    11   1     0.11   0.00  -0.10    -0.00   0.00   0.01    -0.12   0.01   0.07
    12   1     0.23  -0.00   0.06    -0.12  -0.05  -0.10    -0.13  -0.02  -0.13
    13  35    -0.01   0.00  -0.01     0.01  -0.00   0.00     0.01  -0.00   0.00
    14   6    -0.04  -0.01   0.02     0.03   0.14  -0.18     0.03   0.12  -0.15
    15   6    -0.04  -0.04  -0.04    -0.01  -0.04   0.09     0.01  -0.01   0.07
    16   6    -0.05  -0.08   0.03     0.00   0.01  -0.02     0.02   0.02   0.03
    17   6     0.05  -0.01   0.01    -0.01  -0.09   0.10    -0.05  -0.06   0.09
    18   6    -0.01  -0.01   0.09    -0.01   0.03  -0.01     0.03  -0.05  -0.03
    19   6    -0.01   0.02   0.01    -0.01  -0.03   0.09     0.01  -0.06   0.02
    20   1     0.04   0.20  -0.34     0.02  -0.01   0.05    -0.02  -0.02   0.07
    21   1    -0.05   0.21  -0.25     0.08   0.28  -0.40     0.14   0.24  -0.34
    22   1     0.13   0.32  -0.40     0.06   0.24  -0.35     0.04   0.31  -0.36
    23   1     0.00   0.22  -0.23     0.02   0.31  -0.39     0.14   0.20  -0.33
    24   1     0.09   0.23  -0.29    -0.00   0.00   0.06    -0.01  -0.10   0.07
    25   7     0.03  -0.00  -0.02    -0.08  -0.01  -0.02     0.08   0.01   0.01
    26   6     0.00  -0.03  -0.00    -0.01   0.01   0.00     0.01   0.03  -0.00
    27   1     0.07  -0.03   0.05    -0.14   0.03  -0.11     0.13   0.03   0.06
    28   1    -0.00  -0.11   0.01     0.01   0.13  -0.01    -0.00  -0.05   0.00
    29   1    -0.03   0.01   0.02     0.05  -0.06  -0.03    -0.04   0.09   0.02
    30   1    -0.03  -0.01   0.02     0.04   0.02  -0.01    -0.03   0.04   0.01
                     31                     32                     33
                      A                      A                      A
 Frequencies --    842.6339               870.2953               944.1427
 Red. masses --      3.7203                 1.2505                 1.4771
 Frc consts  --      1.5563                 0.5581                 0.7758
 IR Inten    --     17.1226                 1.4542                 2.0545
  Atom  AN      X      Y      Z        X      Y      Z        X      Y      Z
     1   6    -0.13   0.01  -0.06     0.00   0.00  -0.00    -0.01   0.01   0.03
     2   6     0.02   0.15   0.16    -0.00   0.01  -0.00    -0.00  -0.02  -0.01
     3   8    -0.16  -0.07   0.07    -0.00  -0.00   0.00     0.01  -0.00  -0.00
     4   6    -0.04  -0.15   0.00    -0.01  -0.00   0.00    -0.02  -0.01   0.00
     5   6     0.00   0.01   0.00    -0.00  -0.00   0.00     0.00   0.00   0.00
     6   1     0.01  -0.04   0.02     0.00   0.00  -0.00     0.01  -0.01   0.01
     7   1    -0.07  -0.01  -0.05     0.01   0.00   0.00    -0.01  -0.00  -0.01
     8   1     0.04  -0.04   0.03    -0.00   0.00  -0.00     0.00  -0.00  -0.00
     9   7     0.00   0.03   0.01    -0.00  -0.00   0.00    -0.00   0.00   0.00
    10   1     0.07  -0.08  -0.05    -0.00   0.00   0.00     0.01  -0.01  -0.01
    11   1    -0.09   0.00  -0.01     0.00   0.00   0.00    -0.01   0.00  -0.01
    12   1     0.02  -0.15  -0.04     0.00   0.00  -0.00     0.01  -0.00  -0.13
    13  35     0.00   0.00   0.00     0.00   0.00   0.00     0.00  -0.00   0.00
    14   6    -0.02  -0.00   0.01     0.00  -0.00   0.00     0.00   0.05  -0.07
    15   6     0.04   0.04   0.04     0.01   0.05  -0.07    -0.01  -0.06   0.09
    16   6     0.07   0.05   0.05     0.01   0.04  -0.05     0.01   0.02  -0.01
    17   6    -0.05   0.02  -0.01     0.00  -0.00   0.01     0.02   0.06  -0.08
    18   6     0.03  -0.06  -0.05    -0.01  -0.05   0.05     0.01  -0.01  -0.01
    19   6     0.01  -0.04  -0.03    -0.01  -0.05   0.05    -0.02  -0.07   0.08
    20   1     0.04   0.06   0.01    -0.06  -0.33   0.43     0.06   0.33  -0.41
[...]
 0.09056191,-0.11818540,-0.08613910,-0.00095626,-0.00056385,-0.00058785
 ,-0.00016927,-0.00033559,0.00046770,0.00038730,0.00035533,0.00008263,-
 0.00075325,-0.00123223,0.00249194,0.09753528,0.11715923,0.00110971,0.0
 0269047,-0.00179984,-0.00012997,-0.00039540,0.00038578,-0.00007449,0.0
 0017313,0.00000726,0.00019554,-0.00173455,-0.00015501,0.00003898,-0.00
 004428,0.00003567,-0.00002354,0.00000498,-0.00000031,0.00000701,0.0000
 2292,-0.00002538,-0.00002199,-0.00002401,0.00001587,0.00019237,0.00036
 855,-0.00042237,0.00003123,-0.00002730,-0.00008382,-0.00003766,0.00000
 647,0.00009650,0.00074963,0.00033683,-0.00064328,-0.00006146,0.0001178
 2,-0.00005751,-0.01330610,-0.00625476,-0.00390057,0.00155118,-0.005042
 50,0.00262819,0.00040504,0.00059179,-0.00032298,-0.00021296,-0.0030756
 3,0.00470463,0.00348025,-0.00025199,0.00443015,-0.11019962,-0.08677502
 ,-0.13361194,-0.00064470,-0.00038114,-0.00031514,0.00005858,0.00046123
 ,-0.00060267,0.00010273,-0.00007484,0.00013186,0.00051456,0.00236177,-
 0.00233648,0.11621311,0.09674627,0.13198041,0.01420040,-0.00727226,-0.
 00075428,-0.16652505,-0.07909920,0.08368628,-0.05938923,-0.03181846,0.
 05770580,0.00124486,0.00489837,-0.00082410,-0.00098094,-0.00017418,-0.
 00071297,0.00011358,0.00006272,0.00011741,0.00018868,-0.00016681,0.000
 19647,-0.00008714,0.00013609,-0.00011524,-0.00041515,-0.00241483,0.001
 20637,0.00025972,-0.00035842,0.00026657,0.00127861,0.00445278,-0.00263
 809,0.00053219,0.00051898,-0.00015507,-0.00048423,-0.00024073,-0.00007
 291,-0.00445778,0.00088709,0.00156257,-0.00166751,0.00240244,-0.003921
 11,0.00167466,0.00025409,-0.00032097,0.00051842,0.00087242,0.00114530,
 -0.00168337,0.00019272,-0.00012840,0.00170039,-0.00154464,-0.00078612,
 0.00005944,0.00045474,0.00218871,0.00011329,0.00000515,-0.00009371,-0.
 00006656,0.00007059,0.00015217,0.00001477,0.00000324,0.00000837,0.0000
 0502,0.00020379,0.00013102,0.57758017,-0.02350090,-0.05120636,0.017306
 05,-0.07794191,-0.25712417,0.06139927,-0.01533831,0.02334450,0.0129408
 5,0.01643263,-0.00047382,-0.00617717,-0.00181010,0.00033056,-0.0008604
 5,0.00036865,-0.00004016,0.00048959,0.00016323,-0.00021272,0.00010736,
 0.00007971,-0.00001399,-0.00052769,-0.00334798,-0.00091391,0.00520133,
 0.00020109,0.00024204,0.00089323,0.00095204,0.00054884,-0.00103185,-0.
 00168667,-0.00118949,-0.00033996,-0.00299212,0.00032227,-0.00005601,-0
 .00662703,-0.00074090,0.00256902,0.00318666,-0.00089311,-0.00025116,-0
 .00097849,0.00055057,0.00055818,0.00079654,-0.00078591,-0.00050218,0.0
 0025992,0.00023446,0.00040208,0.00071256,-0.00039745,-0.00025222,0.000
 20162,-0.00004007,0.00045014,0.00022604,-0.00004951,0.00018069,0.00010
 496,0.00003908,-0.00005753,0.00010992,-0.00010964,-0.00005494,-0.00014
 316,0.00024106,0.00014800,-0.02866691,0.72747468,0.00179390,0.00597614
 ,0.01108716,0.08861687,0.07187856,-0.11606968,0.05328976,0.01975964,-0
 .01997401,-0.00132702,-0.00256125,0.00234762,0.00049381,0.00007954,0.0
 0057684,-0.00009378,-0.00006225,-0.00009196,-0.00012795,0.00012991,-0.
 00011808,0.00000441,-0.00008570,0.00001596,0.00040454,0.00107824,-0.00
 104675,-0.00019161,0.00000569,-0.00014674,-0.00053334,-0.00249531,0.00
 178238,-0.00000594,-0.00035143,-0.00066902,0.00007551,0.00041920,0.000
 22602,-0.00032209,-0.00008451,-0.00102248,-0.00157546,0.00017499,-0.00
 124023,0.00047993,0.00051814,-0.00014395,-0.00013790,0.00010862,0.0002
 5622,-0.00022468,0.00013715,-0.00002153,-0.00005825,-0.00025868,0.0002
 3126,-0.00003031,0.00038188,0.00097363,-0.00001347,0.00002303,-0.00009
 538,-0.00006537,0.00002027,0.00010010,-0.00001488,0.00006130,-0.000007
 68,0.00009969,0.00008366,-0.00006692,-0.37760498,-0.01272137,0.3559817
 3,-0.00027150,-0.00434575,0.00416560,0.01198335,-0.01442057,-0.0107156
 7,-0.00282238,-0.00129446,0.00033047,0.00250132,0.00022278,-0.00040140
 ,-0.00022716,0.00004995,-0.00014370,0.00005186,-0.00000569,0.00007422,
 0.00002734,-0.00002526,0.00001946,0.00001501,-0.00000942,-0.00006618,-
 0.00056327,-0.00017550,0.00088692,0.00002529,0.00004690,0.00012361,0.0
 0011680,0.00006902,-0.00021672,-0.00010394,-0.00017455,-0.00041617,-0.
 00066897,0.00005371,-0.00000214,-0.00102358,0.00012464,0.00006059,0.00
 013435,0.00032511,0.00003112,0.00012662,-0.00010580,-0.00011188,0.0001
 6451,0.00007884,0.00012526,-0.00025169,0.00000093,-0.00003242,0.000393
 66,-0.00039175,-0.00028231,-0.00001678,0.00007239,-0.00004372,-0.00000
 714,0.00001081,0.00000511,0.00001457,0.00000042,-0.00000611,0.00001024
 ,-0.00002054,-0.00000927,-0.00000986,0.00001614,0.00001151,-0.10194953
 ,0.02843562,0.02970723,0.60235650,-0.00036129,0.00585668,0.00028618,-0
 .01106252,-0.03990087,0.01052622,0.00851834,-0.00152749,-0.00731831,-0
 .00338041,-0.00173384,0.00234572,0.00051358,-0.00008485,0.00033152,-0.
 00010784,0.00000095,-0.00016839,-0.00006426,0.00007908,-0.00004899,-0.
 00001667,-0.00005082,0.00016413,0.00108147,0.00057249,-0.00179368,-0.0
 0007843,-0.00006265,-0.00025517,-0.00035271,-0.00067486,0.00055185,0.0
 0008913,0.00004262,-0.00006145,0.00066977,0.00006815,-0.00005229,0.000
 63923,0.00030236,-0.00048564,-0.00072918,0.00029654,-0.00061961,0.0007
 0156,-0.00006031,-0.00006522,-0.00019864,0.00040036,0.00035478,-0.0004
 2542,-0.00004705,-0.00009782,0.00010531,-0.00016996,-0.00031685,0.0002
 4357,0.00001360,0.00073830,-0.00009769,0.00001429,-0.00009315,-0.00007
 265,0.00003448,0.00004672,-0.00004664,0.00004904,0.00003657,0.00005869
 ,-0.00003228,-0.00000332,0.03415612,-0.25926595,-0.01209719,0.02253923
 ,0.53117638,0.00440670,0.00088760,0.00338355,-0.01412153,0.01173775,0.
 00612455,0.00166799,-0.00177192,-0.00376346,-0.00045004,0.00126926,0.0
 0096030,0.00009237,-0.00000822,0.00005478,-0.00001164,0.00000877,-0.00
 003425,-0.00001052,0.00001525,-0.00001129,0.00000183,-0.00001332,0.000
 02010,-0.00008066,-0.00009124,-0.00005187,-0.00003338,0.00002741,0.000
 03190,-0.00008949,-0.00020579,0.00014925,0.00035530,0.00021445,-0.0004
 9159,-0.00030423,-0.00002189,-0.00003871,0.00039622,-0.00025179,-0.000
 17798,-0.00034284,-0.00003228,-0.00002096,0.00004690,-0.00008734,-0.00
 003120,-0.00005987,0.00007340,0.00007210,-0.00006499,-0.00000958,-0.00
 002535,-0.00007045,0.00005619,-0.00001064,0.00002985,0.00010436,-0.000
 07391,-0.00003103,0.00002466,-0.00003474,-0.00000348,-0.00000126,0.000
 00003,-0.00001104,0.00000062,0.00000243,0.00001291,-0.00002390,-0.0000
 2392,0.03025266,-0.00534918,-0.08181265,-0.01979145,-0.01453499,0.5900
 4163,-0.00022190,0.00313805,-0.00197523,-0.01570823,0.00606072,0.00728
 254,0.00209221,-0.00299189,0.00414753,-0.00189623,-0.00064572,0.001106
 55,0.00028758,-0.00007031,0.00008756,-0.00007114,0.00000472,-0.0000554
 7,-0.00000609,0.00003627,-0.00000612,-0.00002473,-0.00000503,0.0000630
 3,0.00049063,-0.00002199,-0.00094538,-0.00000244,-0.00008970,-0.000106
 33,0.00005848,0.00031750,-0.00006947,0.00005289,0.00003542,0.00012376,
 0.00030464,-0.00002070,-0.00012350,0.00196421,0.00072673,-0.00025663,-
 0.00065922,0.00030540,-0.00030848,-0.00054265,0.00011842,0.00014262,-0
 .00024258,-0.00018624,-0.00019946,0.00035846,-0.00005157,0.00001061,-0
 .00036377,0.00032822,0.00021097,-0.00006537,0.00014733,-0.00046037,-0.
 00002440,0.00002248,-0.00002318,0.00001395,-0.00002591,-0.00001479,-0.
 00000612,-0.00001294,-0.00000139,-0.00000532,-0.00007943,-0.00007653,-
 0.27156134,0.09191570,0.20233251,0.00086386,-0.00143571,-0.00199552,0.
 28395139,-0.00042607,-0.00215741,-0.00003311,-0.01749536,0.01773491,0.
 01289327,-0.00539168,-0.00449830,0.00448259,-0.00014195,0.00001392,-0.
 00008096,-0.00002553,-0.00004349,-0.00009730,0.00000487,0.00001506,-0.
 00001378,0.00001425,-0.00002328,0.00002760,-0.00002865,0.00003532,0.00
 002446,0.00022380,-0.00019551,-0.00014931,0.00003530,-0.00004642,-0.00
 005654,0.00009734,0.00066029,-0.00034483,-0.00001037,0.00001729,0.0000
 6270,0.00015464,-0.00001055,0.00000934,-0.00022986,-0.00188157,0.00095
 711,0.00134797,-0.00048501,0.00112285,0.00017893,-0.00010387,-0.000071
 09,-0.00004601,0.00013507,0.00015082,-0.00019076,-0.00007094,-0.000058
 27,0.00033527,-0.00032762,-0.00053441,0.00005367,-0.00005817,-0.000078
 41,-0.00007998,-0.00000980,-0.00002535,-0.00003084,0.00003245,-0.00002
 081,-0.00003095,0.00003149,0.00002047,0.00000101,0.00002307,0.00004333
 ,0.09465161,-0.10844067,-0.06941190,0.02348435,-0.00442888,-0.01903028
 ,-0.09669459,0.10922151,-0.00091087,0.00044054,-0.00102068,0.00457300,
 -0.00811669,-0.01045159,0.00349270,0.00234154,0.00472978,0.00037619,-0
 .00033681,-0.00013832,0.00004079,0.00002128,0.00002053,-0.00000267,-0.
 00000221,0.00000687,-0.00001106,-0.00000457,-0.00000886,0.00000067,0.0
 0000997,-0.00001179,-0.00019706,-0.00006798,0.00002091,-0.00000869,-0.
 00001149,0.00006508,0.00015320,0.00002738,0.00013553,-0.00013587,-0.00
 005802,0.00013707,-0.00018936,0.00004679,-0.00010868,0.00034784,0.0004
 1399,-0.00002655,0.00027831,0.00031532,0.00051006,-0.00094860,0.000151
 60,0.00029271,-0.00007967,-0.00055617,-0.00057751,0.00083959,-0.000110
 93,-0.00000855,-0.00051310,0.00053652,0.00023392,-0.00025897,0.0000583
 7,-0.00110691,0.00002206,0.00000906,0.00004701,0.00005782,-0.00005824,
 -0.00004745,0.00003117,-0.00005510,-0.00001280,-0.00005536,-0.00012282
 ,-0.00005759,0.20506744,-0.06707753,-0.16458750,-0.00345249,0.00147403
 ,0.00011108,-0.20829296,0.06987291,0.17145761,-0.00011846,0.00058953,0
 .00024479,-0.00063855,-0.00174943,0.00144147,-0.00062221,-0.00237417,-
 0.00063473,-0.00032351,-0.00010677,0.00021321,0.00008165,-0.00001145,0
 .00004836,-0.00000589,0.00000424,-0.00002706,-0.00001610,0.00000333,-0
 .00000887,-0.00001401,0.00000900,0.00002327,0.00007786,0.00004019,-0.0
 0021140,-0.00001406,-0.00000867,-0.00000663,-0.00001757,-0.00008055,0.
 00008854,0.00001695,0.00000932,-0.00001408,0.00002427,0.00000175,-0.00
 001578,0.00014655,0.00008111,-0.00004337,-0.00005036,0.00005911,0.0000
 0628,0.00003664,-0.00002225,-0.00002248,-0.00001679,0.00002150,0.00001
 483,-0.00001560,-0.00001225,0.00000095,-0.00003250,0.00002018,-0.00003
 161,-0.00000858,0.00000049,0.00003849,-0.00001041,-0.00000056,0.000000
 27,-0.00000393,-0.00000076,0.00000066,-0.00000574,0.00000243,0.0000041
 6,0.00000520,-0.00000697,-0.00000607,-0.00527500,0.00492837,0.00336405
 ,-0.19211371,0.02776170,0.13976897,0.00084937,0.00052795,-0.00003362,0
 .20199937,-0.00043185,0.00039996,0.00048047,0.00524787,0.00030222,-0.0
 0392321,-0.00271461,0.00102779,0.00224278,-0.00011343,0.00000188,-0.00
 001200,0.00004793,0.00001626,0.00007135,-0.00000348,-0.00000905,-0.000
 01281,-0.00001506,0.00001631,-0.00001585,0.00001123,-0.00000707,-0.000
 00245,-0.00003017,0.00015722,-0.00008316,-0.00003395,0.00002286,0.0000
 1865,-0.00011623,-0.00031087,0.00029460,0.00002895,0.00002834,-0.00001
 736,0.00000434,0.00004167,0.00001448,0.00022870,0.00010995,-0.00000902
 ,-0.00003370,-0.00010973,0.00001386,-0.00007965,0.00001861,0.00005056,
 -0.00004183,-0.00004466,-0.00005476,0.00008739,0.00000419,0.00002573,-
 0.00016910,0.00012686,0.00007692,0.00000408,0.00001238,-0.00005343,-0.
 00000147,0.00000088,-0.00000104,-0.00000044,-0.00000061,-0.00000337,-0
 .00000491,0.00000330,0.00000179,0.00000489,-0.00000357,-0.00001214,0.0
 2929923,-0.01014311,-0.02713513,0.01889777,-0.05131403,-0.01745987,-0.
 00083680,-0.00596640,0.00028832,-0.03195074,0.06166448,0.00001097,-0.0
 0025641,-0.00003812,0.00254117,0.00145971,-0.00008465,-0.00094360,0.00
 219430,-0.00090525,0.00022988,0.00007319,-0.00005758,-0.00000342,0.000
 00040,-0.00000364,0.00000576,0.00000601,-0.00000475,-0.00000210,-0.000
 00801,-0.00000300,-0.00000466,0.00000451,0.00000142,-0.00004999,-0.000
 00171,0.00005468,0.00000102,0.00000878,0.00001252,-0.00000606,0.000009
 81,0.00001352,-0.00002125,-0.00000646,0.00000480,-0.00006507,-0.000001
 49,-0.00002385,-0.00005053,-0.00008569,0.00005596,-0.00000776,0.000012
 38,0.00000321,-0.00000746,-0.00000128,-0.00001746,0.00000964,-0.000005
 57,-0.00000077,0.00000186,0.00000639,-0.00000693,0.00001070,-0.0000015
 1,0.00001129,-0.00001973,-0.00000118,0.00000055,0.00000301,-0.00000031
 ,0.00000432,0.00000257,-0.00000284,0.00000048,0.00000255,-0.00000155,-
 0.00000256,-0.00000262,-0.00000235,0.00000207,0.00056208,-0.00348129,-
 0.00061038,0.14006883,-0.02626388,-0.18582728,-0.00066089,0.00019755,0
 .00021499,-0.15175711,0.02761336,0.19353153,-0.00034564,-0.00027037,-0
 .00053399,-0.00138232,0.00177957,0.00063616,0.00073483,-0.00170591,0.0
 0007873,0.00019269,0.00006877,-0.00020073,-0.00006387,0.00000958,-0.00
 004408,0.00000808,-0.00000123,0.00002404,0.00001221,-0.00000610,0.0000
 0794,0.00000554,0.00000207,-0.00001856,-0.00006261,-0.00004455,0.00018
 051,0.00001600,0.00001286,0.00000316,0.00001682,0.00006856,-0.00009123
 ,-0.00001088,-0.00000253,0.00003999,0.00003510,-0.00001943,0.00003197,
 0.00005183,0.00000863,-0.00002272,0.00008439,-0.00016368,0.00012818,-0
 .00010877,0.00001770,0.00003350,0.00000645,-0.00005323,-0.00005897,0.0
 0007338,-0.00000149,0.00002157,-0.00002407,0.00005339,0.00004987,0.000
 01457,-0.00003872,-0.00013462,0.00001344,-0.00000328,0.00001101,0.0000
 0761,-0.00000118,-0.00000759,0.00000413,-0.00000438,-0.00000178,-0.000
 00758,0.00000720,0.00000405,0.01332306,0.00615928,0.00373144,-0.241477
 88,-0.10647630,-0.06392322,0.00029889,-0.00056732,0.00041558,-0.013637
 53,-0.00885496,-0.00944165,0.24932001,-0.00018531,-0.00240482,0.001402
 81,0.00429911,0.00130292,-0.00767124,-0.00172768,0.00078276,0.00113268
 ,0.00170035,0.00035954,-0.00067888,-0.00022022,0.00003986,-0.00010933,
 0.00004226,-0.00000580,0.00006384,0.00002370,-0.00002280,0.00001619,0.
 00001165,0.00000060,-0.00006870,-0.00041504,-0.00016247,0.00069407,0.0
 0002073,0.00002889,0.00010562,0.00010867,0.00012737,-0.00015131,-0.000
 07559,-0.00007728,-0.00011851,-0.00036999,0.00001871,0.00002554,-0.000
 77692,0.00003999,0.00014869,0.00030028,0.00001498,-0.00006310,-0.00009
 856,0.00005438,0.00001621,0.00012469,-0.00007444,-0.00003834,-0.000004
 46,0.00003299,0.00003434,0.00014788,-0.00010317,-0.00001350,-0.0000841
 0,-0.00003736,-0.00001528,0.00004381,-0.00001355,0.00002769,0.00001315
 ,0.00000156,-0.00000499,0.00001554,-0.00001162,-0.00000669,-0.00001240
 ,0.00003514,0.00001373,-0.02927584,-0.03138239,-0.00407521,-0.10132489
 ,-0.10269493,-0.03420833,0.00017847,0.00059624,0.00039775,0.00446939,0
 .00237614,0.00250776,0.11398933,0.12501247,0.00008249,-0.00029263,0.00
 017112,0.00231948,0.00131850,-0.00176918,-0.00095926,0.00152494,0.0001
 1584,0.00017866,0.00010344,-0.00013318,-0.00001064,0.00000664,0.000001
 38,0.00000930,0.00000143,0.00000017,-0.00000340,-0.00000620,-0.0000016
 7,-0.00000239,0.00000921,-0.00000097,-0.00006808,-0.00002222,0.0000710
 7,-0.00000576,0.00000560,0.00002434,0.00001304,-0.00001102,0.00003282,
 0.00000059,0.00000720,0.00000435,-0.00005129,0.00000954,0.00000594,-0.
 00003889,-0.00001317,0.00003868,0.00004587,0.00003516,0.00006743,-0.00
 002629,-0.00001495,-0.00001654,0.00002707,-0.00001877,-0.00002193,0.00
 001431,0.00000105,-0.00000224,-0.00000096,0.00000098,-0.00001159,-0.00
 001374,-0.00000613,-0.00005691,0.00000177,-0.00000327,0.00001874,0.000
 00530,-0.00000482,-0.00000370,0.00000139,-0.00000416,-0.00000046,-0.00
 000716,-0.00000365,0.00000432,0.00065687,-0.00409797,0.00232626,-0.064
 72872,-0.03465032,-0.07124271,-0.00030292,-0.00034376,-0.00001109,0.01
 699818,0.01118339,0.00920704,0.06972910,0.03813005,0.06747401,0.000137
 68,0.00057680,0.00017023,-0.00207600,-0.00189162,0.00158277,0.00055213
 ,-0.00030076,-0.00143157,-0.00030949,-0.00007959,0.00025376,0.00005255
 ,-0.00001006,0.00003458,-0.00001158,-0.00000015,-0.00001531,-0.0000061
 6,0.00000870,-0.00000504,-0.00000141,-0.00000348,0.00001281,0.00007675
 ,0.00000517,-0.00016507,-0.00000880,-0.00001092,-0.00001066,-0.0000194
 8,-0.00005692,0.00004659,0.00001466,0.00000184,-0.00001429,0.00002437,
 -0.00000015,-0.00001571,0.00019093,-0.00003057,-0.00006303,-0.00006747
 ,-0.00005912,-0.00000435,0.00003037,-0.00001443,-0.00000980,-0.0000257
 0,0.00002634,0.00002507,-0.00001769,0.00000030,-0.00000844,-0.00001493
 ,0.00002240,0.00001673,0.00000344,-0.00001333,0.00000040,0.00000053,-0
 .00000229,-0.00000742,-0.00000570,0.00000406,0.00000049,-0.00000302,0.
 00000730,0.00000171,0.00000402,-0.00000337,-0.00000140,0.00173558,0.00
 779906,-0.00206665,-0.07727790,0.02782865,-0.07563633,-0.00018504,0.00
 027896,-0.00060603,0.00970266,-0.00842999,0.01959386,-0.00709787,0.009
 08201,-0.02386390,0.07460258,-0.00157358,-0.00189740,-0.00077370,0.008
 84535,0.00241922,-0.00256954,-0.00220797,0.00101026,0.00211761,0.00151
 213,0.00010799,-0.00096008,-0.00018379,0.00003360,-0.00011365,0.000037
 50,-0.00000326,0.00005586,0.00002032,-0.00002724,0.00001506,0.00000784
 ,0.00001282,-0.00005591,-0.00036245,-0.00011538,0.00057367,0.00003091,
 0.00002155,0.00008828,0.00012153,0.00018223,-0.00016512,-0.00016986,-0
 .00008888,0.00013667,-0.00020455,0.00002342,-0.00000817,-0.00048180,0.
 00010727,0.00020144,0.00028706,0.00000643,0.00008764,-0.00016096,0.000
 03676,0.00002937,0.00007899,-0.00010526,-0.00009109,0.00008842,0.00000
 778,0.00002450,0.00004983,-0.00000107,0.00003329,-0.00008606,-0.000024
 00,-0.00013799,0.00003067,-0.00000812,0.00002742,0.00001893,-0.0000074
 1,-0.00000980,0.00001730,-0.00001764,-0.00000814,-0.00002241,0.0000110
 3,0.00000960,0.00751012,-0.02990473,0.03050396,0.02786559,-0.07685825,
 0.07868145,-0.00016692,0.00023127,0.00017318,-0.00220501,0.00157782,-0
 .00397265,-0.00396229,0.00616611,-0.01284406,-0.03473485,0.09710310,-0
 .00024085,0.00035295,-0.00051678,-0.00041704,-0.00162685,0.00011220,0.
 00025731,0.00084518,0.00031718,-0.00039805,-0.00022946,0.00007498,0.00
 002382,-0.00000211,0.00002228,-0.00001030,-0.00000623,-0.00000278,-0.0
 0000095,0.00001111,-0.00000198,0.00000817,-0.00001285,0.00000784,0.000
 11404,0.00010956,-0.00010598,-0.00000637,0.00000257,-0.00003929,-0.000
 07102,-0.00009156,0.00005602,0.00000875,0.00000413,0.00004267,0.000145
 85,0.00000169,0.00002477,0.00008897,0.00004950,-0.00004452,-0.00000611
 ,-0.00005667,-0.00002115,0.00003630,0.00000887,0.00001234,-0.00001629,
 0.00001742,0.00000994,-0.00001014,0.00000204,0.00000433,-0.00001864,0.
 00000350,-0.00000348,0.00002430,-0.00001797,0.00004506,0.00000088,-0.0
 0000541,-0.00000382,-0.00000768,0.00000528,0.00000257,-0.00000501,0.00
 000740,0.00000470,0.00000617,0.00000319,0.00000299,0.00322186,0.000192
 71,0.01181977,-0.07518958,0.08207026,-0.25727920,0.00036695,0.00048508
 ,0.00019273,-0.00944366,0.00641933,-0.01553217,-0.00064769,0.00250643,
 -0.00629131,0.08218600,-0.09104910,0.26709009\\-0.00000422,-0.00000844
 ,-0.00000010,0.00000935,0.00000010,0.00000258,-0.00000074,0.00001764,-
 0.00000565,0.00001137,-0.00000571,0.00000470,-0.00000964,0.00000612,-0
 .00000266,0.00000011,-0.00000218,-0.00000135,0.00000086,-0.00000289,-0
 .00000118,0.00000082,0.00000066,-0.00000141,0.00000356,-0.00002576,0.0
 0001177,0.00000293,-0.00000018,-0.00000837,0.00000554,0.00001483,-0.00
 000339,-0.00000293,0.00000690,0.00000009,-0.00000637,-0.00000191,-0.00
 000436,-0.00000804,-0.00000214,-0.00000558,-0.00000136,0.00000766,0.00
 000289,0.00000343,-0.00000313,-0.00000081,-0.00000554,0.00000340,0.000
 00110,-0.00000151,0.00000194,0.00000132,0.00000377,-0.00000073,-0.0000
 0049,-0.00000020,-0.00000040,0.00000002,0.,0.00000021,0.00000071,0.000
 00380,-0.00000051,0.00000009,0.00000054,0.00000015,-0.00000106,-0.0000
 0027,0.00000033,-0.00000140,0.00000111,-0.00000300,0.00000030,-0.00000
 413,-0.00000479,0.00000291,-0.00000115,-0.00000018,0.00000058,-0.00000
 068,0.00000270,0.00000473,-0.00000088,0.00000144,0.00000308,0.00000044
 ,-0.00000212,0.00000093\\\@
 The archive entry for this job was punched.


 CHINESE FORTUNE COOKIE OF JAN 1 1967 SAY....
 ALL THINGS ARE DIFFICULT BEFORE THEY ARE EASY.
 WE LEARN SO LITTLE AND FORGET SO MUCH.
 YOU WILL OVERCOME OBSTACLES TO ACHIEVE SUCCESS.
 AH SO.
 Job cpu time:       0 days  0 hours 50 minutes 57.7 seconds.
 Elapsed time:       0 days  0 hours  4 minutes 17.6 seconds.
 File lengths (MBytes):  RWF=    438 Int=      0 D2E=      0 Chk=     15 Scr=      1
 Normal termination of Gaussian 16 at Sat Dec 30 21:03:06 2023.
