Unloading slurm/anatra/current
  ERROR: No such file or directory on
    '/cm/local/modulefiles/slurm/anatra/current'
environment: line 0: unalias: gv: not found
environment: line 0: unalias: sl: not found
 Entering Gaussian System, Link 0=g16
 Initial command:
 /apps/gaussian/g16/C.01/g16/l1.exe "/local/jobs/1153147/Gau-1691878.inp" -scrdir="/local/jobs/1153147/"
 Entering Link 1 = /apps/gaussian/g16/C.01/g16/l1.exe PID=   1691880.
  
 Copyright (c) 1988-2019, Gaussian, Inc.  All Rights Reserved.
  
 This is part of the Gaussian(R) 16 program.  It is based on
 the Gaussian(R) 09 system (copyright 2009, Gaussian, Inc.),
 the Gaussian(R) 03 system (copyright 2003, Gaussian, Inc.),
 the Gaussian(R) 98 system (copyright 1998, Gaussian, Inc.),
 the Gaussian(R) 94 system (copyright 1995, Gaussian, Inc.),
 the Gaussian 92(TM) system (copyright 1992, Gaussian, Inc.),
 the Gaussian 90(TM) system (copyright 1990, Gaussian, Inc.),
 the Gaussian 88(TM) system (copyright 1988, Gaussian, Inc.),
 the Gaussian 86(TM) system (copyright 1986, Carnegie Mellon
 University), and the Gaussian 82(TM) system (copyright 1983,
 Carnegie Mellon University). Gaussian is a federally registered
 trademark of Gaussian, Inc.
  
 This software contains proprietary and confidential information,
 including trade secrets, belonging to Gaussian, Inc.
  
 This software is provided under written license and may be
 used, copied, transmitted, or stored only in accord with that
 written license.
  
 The following legend is applicable only to US Government
 contracts under FAR:
  
                    RESTRICTED RIGHTS LEGEND
  
 Use, reproduction and disclosure by the US Government is
 subject to restrictions as set forth in subparagraphs (a)
 and (c) of the Commercial Computer Software - Restricted
 Rights clause in FAR 52.227-19.
  
 Gaussian, Inc.
 340 Quinnipiac St., Bldg. 40, Wallingford CT 06492
  
  
 ---------------------------------------------------------------
 Warning -- This program may not be used in any manner that
 competes with the business of Gaussian, Inc. or will provide
 assistance to any competitor of Gaussian, Inc.  The licensee
 of this program is prohibited from giving any competitor of
 Gaussian, Inc. access to this program.  By using this program,
 the user acknowledges that Gaussian, Inc. is engaged in the
 business of creating and licensing software in the field of
 computational chemistry and represents and warrants to the
 licensee that it is not a competitor of Gaussian, Inc. and that
 it will not use this program in any manner prohibited above.
 ---------------------------------------------------------------
  

 Cite this work as:
 Gaussian 16, Revision C.01,
 M. J. Frisch, G. W. Trucks, H. B. Schlegel, G. E. Scuseria, 
 M. A. Robb, J. R. Cheeseman, G. Scalmani, V. Barone, 
 G. A. Petersson, H. Nakatsuji, X. Li, M. Caricato, A. V. Marenich, 
 J. Bloino, B. G. Janesko, R. Gomperts, B. Mennucci, H. P. Hratchian, 
 J. V. Ortiz, A. F. Izmaylov, J. L. Sonnenberg, D. Williams-Young, 
 F. Ding, F. Lipparini, F. Egidi, J. Goings, B. Peng, A. Petrone, 
 T. Henderson, D. Ranasinghe, V. G. Zakrzewski, J. Gao, N. Rega, 
 G. Zheng, W. Liang, M. Hada, M. Ehara, K. Toyota, R. Fukuda, 
 J. Hasegawa, M. Ishida, T. Nakajima, Y. Honda, O. Kitao, H. Nakai, 
 T. Vreven, K. Throssell, J. A. Montgomery, Jr., J. E. Peralta, 
 F. Ogliaro, M. J. Bearpark, J. J. Heyd, E. N. Brothers, K. N. Kudin, 
 V. N. Staroverov, T. A. Keith, R. Kobayashi, J. Normand, 
 K. Raghavachari, A. P. Rendell, J. C. Burant, S. S. Iyengar, 
 J. Tomasi, M. Cossi, J. M. Millam, M. Klene, C. Adamo, R. Cammi, 
 J. W. Ochterski, R. L. Martin, K. Morokuma, O. Farkas, 
 J. B. Foresman, and D. J. Fox, Gaussian, Inc., Wallingford CT, 2019.
 
 ******************************************
 Gaussian 16:  ES64L-G16RevC.01  3-Jul-2019
                30-Dec-2023 
 ******************************************
 %chk=TS-325_opt_sqm_re.chk
 %nprocshared=12
 Will use up to   12 processors via shared memory.
 %mem=48GB
 ----------------------------------------------------------------------
 # wb97xd def2svp geom=allchk scrf=(iefpcm,solvent=toluene) opt=(readfc
 ,ts,noeigen,maxcycles=50,maxstep=10)
 ----------------------------------------------------------------------
 1/5=1,6=50,8=10,10=3,11=1,18=20,26=3,29=7,38=1/1,3;
 2/9=110,12=2,40=1/2;
 3/5=43,7=101,11=2,14=-4,25=1,30=1,70=2201,71=1,72=13,74=-58/1,2,3;
 4//1;
 5/5=2,38=5,53=13/2;
 6/7=2,8=2,9=2,10=2,28=1/1;
 7//1,2,3,16;
 1/5=1,6=50,8=10,11=1,18=20,26=3/3(2);
 2/9=110/2;
 99//99;
 2/9=110/2;
 3/5=43,7=101,11=2,14=-2,25=1,30=1,70=2205,71=1,72=13,74=-58/1,2,3;
 4/5=5,16=3,69=1/1;
 5/5=2,38=5,53=13/2;
 7//1,2,3,16;
 1/5=1,6=50,8=10,11=1,18=20,26=3/3(-5);
 2/9=110/2;
 6/7=2,8=2,9=2,10=2,19=2,28=1/1;
 99/9=1/99;
 Structure from the checkpoint file:  "TS-325_opt_sqm_re.chk"
 ---------------------
 TS-325_opt_sqm_re.out
 ---------------------
 Charge =  0 Multiplicity = 1
 Redundant internal coordinates found in file.  (old form).
 C,0,0.10286,0.10246,-0.10954
 C,0,-0.33773,1.50223,0.04639
 O,0,-1.35135,1.8015,0.68926
 C,0,-0.84363,-0.89432,0.02278
 C,0,-0.49912,-0.99584,2.85253
 H,0,-0.75741,-0.6106,3.85146
 H,0,-0.24938,-2.06269,2.93667
 H,0,0.39214,-0.458,2.49405
 N,0,-1.55962,-0.80588,1.88487
 H,0,-2.3845,-1.38066,2.04858
 H,0,-1.82502,0.18333,1.78393
 H,0,-0.50658,-1.93241,0.0284
 Br,0,-2.57751,-0.80791,-0.84511
 C,0,1.53472,-0.27249,-0.19247
 C,0,2.52935,0.42507,0.5213
 C,0,3.86759,0.04518,0.45698
 C,0,4.2562,-1.05374,-0.31014
 C,0,3.28761,-1.75721,-1.02517
 C,0,1.95166,-1.36392,-0.97754
 H,0,2.24396,1.27615,1.14309
 H,0,4.6135,0.60661,1.02523
 H,0,5.30505,-1.35447,-0.35529
 H,0,3.57627,-2.61086,-1.64325
 H,0,1.21273,-1.90046,-1.57836
 N,0,0.43874,2.46226,-0.52394
 C,0,0.13534,3.86744,-0.43075
 H,0,1.18222,2.16266,-1.14088
 H,0,-0.46907,4.22573,-1.27915
 H,0,-0.43902,4.04314,0.48829
 H,0,1.06596,4.4535,-0.39065
 Recover connectivity data from disk.

 GradGradGradGradGradGradGradGradGradGradGradGradGradGradGradGradGradGrad
 Berny optimization.
 Initialization pass.
 Force constant matrix read from checkpoint file:
 "TS-325_opt_sqm_re.chk"
                           ----------------------------
                           !    Initial Parameters    !
                           ! (Angstroms and Degrees)  !
 --------------------------                            --------------------------
 ! Name  Definition              Value          Derivative Info.                !
 --------------------------------------------------------------------------------
 ! R1    R(1,2)                  1.4757         D2E/DX2 =    0.3604             !
 ! R2    R(1,4)                  1.3809         D2E/DX2 =    0.5151             !
 ! R3    R(1,14)                 1.4825         D2E/DX2 =    0.3979             !
 ! R4    R(2,3)                  1.237          D2E/DX2 =    0.6751             !
 ! R5    R(2,25)                 1.3601         D2E/DX2 =    0.6201             !
 ! R6    R(3,11)                 2.0103         D2E/DX2 =    0.0128             !
 ! R7    R(4,9)                  1.997          D2E/DX2 =   -0.009              !
 ! R8    R(4,12)                 1.0915         D2E/DX2 =    0.2615             !
 ! R9    R(4,13)                 1.9409         D2E/DX2 =    0.1942             !
 ! R10   R(5,6)                  1.1014         D2E/DX2 =    0.2628             !
 ! R11   R(5,7)                  1.0989         D2E/DX2 =    0.2665             !
 ! R12   R(5,8)                  1.101          D2E/DX2 =    0.2649             !
 ! R13   R(5,9)                  1.4481         D2E/DX2 =    0.5183             !
 ! R14   R(9,10)                 1.0186         D2E/DX2 =    0.2791             !
 ! R15   R(9,11)                 1.0292         D2E/DX2 =    0.2448             !
 ! R16   R(14,15)                1.409          D2E/DX2 =    0.4439             !
 ! R17   R(14,19)                1.4076         D2E/DX2 =    0.4479             !
 ! R18   R(15,16)                1.3926         D2E/DX2 =    0.4758             !
 ! R19   R(15,20)                1.092          D2E/DX2 =    0.2704             !
 ! R20   R(16,17)                1.3954         D2E/DX2 =    0.4712             !
 ! R21   R(16,21)                1.0929         D2E/DX2 =    0.27               !
 ! R22   R(17,18)                1.3944         D2E/DX2 =    0.474              !
 ! R23   R(17,22)                1.092          D2E/DX2 =    0.2704             !
 ! R24   R(18,19)                1.3935         D2E/DX2 =    0.4737             !
 ! R25   R(18,23)                1.0927         D2E/DX2 =    0.2701             !
 ! R26   R(19,24)                1.0931         D2E/DX2 =    0.2702             !
 ! R27   R(25,26)                1.4406         D2E/DX2 =    0.5185             !
 ! R28   R(25,27)                1.0115         D2E/DX2 =    0.2873             !
 ! R29   R(26,28)                1.1016         D2E/DX2 =    0.263              !
 ! R30   R(26,29)                1.0979         D2E/DX2 =    0.2673             !
 ! R31   R(26,30)                1.1005         D2E/DX2 =    0.2647             !
 ! A1    A(2,1,4)              118.0286         D2E/DX2 =    0.0511             !
 ! A2    A(2,1,14)             122.2884         D2E/DX2 =    0.1158             !
 ! A3    A(4,1,14)             118.9998         D2E/DX2 =    0.1159             !
 ! A4    A(1,2,3)              121.939          D2E/DX2 =    0.0657             !
 ! A5    A(1,2,25)             117.0502         D2E/DX2 =    0.1365             !
 ! A6    A(3,2,25)             120.9937         D2E/DX2 =    0.1387             !
 ! A7    A(2,3,11)             106.3391         D2E/DX2 =    0.0513             !
 ! A8    A(1,4,9)              107.6456         D2E/DX2 =    0.0378             !
 ! A9    A(1,4,12)             118.3834         D2E/DX2 =    0.0255             !
 ! A10   A(1,4,13)             122.5015         D2E/DX2 =    0.0251             !
 ! A11   A(9,4,12)              98.5134         D2E/DX2 =    0.0266             !
 ! A12   A(9,4,13)              95.4335         D2E/DX2 =    0.0348             !
 ! A13   A(12,4,13)            108.6944         D2E/DX2 =    0.0163             !
 ! A14   A(6,5,7)              108.8706         D2E/DX2 =    0.046              !
 ! A15   A(6,5,8)              108.3184         D2E/DX2 =    0.0447             !
 ! A16   A(6,5,9)              112.8574         D2E/DX2 =    0.1074             !
 ! A17   A(7,5,8)              108.374          D2E/DX2 =    0.0419             !
 ! A18   A(7,5,9)              110.1779         D2E/DX2 =    0.1087             !
 ! A19   A(8,5,9)              108.1302         D2E/DX2 =    0.1149             !
 ! A20   A(4,9,5)              110.7754         D2E/DX2 =    0.0359             !
 ! A21   A(4,9,10)             114.533          D2E/DX2 =    0.0167             !
 ! A22   A(4,9,11)              92.4973         D2E/DX2 =    0.0171             !
 ! A23   A(5,9,10)             114.3065         D2E/DX2 =    0.032              !
 ! A24   A(5,9,11)             112.363          D2E/DX2 =    0.0234             !
 ! A25   A(10,9,11)            110.4445         D2E/DX2 =    0.0139             !
 ! A26   A(3,11,9)             140.0279         D2E/DX2 =    0.0293             !
 ! A27   A(1,14,15)            121.8876         D2E/DX2 =    0.1197             !
 ! A28   A(1,14,19)            120.8907         D2E/DX2 =    0.119              !
 ! A29   A(15,14,19)           117.2131         D2E/DX2 =    0.0804             !
 ! A30   A(14,15,16)           121.3254         D2E/DX2 =    0.0774             !
 ! A31   A(14,15,20)           119.3284         D2E/DX2 =    0.0794             !
 ! A32   A(16,15,20)           119.3447         D2E/DX2 =    0.0791             !
 ! A33   A(15,16,17)           120.5206         D2E/DX2 =    0.0765             !
 ! A34   A(15,16,21)           119.4524         D2E/DX2 =    0.0767             !
 ! A35   A(17,16,21)           120.021          D2E/DX2 =    0.0764             !
 ! A36   A(16,17,18)           119.0629         D2E/DX2 =    0.0757             !
 ! A37   A(16,17,22)           120.4697         D2E/DX2 =    0.0752             !
 ! A38   A(18,17,22)           120.4661         D2E/DX2 =    0.0752             !
 ! A39   A(17,18,19)           120.4013         D2E/DX2 =    0.0764             !
 ! A40   A(17,18,23)           120.0445         D2E/DX2 =    0.0763             !
 ! A41   A(19,18,23)           119.5436         D2E/DX2 =    0.0766             !
 ! A42   A(14,19,18)           121.4588         D2E/DX2 =    0.0775             !
 ! A43   A(14,19,24)           119.1375         D2E/DX2 =    0.0789             !
 ! A44   A(18,19,24)           119.3914         D2E/DX2 =    0.0786             !
 ! A45   A(2,25,26)            122.762          D2E/DX2 =    0.1215             !
 ! A46   A(2,25,27)            117.7953         D2E/DX2 =    0.1045             !
 ! A47   A(26,25,27)           118.8929         D2E/DX2 =    0.0963             !
 ! A48   A(25,26,28)           112.5194         D2E/DX2 =    0.1105             !
 ! A49   A(25,26,29)           108.6889         D2E/DX2 =    0.1229             !
 ! A50   A(25,26,30)           110.103          D2E/DX2 =    0.1117             !
 ! A51   A(28,26,29)           107.7949         D2E/DX2 =    0.0474             !
 ! A52   A(28,26,30)           108.5922         D2E/DX2 =    0.0479             !
 ! A53   A(29,26,30)           109.066          D2E/DX2 =    0.0461             !
 ! D1    D(4,1,2,3)             23.8            D2E/DX2 =    0.0065             !
 ! D2    D(4,1,2,25)          -157.6862         D2E/DX2 =    0.0067             !
 ! D3    D(14,1,2,3)          -146.6261         D2E/DX2 =    0.0073             !
 ! D4    D(14,1,2,25)           31.8877         D2E/DX2 =    0.0082             !
 ! D5    D(2,1,4,9)            -62.3764         D2E/DX2 =    0.0105             !
 ! D6    D(2,1,4,12)          -172.7691         D2E/DX2 =    0.0155             !
 ! D7    D(2,1,4,13)            46.3154         D2E/DX2 =    0.0191             !
 ! D8    D(14,1,4,9)           108.3728         D2E/DX2 =    0.0085             !
 ! D9    D(14,1,4,12)           -2.0199         D2E/DX2 =    0.0134             !
 ! D10   D(14,1,4,13)         -142.9354         D2E/DX2 =    0.0194             !
 ! D11   D(2,1,14,15)           34.0764         D2E/DX2 =    0.0058             !
 ! D12   D(2,1,14,19)         -147.023          D2E/DX2 =    0.0049             !
 ! D13   D(4,1,14,15)         -136.2603         D2E/DX2 =    0.0064             !
 ! D14   D(4,1,14,19)           42.6402         D2E/DX2 =    0.0054             !
 ! D15   D(1,2,3,11)            15.569          D2E/DX2 =    0.0082             !
 ! D16   D(25,2,3,11)         -162.8869         D2E/DX2 =    0.0091             !
 ! D17   D(1,2,25,26)         -179.0465         D2E/DX2 =    0.0084             !
 ! D18   D(1,2,25,27)            9.5606         D2E/DX2 =    0.0065             !
 ! D19   D(3,2,25,26)           -0.5178         D2E/DX2 =    0.0073             !
 ! D20   D(3,2,25,27)         -171.9107         D2E/DX2 =    0.0088             !
 ! D21   D(2,3,11,9)            -9.2453         D2E/DX2 =    0.0102             !
 ! D22   D(1,4,9,5)            -59.6093         D2E/DX2 =    0.0152             !
 ! D23   D(1,4,9,10)           169.3127         D2E/DX2 =    0.0128             !
 ! D24   D(1,4,9,11)            55.4695         D2E/DX2 =    0.0127             !
 ! D25   D(12,4,9,5)            63.8959         D2E/DX2 =    0.0135             !
 ! D26   D(12,4,9,10)          -67.1821         D2E/DX2 =    0.0116             !
 ! D27   D(12,4,9,11)          178.9748         D2E/DX2 =    0.014              !
 ! D28   D(13,4,9,5)           173.7601         D2E/DX2 =    0.0139             !
 ! D29   D(13,4,9,10)           42.6821         D2E/DX2 =    0.012              !
 ! D30   D(13,4,9,11)          -71.161          D2E/DX2 =    0.0146             !
 ! D31   D(6,5,9,4)            159.603          D2E/DX2 =    0.0096             !
 ! D32   D(6,5,9,10)           -69.2013         D2E/DX2 =    0.0095             !
 ! D33   D(6,5,9,11)            57.6873         D2E/DX2 =    0.0107             !
 ! D34   D(7,5,9,4)            -78.4688         D2E/DX2 =    0.0094             !
 ! D35   D(7,5,9,10)            52.7269         D2E/DX2 =    0.0092             !
 ! D36   D(7,5,9,11)           179.6155         D2E/DX2 =    0.0112             !
 ! D37   D(8,5,9,4)             39.8062         D2E/DX2 =    0.0096             !
 ! D38   D(8,5,9,10)           171.0018         D2E/DX2 =    0.0101             !
 ! D39   D(8,5,9,11)           -62.1095         D2E/DX2 =    0.0108             !
 ! D40   D(4,9,11,3)           -23.1808         D2E/DX2 =    0.0109             !
 ! D41   D(5,9,11,3)            90.5137         D2E/DX2 =    0.0183             !
 ! D42   D(10,9,11,3)         -140.5556         D2E/DX2 =    0.0125             !
 ! D43   D(1,14,15,16)         178.6251         D2E/DX2 =    0.0069             !
 ! D44   D(1,14,15,20)          -0.9235         D2E/DX2 =    0.0073             !
 ! D45   D(19,14,15,16)         -0.314          D2E/DX2 =    0.0067             !
 ! D46   D(19,14,15,20)       -179.8626         D2E/DX2 =    0.0073             !
 ! D47   D(1,14,19,18)        -177.5987         D2E/DX2 =    0.0068             !
 ! D48   D(1,14,19,24)           3.6824         D2E/DX2 =    0.0072             !
 ! D49   D(15,14,19,18)          1.3516         D2E/DX2 =    0.0067             !
 ! D50   D(15,14,19,24)       -177.3673         D2E/DX2 =    0.0069             !
 ! D51   D(14,15,16,17)         -0.7418         D2E/DX2 =    0.0083             !
 ! D52   D(14,15,16,21)       -179.8494         D2E/DX2 =    0.0081             !
 ! D53   D(20,15,16,17)        178.8068         D2E/DX2 =    0.0082             !
 ! D54   D(20,15,16,21)         -0.3008         D2E/DX2 =    0.0089             !
 ! D55   D(15,16,17,18)          0.7745         D2E/DX2 =    0.0084             !
 ! D56   D(15,16,17,22)       -179.638          D2E/DX2 =    0.0081             !
 ! D57   D(21,16,17,18)        179.8771         D2E/DX2 =    0.008              !
 ! D58   D(21,16,17,22)         -0.5355         D2E/DX2 =    0.0088             !
 ! D59   D(16,17,18,19)          0.252          D2E/DX2 =    0.0085             !
 ! D60   D(16,17,18,23)        179.0593         D2E/DX2 =    0.008              !
 ! D61   D(22,17,18,19)       -179.3355         D2E/DX2 =    0.0081             !
 ! D62   D(22,17,18,23)         -0.5282         D2E/DX2 =    0.0088             !
 ! D63   D(17,18,19,14)         -1.3446         D2E/DX2 =    0.0083             !
 ! D64   D(17,18,19,24)        177.3711         D2E/DX2 =    0.008              !
 ! D65   D(23,18,19,14)        179.8423         D2E/DX2 =    0.0081             !
 ! D66   D(23,18,19,24)         -1.4421         D2E/DX2 =    0.0087             !
 ! D67   D(2,25,26,28)         -92.3641         D2E/DX2 =    0.0119             !
 ! D68   D(2,25,26,29)          26.9436         D2E/DX2 =    0.0107             !
 ! D69   D(2,25,26,30)         146.3512         D2E/DX2 =    0.012              !
 ! D70   D(27,25,26,28)         78.9387         D2E/DX2 =    0.0119             !
 ! D71   D(27,25,26,29)       -161.7536         D2E/DX2 =    0.0121             !
 ! D72   D(27,25,26,30)        -42.346          D2E/DX2 =    0.0111             !
 --------------------------------------------------------------------------------
 Trust Radius=1.00D-01 FncErr=1.00D-07 GrdErr=1.00D-06 EigMax=2.50D+02 EigMin=1.00D-04
 Number of steps in this run=     50 maximum allowed number of steps=    180.
 Search for a saddle point of order  1.
 GradGradGradGradGradGradGradGradGradGradGradGradGradGradGradGradGradGrad

                          Input orientation:                          
 ---------------------------------------------------------------------
 Center     Atomic      Atomic             Coordinates (Angstroms)
 Number     Number       Type             X           Y           Z
 ---------------------------------------------------------------------
      1          6           0        0.102860    0.102460   -0.109540
      2          6           0       -0.337730    1.502230    0.046390
      3          8           0       -1.351350    1.801500    0.689260
      4          6           0       -0.843630   -0.894320    0.022780
      5          6           0       -0.499120   -0.995840    2.852530
      6          1           0       -0.757410   -0.610600    3.851460
      7          1           0       -0.249380   -2.062690    2.936670
      8          1           0        0.392140   -0.458000    2.494050
      9          7           0       -1.559620   -0.805880    1.884870
     10          1           0       -2.384500   -1.380660    2.048580
     11          1           0       -1.825020    0.183330    1.783930
     12          1           0       -0.506580   -1.932410    0.028400
     13         35           0       -2.577510   -0.807910   -0.845110
     14          6           0        1.534720   -0.272490   -0.192470
     15          6           0        2.529350    0.425070    0.521300
     16          6           0        3.867590    0.045180    0.456980
     17          6           0        4.256200   -1.053740   -0.310140
     18          6           0        3.287610   -1.757210   -1.025170
     19          6           0        1.951660   -1.363920   -0.977540
     20          1           0        2.243960    1.276150    1.143090
     21          1           0        4.613500    0.606610    1.025230
     22          1           0        5.305050   -1.354470   -0.355290
     23          1           0        3.576270   -2.610860   -1.643250
     24          1           0        1.212730   -1.900460   -1.578360
     25          7           0        0.438740    2.462260   -0.523940
     26          6           0        0.135340    3.867440   -0.430750
     27          1           0        1.182220    2.162660   -1.140880
     28          1           0       -0.469070    4.225730   -1.279150
     29          1           0       -0.439020    4.043140    0.488290
     30          1           0        1.065960    4.453500   -0.390650
 ---------------------------------------------------------------------
                    Distance matrix (angstroms):
                    1          2          3          4          5
     1  C    0.000000
     2  C    1.475734   0.000000
     3  O    2.374773   1.237041   0.000000
     4  C    1.380914   2.449478   2.823016   0.000000
     5  C    3.215976   3.760428   3.637464   2.852451   0.000000
     6  H    4.115585   4.372498   4.021256   3.840146   1.101356
     7  H    3.753844   4.590226   4.604037   3.195149   1.098917
     8  H    2.678895   3.219666   3.376739   2.797263   1.100965
     9  N    2.750744   3.193806   2.875985   1.996958   1.448141
    10  H    3.611660   4.063138   3.611273   2.591269   2.085445
    11  H    2.703422   2.640184   2.010259   2.286068   2.071318
    12  H    2.128648   3.438835   3.884901   1.091451   2.975387
    13  Br   2.924760   3.338882   3.266004   1.940886   4.245888
    14  C    1.482460   2.590898   3.661732   2.467702   3.732528
    15  C    2.527823   3.099348   4.120995   3.655996   4.077407
    16  C    3.807547   4.469485   5.511438   4.823565   5.088275
    17  C    4.315932   5.269183   6.371484   5.113171   5.711296
    18  C    3.799919   4.991521   6.092917   4.348554   5.473168
    19  C    2.514310   3.808485   4.869084   3.005796   4.561934
    20  H    2.744256   2.814069   3.661722   3.936908   3.950774
    21  H    4.678434   5.125909   6.092625   5.747866   5.660897
    22  H    5.407940   6.337432   7.440356   6.177454   6.641319
    23  H    4.666792   5.923832   7.013627   5.025702   6.279262
    24  H    2.720465   4.077013   5.041936   2.793668   4.835448
    25  N    2.419338   1.360088   2.261168   3.634557   4.923270
    26  C    3.778797   2.458796   2.780787   4.882461   5.902030
    27  H    2.544230   2.038633   3.146240   3.847506   5.361935
    28  H    4.323939   3.031791   3.244988   5.296247   6.658564
    29  H    4.022436   2.581038   2.428515   4.975834   5.566378
    30  H    4.465214   3.297172   3.747359   5.693561   6.531692
                    6          7          8          9         10
     6  H    0.000000
     7  H    1.789833   0.000000
     8  H    1.785305   1.783954   0.000000
     9  N    2.132874   2.098233   2.074003   0.000000
    10  H    2.547703   2.410935   2.959641   1.018627   0.000000
    11  H    2.458617   2.975913   2.414824   1.029156   1.681999
    12  H    4.052886   2.922526   3.010152   2.413388   2.812852
    13  Br   5.040780   4.614816   4.482326   2.913571   2.956136
    14  C    4.660638   4.022356   2.925285   3.764942   4.648724
    15  C    4.792220   4.443456   3.039609   4.482660   5.453363
    16  C    5.774354   5.247992   4.059753   5.676071   6.607181
    17  C    6.530817   5.644467   4.811377   6.221195   7.054738
    18  C    6.438821   5.319755   4.738840   5.733149   6.462396
    19  C    5.588004   4.544656   3.912126   4.564415   5.287718
    20  H    4.461313   4.536687   2.874301   4.399126   5.413058
    21  H    6.189980   5.867399   4.594639   6.390737   7.346325
    22  H    7.416435   6.495404   5.749703   7.241751   8.056578
    23  H    7.278301   5.992642   5.647189   6.487137   7.118552
    24  H    5.918457   4.748640   4.397565   4.569244   5.134681
    25  N    5.478811   5.737988   4.199804   4.525102   5.418171
    26  C    6.259965   6.830371   5.227794   5.484059   6.327656
    27  H    6.031301   6.043962   4.550253   5.048275   5.953928
    28  H    7.056655   7.574010   6.075858   6.042965   6.795165
    29  H    5.750616   6.581162   4.997415   5.169059   5.969674
    30  H    6.853122   7.433835   5.735709   6.303391   7.203675
                   11         12         13         14         15
    11  H    0.000000
    12  H    3.049020   0.000000
    13  Br   2.908720   2.513219   0.000000
    14  C    3.924510   2.640270   4.197982   0.000000
    15  C    4.540177   3.875246   5.428382   1.409023   0.000000
    16  C    5.846853   4.819534   6.630423   2.442331   1.392602
    17  C    6.549558   4.854971   6.859025   2.833840   2.420781
    18  C    6.147823   3.941647   5.944176   2.443441   2.780085
    19  C    4.927780   2.716255   4.565092   1.407620   2.404315
    20  H    4.261635   4.370682   5.616299   2.164492   1.091974
    21  H    6.496871   5.801337   7.563707   3.425565   2.151879
    22  H    7.601249   5.852886   7.916654   3.925886   3.411698
    23  H    6.980472   4.463673   6.461940   3.426465   3.872750
    24  H    4.987494   2.353450   4.012137   2.162095   3.398551
    25  N    3.955300   4.528999   4.460373   2.964777   3.100535
    26  C    4.724456   5.853302   5.421268   4.376535   4.299720
    27  H    4.638508   4.581360   4.800764   2.636986   2.756233
    28  H    5.249958   6.295537   5.474618   5.042820   5.164994
    29  H    4.300908   5.993602   5.466606   4.794137   4.680036
    30  H    5.596509   6.590018   6.415905   4.753314   4.381942
                   16         17         18         19         20
    16  C    0.000000
    17  C    1.395391   0.000000
    18  C    2.404528   1.394383   0.000000
    19  C    2.777445   2.419202   1.393452   0.000000
    20  H    2.149932   3.404317   3.871928   3.398894   0.000000
    21  H    1.092929   2.160472   3.398495   3.870332   2.465136
    22  H    2.164508   1.092046   2.163563   3.410646   4.305296
    23  H    3.398585   2.159655   1.092733   2.153459   4.964634
    24  H    3.869936   3.404119   2.152131   1.093104   4.308199
    25  N    4.308305   5.194321   5.115781   4.139364   2.728491
    26  C    5.415480   6.419817   6.475093   5.564632   3.692971
    27  H    3.774664   4.526004   4.451004   3.613237   2.670152
    28  H    6.268793   7.151221   7.069139   6.098778   4.682713
    29  H    5.876356   6.975727   7.058498   6.091002   3.909396
    30  H    5.291587   6.365046   6.626557   5.913652   3.719623
                   21         22         23         24         25
    21  H    0.000000
    22  H    2.495979   0.000000
    23  H    4.306825   2.495203   0.000000
    24  H    4.962793   4.305936   2.468846   0.000000
    25  N    4.824105   6.186828   6.069061   4.554579   0.000000
    26  C    5.727723   7.348465   7.434953   5.978833   1.440579
    27  H    4.345918   5.475864   5.363799   4.086718   1.011503
    28  H    6.651369   8.082859   7.952126   6.359889   2.122331
    29  H    6.134004   7.927179   8.058643   6.505821   2.072258
    30  H    5.421099   7.190525   7.601042   6.465679   2.091939
                   26         27         28         29         30
    26  C    0.000000
    27  H    2.122856   0.000000
    28  H    1.101574   2.646155   0.000000
    29  H    1.097905   2.969650   1.777101   0.000000
    30  H    1.100513   2.413361   1.788191   1.790502   0.000000
 Stoichiometry    C11H15BrN2O
 Framework group  C1[X(C11H15BrN2O)]
 Deg. of freedom    84
 Full point group                 C1      NOp   1
 Largest Abelian subgroup         C1      NOp   1
 Largest concise Abelian subgroup C1      NOp   1
                         Standard orientation:                         
 ---------------------------------------------------------------------
 Center     Atomic      Atomic             Coordinates (Angstroms)
 Number     Number       Type             X           Y           Z
 ---------------------------------------------------------------------
      1          6           0        0.102859    0.102461   -0.109541
      2          6           0       -0.337733    1.502230    0.046389
      3          8           0       -1.351353    1.801499    0.689259
      4          6           0       -0.843630   -0.894321    0.022779
      5          6           0       -0.499120   -0.995840    2.852529
      6          1           0       -0.757410   -0.610601    3.851459
      7          1           0       -0.249378   -2.062690    2.936669
      8          1           0        0.392140   -0.457999    2.494049
      9          7           0       -1.559620   -0.805882    1.884869
     10          1           0       -2.384499   -1.380663    2.048579
     11          1           0       -1.825021    0.183328    1.783929
     12          1           0       -0.506578   -1.932410    0.028399
     13         35           0       -2.577510   -0.807913   -0.845111
     14          6           0        1.534719   -0.272487   -0.192471
     15          6           0        2.529348    0.425074    0.521299
     16          6           0        3.867589    0.045186    0.456979
     17          6           0        4.256200   -1.053734   -0.310141
     18          6           0        3.287611   -1.757205   -1.025171
     19          6           0        1.951661   -1.363917   -0.977541
     20          1           0        2.243957    1.276153    1.143089
     21          1           0        4.613498    0.606617    1.025229
     22          1           0        5.305051   -1.354462   -0.355291
     23          1           0        3.576273   -2.610855   -1.643251
     24          1           0        1.212732   -1.900458   -1.578361
     25          7           0        0.438736    2.462261   -0.523941
     26          6           0        0.135334    3.867441   -0.430751
     27          1           0        1.182216    2.162662   -1.140881
     28          1           0       -0.469077    4.225730   -1.279151
     29          1           0       -0.439026    4.043140    0.488289
     30          1           0        1.065953    4.453502   -0.390651
 ---------------------------------------------------------------------
 Rotational constants (GHZ):           0.5743896           0.3054021           0.2598180
 Standard basis: def2SVP (5D, 7F)
 There are   320 symmetry adapted cartesian basis functions of A   symmetry.
 There are   303 symmetry adapted basis functions of A   symmetry.
   303 basis functions,   535 primitive gaussians,   320 cartesian basis functions
    69 alpha electrons       69 beta electrons
       nuclear repulsion energy      1351.8863117076 Hartrees.
 NAtoms=   30 NActive=   30 NUniq=   30 SFac= 1.00D+00 NAtFMM=   60 NAOKFM=F Big=F
 Integral buffers will be    131072 words long.
 Raffenetti 2 integral format.
 Two-electron integral symmetry is turned on.
 Nuclear repulsion after empirical dispersion term =     1351.8640956623 Hartrees.
 ------------------------------------------------------------------------------
 Polarizable Continuum Model (PCM)
 =================================
 Model                : PCM.
 Atomic radii         : UFF (Universal Force Field).
 Polarization charges : Total charges.
 Charge compensation  : None.
 Solution method      : On-the-fly selection.
 Cavity type          : Scaled VdW (van der Waals Surface) (Alpha=1.100).
 Cavity algorithm     : GePol (No added spheres)
                        Default sphere list used, NSphG=   30.
                        Lebedev-Laikov grids with approx.  5.0 points / Ang**2.
                        Smoothing algorithm: York/Karplus (Gamma=1.0000).
                        Polarization charges: spherical gaussians, with
                                              point-specific exponents (IZeta= 3).
                        Self-potential: point-specific (ISelfS= 7).
                        Self-field    : sphere-specific E.n sum rule (ISelfD= 2).
 1st derivatives      : Analytical E(r).r(x)/FMM algorithm (CHGder, D1EAlg=3).
                        Cavity 1st derivative terms included.
 Solvent              : Toluene, Eps=   2.374100 Eps(inf)=   2.238315
 ------------------------------------------------------------------------------
 One-electron integrals computed using PRISM.
   1 Symmetry operations used in ECPInt.
 ECPInt:  NShTT=   10011 NPrTT=   37668 LenC2=    9552 LenP2D=   25796.
 LDataN:  DoStor=T MaxTD1= 4 Len=   56
 NBasis=   303 RedAO= T EigKep=  2.90D-04  NBF=   303
 NBsUse=   303 1.00D-06 EigRej= -1.00D+00 NBFU=   303
 ExpMin= 1.22D-01 ExpMax= 1.13D+05 ExpMxC= 1.70D+04 IAcc=3 IRadAn=         5 AccDes= 0.00D+00
 Harris functional with IExCor= 4639 and IRadAn=       5 diagonalized for initial guess.
 HarFok:  IExCor= 4639 AccDes= 0.00D+00 IRadAn=         5 IDoV= 1 UseB2=F ITyADJ=14
 ICtDFT=  3500011 ScaDFX=  1.000000  1.000000  1.000000  1.000000
 FoFCou: FMM=F IPFlag=           0 FMFlag=      100000 FMFlg1=           0
         NFxFlg=           0 DoJE=T BraDBF=F KetDBF=T FulRan=T
         wScrn=  0.000000 ICntrl=       500 IOpCl=  0 I1Cent=   200000004 NGrid=           0
         NMat0=    1 NMatS0=      1 NMatT0=    0 NMatD0=    1 NMtDS0=    0 NMtDT0=    0
 Petite list used in FoFCou.
 Requested convergence on RMS density matrix=1.00D-08 within 128 cycles.
 Requested convergence on MAX density matrix=1.00D-06.
 Requested convergence on             energy=1.00D-06.
 No special actions if energy rises.
 Inv3:  Mode=1 IEnd=    16202928.
 Iteration    1 A*A^-1 deviation from unit magnitude is 3.55D-15 for   1097.
 Iteration    1 A*A^-1 deviation from orthogonality  is 1.66D-15 for   1388     98.
 Iteration    1 A^-1*A deviation from unit magnitude is 4.00D-15 for   1097.
 Iteration    1 A^-1*A deviation from orthogonality  is 1.41D-15 for   1506    524.
 Error on total polarization charges =  0.00661
 SCF Done:  E(RwB97XD) =  -3186.16689178     A.U. after   15 cycles
            NFock= 15  Conv=0.61D-08     -V/T= 2.0030

 **********************************************************************

            Population analysis using the SCF Density.

 **********************************************************************

 Orbital symmetries:
       Occupied  (A) (A) (A) (A) (A) (A) (A) (A) (A) (A) (A) (A)
                 (A) (A) (A) (A) (A) (A) (A) (A) (A) (A) (A) (A)
                 (A) (A) (A) (A) (A) (A) (A) (A) (A) (A) (A) (A)
                 (A) (A) (A) (A) (A) (A) (A) (A) (A) (A) (A) (A)
                 (A) (A) (A) (A) (A) (A) (A) (A) (A) (A) (A) (A)
                 (A) (A) (A) (A) (A) (A) (A) (A) (A)
       Virtual   (A) (A) (A) (A) (A) (A) (A) (A) (A) (A) (A) (A)
                 (A) (A) (A) (A) (A) (A) (A) (A) (A) (A) (A) (A)
                 (A) (A) (A) (A) (A) (A) (A) (A) (A) (A) (A) (A)
                 (A) (A) (A) (A) (A) (A) (A) (A) (A) (A) (A) (A)
                 (A) (A) (A) (A) (A) (A) (A) (A) (A) (A) (A) (A)
                 (A) (A) (A) (A) (A) (A) (A) (A) (A) (A) (A) (A)
                 (A) (A) (A) (A) (A) (A) (A) (A) (A) (A) (A) (A)
                 (A) (A) (A) (A) (A) (A) (A) (A) (A) (A) (A) (A)
                 (A) (A) (A) (A) (A) (A) (A) (A) (A) (A) (A) (A)
                 (A) (A) (A) (A) (A) (A) (A) (A) (A) (A) (A) (A)
                 (A) (A) (A) (A) (A) (A) (A) (A) (A) (A) (A) (A)
                 (A) (A) (A) (A) (A) (A) (A) (A) (A) (A) (A) (A)
                 (A) (A) (A) (A) (A) (A) (A) (A) (A) (A) (A) (A)
                 (A) (A) (A) (A) (A) (A) (A) (A) (A) (A) (A) (A)
                 (A) (A) (A) (A) (A) (A) (A) (A) (A) (A) (A) (A)
                 (A) (A) (A) (A) (A) (A) (A) (A) (A) (A) (A) (A)
                 (A) (A) (A) (A) (A) (A) (A) (A) (A) (A) (A) (A)
                 (A) (A) (A) (A) (A) (A) (A) (A) (A) (A) (A) (A)
                 (A) (A) (A) (A) (A) (A) (A) (A) (A) (A) (A) (A)
                 (A) (A) (A) (A) (A) (A)
 The electronic state is 1-A.
 Alpha  occ. eigenvalues -- -483.04794 -62.63012 -56.43777 -56.43429 -56.43414
 Alpha  occ. eigenvalues --  -19.20970 -14.47852 -14.45734 -10.38745 -10.38357
 Alpha  occ. eigenvalues --  -10.33222 -10.32216 -10.31317 -10.30126 -10.30090
 Alpha  occ. eigenvalues --  -10.29761 -10.29743 -10.29698 -10.27654  -8.79963
 Alpha  occ. eigenvalues --   -6.62492  -6.61224  -6.61169  -2.72862  -2.72512
 Alpha  occ. eigenvalues --   -2.72469  -2.71458  -2.71458  -1.11387  -1.01239
 Alpha  occ. eigenvalues --   -1.00004  -0.95234  -0.91159  -0.86399  -0.83490
 Alpha  occ. eigenvalues --   -0.80866  -0.78675  -0.77147  -0.70544  -0.68861
 Alpha  occ. eigenvalues --   -0.67609  -0.65516  -0.62039  -0.61058  -0.57562
 Alpha  occ. eigenvalues --   -0.56092  -0.55326  -0.54640  -0.53134  -0.52639
 Alpha  occ. eigenvalues --   -0.52060  -0.51222  -0.50104  -0.49293  -0.47273
 Alpha  occ. eigenvalues --   -0.47079  -0.46512  -0.45424  -0.45356  -0.43291
 Alpha  occ. eigenvalues --   -0.42598  -0.42008  -0.36340  -0.35483  -0.34869
 Alpha  occ. eigenvalues --   -0.33308  -0.32802  -0.32396  -0.25603
 Alpha virt. eigenvalues --    0.03943   0.05983   0.07234   0.08670   0.13588
 Alpha virt. eigenvalues --    0.14862   0.15694   0.17378   0.17685   0.17842
 Alpha virt. eigenvalues --    0.18895   0.20081   0.20190   0.21078   0.21775
 Alpha virt. eigenvalues --    0.22498   0.22960   0.24211   0.24891   0.25322
 Alpha virt. eigenvalues --    0.26109   0.28376   0.29320   0.33195   0.34125
 Alpha virt. eigenvalues --    0.35449   0.37076   0.37586   0.39275   0.41586
 Alpha virt. eigenvalues --    0.41872   0.43170   0.44382   0.46126   0.47172
 Alpha virt. eigenvalues --    0.49388   0.49711   0.49988   0.50390   0.53104
 Alpha virt. eigenvalues --    0.53471   0.54097   0.54742   0.55906   0.57212
 Alpha virt. eigenvalues --    0.57442   0.57786   0.58957   0.59339   0.59880
 Alpha virt. eigenvalues --    0.60690   0.62809   0.63869   0.64822   0.65199
 Alpha virt. eigenvalues --    0.65851   0.66360   0.67053   0.69502   0.70035
 Alpha virt. eigenvalues --    0.70569   0.71622   0.72676   0.72930   0.73420
 Alpha virt. eigenvalues --    0.73803   0.74068   0.74694   0.75129   0.75681
 Alpha virt. eigenvalues --    0.76148   0.76528   0.77023   0.77784   0.78134
 Alpha virt. eigenvalues --    0.79100   0.80038   0.81170   0.82310   0.82685
 Alpha virt. eigenvalues --    0.83462   0.83928   0.85083   0.85941   0.86952
 Alpha virt. eigenvalues --    0.87825   0.88738   0.90256   0.92227   0.93924
 Alpha virt. eigenvalues --    0.95224   0.96716   0.98432   1.00356   1.00775
 Alpha virt. eigenvalues --    1.03336   1.05144   1.07066   1.08008   1.13361
 Alpha virt. eigenvalues --    1.14030   1.15969   1.17479   1.20457   1.21768
 Alpha virt. eigenvalues --    1.23497   1.27833   1.28011   1.29656   1.31585
 Alpha virt. eigenvalues --    1.33282   1.33512   1.35572   1.36571   1.37125
 Alpha virt. eigenvalues --    1.38794   1.40063   1.41387   1.42522   1.45461
 Alpha virt. eigenvalues --    1.48718   1.52049   1.55433   1.58181   1.59941
 Alpha virt. eigenvalues --    1.61652   1.61924   1.63335   1.67878   1.70284
 Alpha virt. eigenvalues --    1.70994   1.74738   1.75223   1.78158   1.78972
 Alpha virt. eigenvalues --    1.80682   1.82210   1.83021   1.84376   1.84761
 Alpha virt. eigenvalues --    1.84934   1.86058   1.86506   1.86687   1.87468
 Alpha virt. eigenvalues --    1.88298   1.89010   1.89767   1.91425   1.92753
 Alpha virt. eigenvalues --    1.93043   1.95009   1.95343   1.97285   1.99399
 Alpha virt. eigenvalues --    2.03035   2.04122   2.04222   2.05369   2.05796
 Alpha virt. eigenvalues --    2.07567   2.08281   2.09315   2.12147   2.12997
 Alpha virt. eigenvalues --    2.15596   2.16115   2.16707   2.19105   2.21771
 Alpha virt. eigenvalues --    2.23066   2.23504   2.25015   2.25850   2.27158
 Alpha virt. eigenvalues --    2.27388   2.30859   2.33469   2.36970   2.38706
 Alpha virt. eigenvalues --    2.39836   2.40165   2.40414   2.43241   2.43594
 Alpha virt. eigenvalues --    2.44773   2.48500   2.50565   2.52210   2.52572
 Alpha virt. eigenvalues --    2.57368   2.61841   2.65758   2.66261   2.67798
 Alpha virt. eigenvalues --    2.69926   2.71589   2.72023   2.73727   2.74577
 Alpha virt. eigenvalues --    2.75787   2.76754   2.81034   2.81584   2.81953
 Alpha virt. eigenvalues --    2.83565   2.87675   2.89032   2.96475   2.96906
 Alpha virt. eigenvalues --    2.97717   2.99185   3.01929   3.03814   3.06544
 Alpha virt. eigenvalues --    3.07721   3.08033   3.08807   3.17556   3.21692
 Alpha virt. eigenvalues --    3.24789   3.26425   3.26873   3.34520   3.40226
 Alpha virt. eigenvalues --    3.49242   3.55532   3.58225   3.65428   3.68517
 Alpha virt. eigenvalues --    3.70966   3.72979   3.77754   3.92897
          Condensed to atoms (all electrons):
               1          2          3          4          5          6
     1  C    5.722031   0.245579  -0.128488   0.466986  -0.002388  -0.001223
     2  C    0.245579   4.612065   0.691634  -0.046809  -0.001057   0.000131
     3  O   -0.128488   0.691634   7.821740   0.007051   0.000034   0.000006
     4  C    0.466986  -0.046809   0.007051   4.969634  -0.022161   0.002376
     5  C   -0.002388  -0.001057   0.000034  -0.022161   4.492382   0.403378
     6  H   -0.001223   0.000131   0.000006   0.002376   0.403378   0.614056
     7  H   -0.000719  -0.000069  -0.000042   0.000054   0.403827  -0.024431
     8  H    0.018986   0.000327   0.001016  -0.011105   0.401019  -0.022981
     9  N   -0.059747  -0.008192  -0.016015   0.073831   0.328497  -0.018408
    10  H    0.004319   0.000334   0.000134  -0.006229  -0.020630  -0.003956
    11  H   -0.015052   0.000378   0.055015  -0.009604  -0.017819  -0.008155
    12  H   -0.016933   0.008223   0.000322   0.390213   0.001235  -0.000062
    13  Br  -0.076353  -0.004061  -0.001925   0.254632   0.002755  -0.000220
    14  C    0.339969  -0.026220   0.002261  -0.042381  -0.000299   0.000062
    15  C   -0.120526  -0.008957  -0.000202   0.007618  -0.000339   0.000049
    16  C    0.015545  -0.000520  -0.000003  -0.000074  -0.000130  -0.000000
    17  C   -0.000853   0.000058  -0.000000   0.000077  -0.000002  -0.000001
    18  C    0.013952  -0.000170   0.000001   0.000296   0.000010   0.000000
    19  C   -0.092836   0.006556  -0.000096  -0.012995  -0.000061   0.000014
    20  H   -0.025097   0.006669  -0.000586   0.000155  -0.000066   0.000005
    21  H   -0.000301   0.000003   0.000000  -0.000001  -0.000001   0.000000
    22  H    0.000019  -0.000000   0.000000   0.000000   0.000000  -0.000000
    23  H   -0.000303   0.000001  -0.000000  -0.000011   0.000000  -0.000000
    24  H   -0.017181  -0.000079  -0.000002   0.003522   0.000005   0.000001
    25  N   -0.148493   0.381419  -0.101895   0.004942  -0.000005   0.000002
    26  C    0.010406  -0.031386  -0.002265  -0.000249   0.000001   0.000000
    27  H   -0.014905  -0.000916   0.003345  -0.000070   0.000001  -0.000000
    28  H   -0.000263  -0.002115   0.000247   0.000087   0.000000   0.000000
    29  H    0.002944  -0.008085   0.020356  -0.000089  -0.000004  -0.000000
    30  H   -0.000087   0.006589   0.000494  -0.000004  -0.000000  -0.000000
               7          8          9         10         11         12
     1  C   -0.000719   0.018986  -0.059747   0.004319  -0.015052  -0.016933
     2  C   -0.000069   0.000327  -0.008192   0.000334   0.000378   0.008223
     3  O   -0.000042   0.001016  -0.016015   0.000134   0.055015   0.000322
     4  C    0.000054  -0.011105   0.073831  -0.006229  -0.009604   0.390213
     5  C    0.403827   0.401019   0.328497  -0.020630  -0.017819   0.001235
     6  H   -0.024431  -0.022981  -0.018408  -0.003956  -0.008155  -0.000062
     7  H    0.608410  -0.017574  -0.025312  -0.007497   0.005916   0.001507
     8  H   -0.017574   0.592426  -0.030213   0.007308  -0.002280  -0.000552
     9  N   -0.025312  -0.030213   6.385051   0.342056   0.330183  -0.011351
    10  H   -0.007497   0.007308   0.342056   0.532702  -0.012540  -0.000682
    11  H    0.005916  -0.002280   0.330183  -0.012540   0.499234   0.002260
    12  H    0.001507  -0.000552  -0.011351  -0.000682   0.002260   0.582076
    13  Br   0.000035   0.000532  -0.066487   0.008486   0.003793  -0.035561
    14  C    0.000212   0.001529   0.000800  -0.000090  -0.000683  -0.011034
    15  C    0.000004   0.000849   0.000346  -0.000017  -0.000012   0.000082
    16  C    0.000004   0.000326  -0.000008   0.000000   0.000002  -0.000055
    17  C    0.000000   0.000018  -0.000001   0.000000  -0.000000  -0.000025
    18  C    0.000003  -0.000102   0.000014  -0.000001   0.000001   0.000073
    19  C   -0.000054  -0.000361   0.000386  -0.000013  -0.000057   0.007892
    20  H   -0.000013   0.000966   0.000033   0.000000  -0.000060  -0.000009
    21  H   -0.000000   0.000010   0.000000  -0.000000   0.000000   0.000001
    22  H   -0.000000  -0.000001  -0.000000  -0.000000  -0.000000  -0.000001
    23  H    0.000000   0.000000  -0.000000   0.000000  -0.000000   0.000019
    24  H   -0.000012  -0.000030   0.000143  -0.000004  -0.000009   0.001428
    25  N   -0.000003  -0.000249  -0.000104   0.000004   0.001221  -0.000099
    26  C    0.000000  -0.000015   0.000004  -0.000000  -0.000052   0.000006
    27  H    0.000000   0.000021   0.000002   0.000000  -0.000062  -0.000022
    28  H   -0.000000  -0.000002   0.000001  -0.000000  -0.000012  -0.000000
    29  H    0.000000   0.000018  -0.000001  -0.000000   0.000013  -0.000000
    30  H    0.000000   0.000003  -0.000000   0.000000   0.000002  -0.000000
              13         14         15         16         17         18
     1  C   -0.076353   0.339969  -0.120526   0.015545  -0.000853   0.013952
     2  C   -0.004061  -0.026220  -0.008957  -0.000520   0.000058  -0.000170
     3  O   -0.001925   0.002261  -0.000202  -0.000003  -0.000000   0.000001
     4  C    0.254632  -0.042381   0.007618  -0.000074   0.000077   0.000296
     5  C    0.002755  -0.000299  -0.000339  -0.000130  -0.000002   0.000010
     6  H   -0.000220   0.000062   0.000049  -0.000000  -0.000001   0.000000
     7  H    0.000035   0.000212   0.000004   0.000004   0.000000   0.000003
     8  H    0.000532   0.001529   0.000849   0.000326   0.000018  -0.000102
     9  N   -0.066487   0.000800   0.000346  -0.000008  -0.000001   0.000014
    10  H    0.008486  -0.000090  -0.000017   0.000000   0.000000  -0.000001
    11  H    0.003793  -0.000683  -0.000012   0.000002  -0.000000   0.000001
    12  H   -0.035561  -0.011034   0.000082  -0.000055  -0.000025   0.000073
    13  Br  35.013362   0.002911  -0.000116   0.000003  -0.000000  -0.000008
    14  C    0.002911   5.180553   0.307635   0.073213  -0.135332   0.069334
    15  C   -0.000116   0.307635   5.147394   0.330399   0.061242  -0.123690
    16  C    0.000003   0.073213   0.330399   5.023367   0.309358   0.067203
    17  C   -0.000000  -0.135332   0.061242   0.309358   5.087987   0.312322
    18  C   -0.000008   0.069334  -0.123690   0.067203   0.312322   5.023468
    19  C   -0.000315   0.324358   0.039886  -0.123770   0.062057   0.327473
    20  H   -0.000011  -0.065681   0.450196  -0.061569   0.013192  -0.002045
    21  H   -0.000000   0.014159  -0.062464   0.445957  -0.068319   0.012717
    22  H    0.000000  -0.001478   0.012757  -0.064529   0.447465  -0.064357
    23  H   -0.000000   0.013846  -0.001567   0.012501  -0.067272   0.444825
    24  H    0.000366  -0.063660   0.013666  -0.001950   0.012908  -0.060308
    25  N   -0.000456  -0.010843   0.003766  -0.000323   0.000023  -0.000021
    26  C   -0.000043   0.000030  -0.000354  -0.000009  -0.000000  -0.000000
    27  H    0.000034   0.006184   0.003695  -0.000288  -0.000044  -0.000024
    28  H    0.000002  -0.000016   0.000036  -0.000001   0.000000  -0.000000
    29  H    0.000007  -0.000078  -0.000090  -0.000004  -0.000000   0.000000
    30  H    0.000001   0.000035   0.000131   0.000011  -0.000001  -0.000000
              19         20         21         22         23         24
     1  C   -0.092836  -0.025097  -0.000301   0.000019  -0.000303  -0.017181
     2  C    0.006556   0.006669   0.000003  -0.000000   0.000001  -0.000079
     3  O   -0.000096  -0.000586   0.000000   0.000000  -0.000000  -0.000002
     4  C   -0.012995   0.000155  -0.000001   0.000000  -0.000011   0.003522
     5  C   -0.000061  -0.000066  -0.000001   0.000000   0.000000   0.000005
     6  H    0.000014   0.000005   0.000000  -0.000000  -0.000000   0.000001
     7  H   -0.000054  -0.000013  -0.000000  -0.000000   0.000000  -0.000012
     8  H   -0.000361   0.000966   0.000010  -0.000001   0.000000  -0.000030
     9  N    0.000386   0.000033   0.000000  -0.000000  -0.000000   0.000143
    10  H   -0.000013   0.000000  -0.000000  -0.000000   0.000000  -0.000004
    11  H   -0.000057  -0.000060   0.000000  -0.000000  -0.000000  -0.000009
    12  H    0.007892  -0.000009   0.000001  -0.000001   0.000019   0.001428
    13  Br  -0.000315  -0.000011  -0.000000   0.000000  -0.000000   0.000366
    14  C    0.324358  -0.065681   0.014159  -0.001478   0.013846  -0.063660
    15  C    0.039886   0.450196  -0.062464   0.012757  -0.001567   0.013666
    16  C   -0.123770  -0.061569   0.445957  -0.064529   0.012501  -0.001950
    17  C    0.062057   0.013192  -0.068319   0.447465  -0.067272   0.012908
    18  C    0.327473  -0.002045   0.012717  -0.064357   0.444825  -0.060308
    19  C    5.121278   0.014306  -0.001679   0.012445  -0.061505   0.445467
    20  H    0.014306   0.660689  -0.011835  -0.000202   0.000024  -0.000164
    21  H   -0.001679  -0.011835   0.659961  -0.010902  -0.000232   0.000025
    22  H    0.012445  -0.000202  -0.010902   0.656208  -0.010900  -0.000208
    23  H   -0.061505   0.000024  -0.000232  -0.010900   0.658363  -0.011798
    24  H    0.445467  -0.000164   0.000025  -0.000208  -0.011798   0.663024
    25  N   -0.000433   0.008012  -0.000016   0.000000  -0.000000  -0.000009
    26  C    0.000029  -0.000262   0.000001   0.000000   0.000000   0.000001
    27  H   -0.000609  -0.001286   0.000004  -0.000001  -0.000002  -0.000010
    28  H    0.000001   0.000078  -0.000000   0.000000  -0.000000   0.000000
    29  H    0.000000  -0.000187   0.000000  -0.000000   0.000000  -0.000000
    30  H    0.000000  -0.000211   0.000000  -0.000000   0.000000  -0.000000
              25         26         27         28         29         30
     1  C   -0.148493   0.010406  -0.014905  -0.000263   0.002944  -0.000087
     2  C    0.381419  -0.031386  -0.000916  -0.002115  -0.008085   0.006589
     3  O   -0.101895  -0.002265   0.003345   0.000247   0.020356   0.000494
     4  C    0.004942  -0.000249  -0.000070   0.000087  -0.000089  -0.000004
     5  C   -0.000005   0.000001   0.000001   0.000000  -0.000004  -0.000000
     6  H    0.000002   0.000000  -0.000000   0.000000  -0.000000  -0.000000
     7  H   -0.000003   0.000000   0.000000  -0.000000   0.000000   0.000000
     8  H   -0.000249  -0.000015   0.000021  -0.000002   0.000018   0.000003
     9  N   -0.000104   0.000004   0.000002   0.000001  -0.000001  -0.000000
    10  H    0.000004  -0.000000   0.000000  -0.000000  -0.000000   0.000000
    11  H    0.001221  -0.000052  -0.000062  -0.000012   0.000013   0.000002
    12  H   -0.000099   0.000006  -0.000022  -0.000000  -0.000000  -0.000000
    13  Br  -0.000456  -0.000043   0.000034   0.000002   0.000007   0.000001
    14  C   -0.010843   0.000030   0.006184  -0.000016  -0.000078   0.000035
    15  C    0.003766  -0.000354   0.003695   0.000036  -0.000090   0.000131
    16  C   -0.000323  -0.000009  -0.000288  -0.000001  -0.000004   0.000011
    17  C    0.000023  -0.000000  -0.000044   0.000000  -0.000000  -0.000001
    18  C   -0.000021  -0.000000  -0.000024  -0.000000   0.000000  -0.000000
    19  C   -0.000433   0.000029  -0.000609   0.000001   0.000000   0.000000
    20  H    0.008012  -0.000262  -0.001286   0.000078  -0.000187  -0.000211
    21  H   -0.000016   0.000001   0.000004  -0.000000   0.000000   0.000000
    22  H    0.000000   0.000000  -0.000001   0.000000  -0.000000  -0.000000
    23  H   -0.000000   0.000000  -0.000002  -0.000000   0.000000   0.000000
    24  H   -0.000009   0.000001  -0.000010   0.000000  -0.000000  -0.000000
    25  N    6.518606   0.316683   0.353277  -0.030280  -0.028520  -0.027058
    26  C    0.316683   4.464140  -0.024643   0.412033   0.396072   0.398213
    27  H    0.353277  -0.024643   0.523971  -0.002455   0.006108  -0.004920
    28  H   -0.030280   0.412033  -0.002455   0.629485  -0.025670  -0.030035
    29  H   -0.028520   0.396072   0.006108  -0.025670   0.596695  -0.016075
    30  H   -0.027058   0.398213  -0.004920  -0.030035  -0.016075   0.630150
 Mulliken charges:
               1
     1  C   -0.118986
     2  C    0.178671
     3  O   -0.352137
     4  C   -0.029694
     5  C    0.031817
     6  H    0.059357
     7  H    0.055754
     8  H    0.060111
     9  N   -0.225505
    10  H    0.156314
    11  H    0.168379
    12  H    0.081046
    13  Br  -0.101363
    14  C    0.020704
    15  C   -0.061414
    16  C   -0.024656
    17  C   -0.034857
    18  C   -0.020965
    19  C   -0.067365
    20  H    0.014958
    21  H    0.022910
    22  H    0.023684
    23  H    0.024010
    24  H    0.014869
    25  N   -0.239148
    26  C    0.061659
    27  H    0.153613
    28  H    0.048879
    29  H    0.056592
    30  H    0.042763
 Sum of Mulliken charges =  -0.00000
 Mulliken charges with hydrogens summed into heavy atoms:
               1
     1  C   -0.118986
     2  C    0.178671
     3  O   -0.352137
     4  C    0.051353
     5  C    0.207038
     9  N    0.099188
    13  Br  -0.101363
    14  C    0.020704
    15  C   -0.046457
    16  C   -0.001746
    17  C   -0.011173
    18  C    0.003045
    19  C   -0.052496
    25  N   -0.085536
    26  C    0.209893
 Electronic spatial extent (au):  <R**2>=           4476.0538
 Charge=             -0.0000 electrons
 Dipole moment (field-independent basis, Debye):
    X=              1.5998    Y=             -1.2073    Z=              2.2712  Tot=              3.0291
 Quadrupole moment (field-independent basis, Debye-Ang):
   XX=           -101.2866   YY=            -93.6192   ZZ=            -94.4085
   XY=              7.2118   XZ=             -5.0309   YZ=             -5.3655
 Traceless Quadrupole moment (field-independent basis, Debye-Ang):
   XX=             -4.8485   YY=              2.8189   ZZ=              2.0296
   XY=              7.2118   XZ=             -5.0309   YZ=             -5.3655
 Octapole moment (field-independent basis, Debye-Ang**2):
  XXX=            -76.5802  YYY=              4.2135  ZZZ=              6.3424  XYY=            -18.2155
  XXY=            -15.1211  XXZ=              5.3565  XZZ=            -45.2367  YZZ=            -12.1113
  YYZ=            -15.4599  XYZ=             17.0804
 Hexadecapole moment (field-independent basis, Debye-Ang**3):
 XXXX=          -2902.8249 YYYY=          -1484.8498 ZZZZ=           -790.0456 XXXY=             62.9581
 XXXZ=             58.0692 YYYX=             96.8975 YYYZ=            -11.2779 ZZZX=             29.2066
 ZZZY=             -5.8675 XXYY=           -776.7545 XXZZ=           -640.2317 YYZZ=           -385.9718
 XXYZ=             15.6430 YYXZ=             -8.0295 ZZXY=             38.1405
 N-N= 1.351864095662D+03 E-N=-1.027916134639D+04  KE= 3.176724511843D+03
   1 Symmetry operations used in ECPInt.
 ECPInt:  NShTT=   10011 NPrTT=   37668 LenC2=    9552 LenP2D=   25796.
 LDataN:  DoStor=T MaxTD1= 5 Len=  102
 D1PCM: PCM CHGder 1st derivatives, ID1Alg=3 FixD1E=F DoIter=F DoCFld=F I1PDM=0.
 Calling FoFJK, ICntrl=      2127 FMM=F ISym2X=0 I1Cent= 0 IOpClX= 0 NMat=1 NMatS=1 NMatT=0.
 ***** Axes restored to original set *****
 -------------------------------------------------------------------
 Center     Atomic                   Forces (Hartrees/Bohr)
 Number     Number              X              Y              Z
 -------------------------------------------------------------------
      1        6           0.000032254   -0.000022737   -0.000049582
      2        6           0.000093812   -0.000362290    0.000238696
      3        8           0.000018655    0.000096260   -0.000101652
      4        6           0.000046496    0.000180370   -0.000044714
      5        6           0.000130696   -0.000013438   -0.000025481
      6        1          -0.000024093    0.000031730    0.000048678
      7        1          -0.000004214    0.000040211    0.000001807
      8        1          -0.000083539   -0.000054869    0.000019949
      9        7          -0.000101851    0.000268121   -0.000013709
     10        1           0.000046659   -0.000020131    0.000011903
     11        1           0.000049676   -0.000173125    0.000018789
     12        1           0.000004481   -0.000106868    0.000015078
     13       35          -0.000031441    0.000029827   -0.000021289
     14        6          -0.000083119   -0.000162221   -0.000108757
     15        6           0.000381861   -0.000389728   -0.000331853
     16        6          -0.000149852    0.000270958    0.000265476
     17        6          -0.000116872   -0.000172821   -0.000252016
     18        6           0.000269268    0.000022842    0.000163168
     19        6          -0.000220884    0.000138499   -0.000008791
     20        1          -0.000085331    0.000280583    0.000243424
     21        1          -0.000027833   -0.000068744   -0.000052675
     22        1           0.000034630    0.000028089    0.000002215
     23        1          -0.000025035   -0.000024821    0.000012637
     24        1           0.000074011    0.000043616    0.000034769
     25        7          -0.000584009    0.000021644   -0.000329595
     26        6           0.001258624    0.000423406    0.001665228
     27        1           0.000027877    0.000001547    0.000069112
     28        1          -0.000457625    0.000161940   -0.000960549
     29        1           0.000228169   -0.000167617   -0.000429476
     30        1          -0.000701471   -0.000300234   -0.000080790
 -------------------------------------------------------------------
 Cartesian Forces:  Max     0.001665228 RMS     0.000307079

 GradGradGradGradGradGradGradGradGradGradGradGradGradGradGradGradGradGrad
 Berny optimization.
 FormGI is forming the generalized inverse of G from B-inverse, IUseBI=4.
 Internal  Forces:  Max     0.001042777 RMS     0.000135114
 Search for a saddle point.
 Step number   1 out of a maximum of   50
 All quantities printed in internal units (Hartrees-Bohrs-Radians)
 Swapping is turned off.
 Second derivative matrix not updated -- first step.
 ITU=  0
     Eigenvalues ---   -0.03844  -0.00135   0.00048   0.00100   0.00139
     Eigenvalues ---    0.00433   0.00573   0.00828   0.01123   0.01180
     Eigenvalues ---    0.01236   0.01274   0.01444   0.01625   0.01889
     Eigenvalues ---    0.02273   0.02472   0.02493   0.02684   0.02794
     Eigenvalues ---    0.02902   0.03029   0.03424   0.03608   0.03666
     Eigenvalues ---    0.03756   0.04415   0.04600   0.04676   0.04710
     Eigenvalues ---    0.05100   0.07118   0.07744   0.08873   0.09122
     Eigenvalues ---    0.10876   0.10913   0.10977   0.11062   0.11387
     Eigenvalues ---    0.11910   0.12108   0.13192   0.14375   0.14482
     Eigenvalues ---    0.14653   0.14854   0.14969   0.15200   0.15450
     Eigenvalues ---    0.15669   0.16328   0.16911   0.19166   0.19873
     Eigenvalues ---    0.21388   0.25537   0.25865   0.26042   0.26120
     Eigenvalues ---    0.26199   0.26273   0.26338   0.26752   0.26828
     Eigenvalues ---    0.27681   0.27803   0.27910   0.28012   0.28049
     Eigenvalues ---    0.28380   0.29262   0.35733   0.42469   0.52063
     Eigenvalues ---    0.52609   0.53406   0.53638   0.54281   0.55060
     Eigenvalues ---    0.58817   0.60535   0.69963   0.81966
 Eigenvectors required to have negative eigenvalues:
                          R7        D10       D7        A22       R6
   1                    0.85550  -0.17822  -0.15887  -0.14362   0.14158
                          D6        A11       D37       D9        D16
   1                    0.11305  -0.10460  -0.09469   0.09371   0.08623
 RFO step:  Lambda0=1.064017228D-07 Lambda=-1.35116234D-03.
 Linear search not attempted -- option 19 set.
 Iteration  1 RMS(Cart)=  0.06349612 RMS(Int)=  0.00149806
 Iteration  2 RMS(Cart)=  0.00280723 RMS(Int)=  0.00012334
 Iteration  3 RMS(Cart)=  0.00000442 RMS(Int)=  0.00012332
 Iteration  4 RMS(Cart)=  0.00000000 RMS(Int)=  0.00012332
 Variable       Old X    -DE/DX   Delta X   Delta X   Delta X     New X
                                 (Linear)    (Quad)   (Total)
    R1        2.78873  -0.00005   0.00000  -0.00287  -0.00303   2.78570
    R2        2.60955  -0.00007   0.00000  -0.00046  -0.00049   2.60906
    R3        2.80144   0.00006   0.00000   0.00270   0.00270   2.80414
    R4        2.33767  -0.00009   0.00000   0.00070   0.00056   2.33823
    R5        2.57019  -0.00001   0.00000   0.00085   0.00085   2.57104
    R6        3.79884  -0.00006   0.00000   0.02138   0.02143   3.82027
    R7        3.77370   0.00009   0.00000   0.00679   0.00690   3.78060
    R8        2.06254   0.00010   0.00000   0.00123   0.00123   2.06377
    R9        3.66774   0.00004   0.00000  -0.00331  -0.00331   3.66444
   R10        2.08126   0.00006   0.00000   0.00012   0.00012   2.08138
   R11        2.07665  -0.00004   0.00000   0.00018   0.00018   2.07684
   R12        2.08052  -0.00010   0.00000  -0.00082  -0.00082   2.07971
   R13        2.73659   0.00004   0.00000  -0.00025  -0.00025   2.73634
   R14        1.92493  -0.00002   0.00000   0.00019   0.00019   1.92511
   R15        1.94482  -0.00022   0.00000  -0.00145  -0.00130   1.94352
   R16        2.66267   0.00011   0.00000  -0.00083  -0.00083   2.66184
   R17        2.66002  -0.00013   0.00000  -0.00104  -0.00104   2.65898
   R18        2.63164  -0.00019   0.00000  -0.00025  -0.00025   2.63138
   R19        2.06353   0.00038   0.00000   0.00145   0.00145   2.06498
   R20        2.63691   0.00013   0.00000   0.00077   0.00077   2.63767
   R21        2.06534  -0.00008   0.00000  -0.00045  -0.00045   2.06489
   R22        2.63500  -0.00017   0.00000  -0.00059  -0.00059   2.63441
   R23        2.06367   0.00003   0.00000   0.00035   0.00035   2.06402
   R24        2.63324   0.00016   0.00000   0.00060   0.00060   2.63384
   R25        2.06497   0.00001   0.00000   0.00006   0.00006   2.06502
   R26        2.06567  -0.00009   0.00000   0.00002   0.00002   2.06569
   R27        2.72230   0.00006   0.00000   0.00037   0.00037   2.72267
   R28        1.91146  -0.00002   0.00000  -0.00046  -0.00046   1.91100
   R29        2.08167   0.00104   0.00000   0.00425   0.00425   2.08593
   R30        2.07474  -0.00050   0.00000  -0.00173  -0.00173   2.07301
   R31        2.07967  -0.00076   0.00000  -0.00303  -0.00303   2.07664
    A1        2.05999  -0.00013   0.00000   0.00678   0.00625   2.06624
    A2        2.13434   0.00006   0.00000   0.00539   0.00565   2.13998
    A3        2.07694   0.00007   0.00000  -0.01175  -0.01149   2.06545
    A4        2.12824   0.00014   0.00000   0.00038  -0.00037   2.12787
    A5        2.04291   0.00007   0.00000   0.00310   0.00347   2.04638
    A6        2.11174  -0.00021   0.00000  -0.00364  -0.00327   2.10847
    A7        1.85597  -0.00007   0.00000  -0.00941  -0.01025   1.84571
    A8        1.87877  -0.00001   0.00000   0.00239   0.00213   1.88090
    A9        2.06618  -0.00001   0.00000  -0.00395  -0.00390   2.06228
   A10        2.13806   0.00000   0.00000   0.01057   0.01060   2.14866
   A11        1.71938   0.00001   0.00000   0.00219   0.00236   1.72174
   A12        1.66563  -0.00001   0.00000  -0.00945  -0.00941   1.65622
   A13        1.89707   0.00001   0.00000  -0.00412  -0.00414   1.89293
   A14        1.90015   0.00001   0.00000  -0.00012  -0.00012   1.90003
   A15        1.89051   0.00001   0.00000   0.00122   0.00122   1.89173
   A16        1.96973  -0.00002   0.00000   0.00030   0.00030   1.97003
   A17        1.89148  -0.00000   0.00000  -0.00036  -0.00036   1.89112
   A18        1.92297   0.00001   0.00000  -0.00116  -0.00116   1.92181
   A19        1.88723  -0.00001   0.00000   0.00014   0.00014   1.88737
   A20        1.93339   0.00001   0.00000   0.00158   0.00153   1.93493
   A21        1.99898   0.00000   0.00000  -0.00117  -0.00114   1.99784
   A22        1.61438   0.00001   0.00000  -0.00207  -0.00206   1.61232
   A23        1.99503  -0.00001   0.00000  -0.00053  -0.00052   1.99450
   A24        1.96110   0.00002   0.00000   0.00256   0.00255   1.96366
   A25        1.92762  -0.00002   0.00000  -0.00049  -0.00048   1.92714
   A26        2.44395   0.00003   0.00000  -0.00641  -0.00665   2.43730
   A27        2.12734   0.00001   0.00000   0.00321   0.00321   2.13055
   A28        2.10994   0.00006   0.00000  -0.00466  -0.00466   2.10528
   A29        2.04575  -0.00007   0.00000   0.00143   0.00143   2.04718
   A30        2.11753   0.00010   0.00000  -0.00062  -0.00062   2.11690
   A31        2.08267  -0.00003   0.00000  -0.00087  -0.00087   2.08180
   A32        2.08296  -0.00007   0.00000   0.00149   0.00149   2.08444
   A33        2.10348  -0.00005   0.00000  -0.00049  -0.00049   2.10300
   A34        2.08484   0.00007   0.00000   0.00113   0.00113   2.08597
   A35        2.09476  -0.00001   0.00000  -0.00065  -0.00065   2.09411
   A36        2.07804   0.00000   0.00000   0.00084   0.00084   2.07888
   A37        2.10259  -0.00003   0.00000  -0.00065  -0.00065   2.10194
   A38        2.10253   0.00003   0.00000  -0.00019  -0.00019   2.10234
   A39        2.10140   0.00002   0.00000  -0.00068  -0.00068   2.10072
   A40        2.09517   0.00001   0.00000   0.00098   0.00098   2.09615
   A41        2.08643  -0.00003   0.00000  -0.00031  -0.00031   2.08612
   A42        2.11986  -0.00000   0.00000  -0.00047  -0.00047   2.11938
   A43        2.07934   0.00002   0.00000  -0.00071  -0.00071   2.07863
   A44        2.08377  -0.00001   0.00000   0.00117   0.00117   2.08494
   A45        2.14260   0.00019   0.00000   0.00110   0.00105   2.14365
   A46        2.05592  -0.00009   0.00000   0.00220   0.00215   2.05807
   A47        2.07507  -0.00008   0.00000  -0.00088  -0.00093   2.07414
   A48        1.96383  -0.00038   0.00000  -0.00346  -0.00346   1.96037
   A49        1.89698  -0.00006   0.00000  -0.00003  -0.00003   1.89695
   A50        1.92166   0.00025   0.00000   0.00182   0.00182   1.92348
   A51        1.88138   0.00018   0.00000   0.00139   0.00139   1.88276
   A52        1.89529  -0.00001   0.00000  -0.00079  -0.00079   1.89450
   A53        1.90356   0.00003   0.00000   0.00119   0.00119   1.90475
    D1        0.41539  -0.00002   0.00000  -0.07519  -0.07523   0.34016
    D2       -2.75214  -0.00002   0.00000  -0.08185  -0.08192  -2.83406
    D3       -2.55911  -0.00001   0.00000  -0.07705  -0.07705  -2.63616
    D4        0.55654  -0.00001   0.00000  -0.08371  -0.08375   0.47280
    D5       -1.08867   0.00004   0.00000   0.02083   0.02098  -1.06769
    D6       -3.01539   0.00003   0.00000   0.01855   0.01866  -2.99673
    D7        0.80836   0.00002   0.00000   0.01616   0.01618   0.82454
    D8        1.89146   0.00003   0.00000   0.02424   0.02433   1.91579
    D9       -0.03525   0.00002   0.00000   0.02196   0.02200  -0.01325
   D10       -2.49469   0.00001   0.00000   0.01958   0.01952  -2.47517
   D11        0.59474  -0.00001   0.00000   0.06836   0.06828   0.66303
   D12       -2.56604  -0.00001   0.00000   0.06680   0.06673  -2.49931
   D13       -2.37819   0.00002   0.00000   0.06475   0.06483  -2.31337
   D14        0.74421   0.00002   0.00000   0.06320   0.06327   0.80749
   D15        0.27173   0.00003   0.00000   0.07230   0.07215   0.34388
   D16       -2.84291   0.00002   0.00000   0.07912   0.07898  -2.76394
   D17       -3.12495   0.00007   0.00000   0.02584   0.02587  -3.09908
   D18        0.16686  -0.00004   0.00000   0.00706   0.00707   0.17394
   D19       -0.00904   0.00007   0.00000   0.01931   0.01930   0.01026
   D20       -3.00041  -0.00004   0.00000   0.00053   0.00050  -2.99990
   D21       -0.16136  -0.00001   0.00000  -0.04222  -0.04206  -0.20342
   D22       -1.04038   0.00002   0.00000   0.00762   0.00759  -1.03279
   D23        2.95506   0.00003   0.00000   0.00795   0.00792   2.96299
   D24        0.96813   0.00005   0.00000   0.00987   0.00981   0.97794
   D25        1.11519   0.00002   0.00000   0.00518   0.00518   1.12038
   D26       -1.17255   0.00003   0.00000   0.00551   0.00552  -1.16703
   D27        3.12370   0.00004   0.00000   0.00743   0.00741   3.13111
   D28        3.03269   0.00003   0.00000  -0.00053  -0.00051   3.03217
   D29        0.74494   0.00004   0.00000  -0.00020  -0.00017   0.74477
   D30       -1.24199   0.00005   0.00000   0.00172   0.00172  -1.24028
   D31        2.78560   0.00000   0.00000  -0.00052  -0.00052   2.78507
   D32       -1.20779  -0.00000   0.00000  -0.00119  -0.00118  -1.20897
   D33        1.00683  -0.00002   0.00000  -0.00007  -0.00007   1.00676
   D34       -1.36954   0.00001   0.00000  -0.00130  -0.00131  -1.37085
   D35        0.92026   0.00000   0.00000  -0.00197  -0.00197   0.91829
   D36        3.13488  -0.00001   0.00000  -0.00086  -0.00085   3.13403
   D37        0.69475   0.00000   0.00000  -0.00232  -0.00232   0.69243
   D38        2.98455   0.00000   0.00000  -0.00299  -0.00298   2.98156
   D39       -1.08402  -0.00002   0.00000  -0.00187  -0.00187  -1.08588
   D40       -0.40458   0.00001   0.00000   0.00204   0.00213  -0.40245
   D41        1.57976   0.00003   0.00000   0.00340   0.00344   1.58320
   D42       -2.45316   0.00001   0.00000   0.00436   0.00440  -2.44875
   D43        3.11760   0.00000   0.00000  -0.00349  -0.00349   3.11411
   D44       -0.01612   0.00002   0.00000  -0.00217  -0.00218  -0.01829
   D45       -0.00548  -0.00000   0.00000  -0.00192  -0.00192  -0.00740
   D46       -3.13920   0.00002   0.00000  -0.00061  -0.00061  -3.13980
   D47       -3.09968   0.00001   0.00000   0.00237   0.00237  -3.09731
   D48        0.06427  -0.00000   0.00000   0.00305   0.00305   0.06732
   D49        0.02359   0.00001   0.00000   0.00091   0.00091   0.02450
   D50       -3.09564   0.00000   0.00000   0.00159   0.00159  -3.09405
   D51       -0.01295   0.00001   0.00000   0.00224   0.00224  -0.01070
   D52       -3.13896   0.00000   0.00000   0.00234   0.00234  -3.13663
   D53        3.12077  -0.00001   0.00000   0.00092   0.00092   3.12168
   D54       -0.00525  -0.00001   0.00000   0.00101   0.00101  -0.00424
   D55        0.01352  -0.00003   0.00000  -0.00146  -0.00146   0.01205
   D56       -3.13527  -0.00001   0.00000  -0.00094  -0.00094  -3.13622
   D57        3.13945  -0.00002   0.00000  -0.00154  -0.00154   3.13790
   D58       -0.00935  -0.00000   0.00000  -0.00102  -0.00102  -0.01037
   D59        0.00440   0.00004   0.00000   0.00045   0.00046   0.00485
   D60        3.12517   0.00002   0.00000   0.00021   0.00021   3.12538
   D61       -3.12999   0.00002   0.00000  -0.00006  -0.00006  -3.13006
   D62       -0.00922   0.00000   0.00000  -0.00031  -0.00031  -0.00953
   D63       -0.02347  -0.00003   0.00000  -0.00019  -0.00019  -0.02366
   D64        3.09571  -0.00002   0.00000  -0.00089  -0.00089   3.09482
   D65        3.13884  -0.00002   0.00000   0.00004   0.00004   3.13888
   D66       -0.02517  -0.00001   0.00000  -0.00066  -0.00066  -0.02583
   D67       -1.61206  -0.00011   0.00000  -0.03866  -0.03866  -1.65071
   D68        0.47026  -0.00016   0.00000  -0.03910  -0.03909   0.43116
   D69        2.55431  -0.00002   0.00000  -0.03658  -0.03657   2.51774
   D70        1.37774   0.00000   0.00000  -0.01943  -0.01944   1.35830
   D71       -2.82313  -0.00005   0.00000  -0.01987  -0.01988  -2.84301
   D72       -0.73908   0.00010   0.00000  -0.01735  -0.01736  -0.75643
         Item               Value     Threshold  Converged?
 Maximum Force            0.001043     0.000450     NO 
 RMS     Force            0.000135     0.000300     YES
 Maximum Displacement     0.236085     0.001800     NO 
 RMS     Displacement     0.063835     0.001200     NO 
 Predicted change in Energy=-7.014505D-05
 GradGradGradGradGradGradGradGradGradGradGradGradGradGradGradGradGradGrad

                          Input orientation:                          
 ---------------------------------------------------------------------
 Center     Atomic      Atomic             Coordinates (Angstroms)
 Number     Number       Type             X           Y           Z
 ---------------------------------------------------------------------
      1          6           0        0.099413    0.083853   -0.119839
      2          6           0       -0.358456    1.479314    0.007047
      3          8           0       -1.413142    1.771847    0.584163
      4          6           0       -0.826136   -0.927878    0.041290
      5          6           0       -0.508298   -0.913285    2.880534
      6          1           0       -0.788197   -0.498388    3.861677
      7          1           0       -0.230043   -1.968894    3.007406
      8          1           0        0.371169   -0.365222    2.509943
      9          7           0       -1.563206   -0.791297    1.896150
     10          1           0       -2.372177   -1.384531    2.073460
     11          1           0       -1.857686    0.183714    1.753385
     12          1           0       -0.462700   -1.956832    0.084349
     13         35           0       -2.560278   -0.925115   -0.826465
     14          6           0        1.534790   -0.281984   -0.208043
     15          6           0        2.524168    0.385921    0.539716
     16          6           0        3.862477    0.007928    0.468911
     17          6           0        4.255373   -1.058314   -0.341651
     18          6           0        3.291796   -1.731322   -1.091324
     19          6           0        1.955391   -1.339548   -1.035389
     20          1           0        2.233223    1.211153    1.194256
     21          1           0        4.605358    0.543247    1.065177
     22          1           0        5.304688   -1.357168   -0.392588
     23          1           0        3.583657   -2.558584   -1.742929
     24          1           0        1.219151   -1.848915   -1.662606
     25          7           0        0.447762    2.448425   -0.504714
     26          6           0        0.142891    3.852805   -0.401738
     27          1           0        1.231798    2.159980   -1.074568
     28          1           0       -0.382960    4.234182   -1.294184
     29          1           0       -0.510233    4.007986    0.465862
     30          1           0        1.066365    4.432720   -0.265719
 ---------------------------------------------------------------------
                    Distance matrix (angstroms):
                    1          2          3          4          5
     1  C    0.000000
     2  C    1.474129   0.000000
     3  O    2.373344   1.237336   0.000000
     4  C    1.380653   2.452442   2.815635   0.000000
     5  C    3.219602   3.742180   3.647190   2.857017   0.000000
     6  H    4.120598   4.353636   4.035668   3.844640   1.101418
     7  H    3.755259   4.572612   4.611395   3.199513   1.099015
     8  H    2.681655   3.193611   3.385181   2.800780   1.100533
     9  N    2.755794   3.189954   2.883319   2.000609   1.448007
    10  H    3.616002   4.065310   3.619458   2.593934   2.085063
    11  H    2.710937   2.641205   2.021599   2.287139   2.072371
    12  H    2.126513   3.438596   3.880232   1.092102   2.984916
    13  Br   2.931090   3.365121   3.252598   1.939137   4.237051
    14  C    1.483888   2.594767   3.679145   2.460349   3.756602
    15  C    2.530947   3.128700   4.174347   3.633047   4.045147
    16  C    3.809599   4.493837   5.563888   4.800175   5.076242
    17  C    4.315756   5.277174   6.403046   5.097587   5.752919
    18  C    3.798678   4.983869   6.100483   4.345768   5.557478
    19  C    2.511763   3.792960   4.863202   3.010913   4.646065
    20  H    2.747871   2.863245   3.739326   3.906976   3.856515
    21  H    4.681757   5.160941   6.161426   5.719587   5.618406
    22  H    5.407941   6.346380   7.474892   6.161132   6.685893
    23  H    4.664424   5.908239   7.009706   5.028808   6.389641
    24  H    2.714689   4.043970   5.008677   2.816872   4.949708
    25  N    2.420883   1.360537   2.259729   3.649706   4.865701
    26  C    3.779729   2.460063   2.779141   4.897981   5.823484
    27  H    2.550315   2.040123   3.146067   3.874932   5.302426
    28  H    4.340161   3.046818   3.263826   5.350398   6.628755
    29  H    4.014167   2.574438   2.414448   4.964153   5.481747
    30  H    4.457457   3.290459   3.735037   5.693138   6.399862
                    6          7          8          9         10
     6  H    0.000000
     7  H    1.789889   0.000000
     8  H    1.785791   1.783449   0.000000
     9  N    2.133009   2.097367   2.073666   0.000000
    10  H    2.547933   2.408833   2.958962   1.018725   0.000000
    11  H    2.460481   2.975821   2.416921   1.028468   1.681232
    12  H    4.062168   2.932326   3.018620   2.419134   2.816060
    13  Br   5.030013   4.606304   4.476435   2.902531   2.942109
    14  C    4.691025   4.037253   2.957767   3.779498   4.656743
    15  C    4.773802   4.384099   3.013538   4.464570   5.427805
    16  C    5.778926   5.205814   4.061315   5.666905   6.586686
    17  C    6.589316   5.671358   4.868163   6.239785   7.061417
    18  C    6.534424   5.409194   4.833779   5.777517   6.497440
    19  C    5.675920   4.638576   4.003554   4.612486   5.328678
    20  H    4.377972   4.412243   2.771865   4.349176   5.359131
    21  H    6.164077   5.784825   4.565197   6.365745   7.308828
    22  H    7.480610   6.524371   5.809325   7.261302   8.063275
    23  H    7.400616   6.120271   5.763491   6.546480   7.170439
    24  H    6.030843   4.891173   4.508945   4.639484   5.203026
    25  N    5.410791   5.683934   4.124394   4.505989   5.412078
    26  C    6.162508   6.756738   5.130472   5.455156   6.315208
    27  H    5.959346   5.987244   4.468338   5.034605   5.955021
    28  H    7.010302   7.550179   6.016195   6.068496   6.846017
    29  H    5.649445   6.500850   4.907146   5.117381   5.927095
    30  H    6.692580   7.305798   5.586398   6.235276   7.150926
[...]
 Alpha virt. eigenvalues --    0.60789   0.62805   0.63859   0.64952   0.65109
 Alpha virt. eigenvalues --    0.65717   0.66396   0.67080   0.69356   0.69905
 Alpha virt. eigenvalues --    0.70427   0.71493   0.72589   0.72950   0.73469
 Alpha virt. eigenvalues --    0.73730   0.73891   0.74040   0.75067   0.75865
 Alpha virt. eigenvalues --    0.76044   0.76333   0.77005   0.77800   0.78135
 Alpha virt. eigenvalues --    0.78763   0.80265   0.81396   0.82634   0.82702
 Alpha virt. eigenvalues --    0.83626   0.83677   0.85192   0.86477   0.86941
 Alpha virt. eigenvalues --    0.87413   0.88838   0.90709   0.92134   0.93317
 Alpha virt. eigenvalues --    0.95419   0.96704   0.98422   1.00425   1.00909
 Alpha virt. eigenvalues --    1.03314   1.05027   1.07061   1.08057   1.13300
 Alpha virt. eigenvalues --    1.13907   1.15940   1.17634   1.19995   1.21670
 Alpha virt. eigenvalues --    1.23388   1.27865   1.29331   1.29743   1.30979
 Alpha virt. eigenvalues --    1.33162   1.33529   1.35546   1.36457   1.37291
 Alpha virt. eigenvalues --    1.38811   1.39978   1.41970   1.42784   1.45949
 Alpha virt. eigenvalues --    1.48876   1.52520   1.55630   1.57704   1.59920
 Alpha virt. eigenvalues --    1.61641   1.61690   1.62769   1.67611   1.70297
 Alpha virt. eigenvalues --    1.70855   1.74719   1.75088   1.78117   1.78981
 Alpha virt. eigenvalues --    1.80674   1.82142   1.83048   1.84351   1.84610
 Alpha virt. eigenvalues --    1.84850   1.85505   1.86472   1.86512   1.87364
 Alpha virt. eigenvalues --    1.88356   1.88808   1.89995   1.91364   1.92797
 Alpha virt. eigenvalues --    1.93106   1.95069   1.95444   1.97319   2.00455
 Alpha virt. eigenvalues --    2.03156   2.03684   2.04562   2.05273   2.05601
 Alpha virt. eigenvalues --    2.07508   2.08440   2.09501   2.12286   2.13007
 Alpha virt. eigenvalues --    2.15408   2.16610   2.17075   2.18917   2.21742
 Alpha virt. eigenvalues --    2.23171   2.23488   2.24825   2.25751   2.27199
 Alpha virt. eigenvalues --    2.27421   2.30794   2.33491   2.36947   2.38582
 Alpha virt. eigenvalues --    2.39668   2.39938   2.40229   2.43005   2.43556
 Alpha virt. eigenvalues --    2.44720   2.48651   2.51130   2.52231   2.52604
 Alpha virt. eigenvalues --    2.58152   2.61868   2.65191   2.66342   2.68169
 Alpha virt. eigenvalues --    2.69881   2.71950   2.72814   2.73969   2.74683
 Alpha virt. eigenvalues --    2.75106   2.77045   2.81014   2.81356   2.81942
 Alpha virt. eigenvalues --    2.83604   2.87315   2.89837   2.96436   2.96750
 Alpha virt. eigenvalues --    2.97205   2.97715   3.02252   3.03000   3.06494
 Alpha virt. eigenvalues --    3.07985   3.08572   3.08795   3.17751   3.21682
 Alpha virt. eigenvalues --    3.24907   3.26322   3.26876   3.34476   3.40288
 Alpha virt. eigenvalues --    3.49240   3.55549   3.58229   3.65174   3.68527
 Alpha virt. eigenvalues --    3.70949   3.72929   3.77860   3.92917
          Condensed to atoms (all electrons):
               1          2          3          4          5          6
     1  C    5.728377   0.241808  -0.129194   0.464791  -0.002461  -0.001230
     2  C    0.241808   4.612088   0.689733  -0.045777  -0.001029   0.000132
     3  O   -0.129194   0.689733   7.821731   0.007426   0.000063   0.000006
     4  C    0.464791  -0.045777   0.007426   4.968774  -0.022246   0.002387
     5  C   -0.002461  -0.001029   0.000063  -0.022246   4.492238   0.403390
     6  H   -0.001230   0.000132   0.000006   0.002387   0.403390   0.613883
     7  H   -0.000713  -0.000070  -0.000042   0.000062   0.403821  -0.024400
     8  H    0.019163   0.000383   0.001044  -0.011220   0.400972  -0.022951
     9  N   -0.060262  -0.008081  -0.016168   0.074422   0.328488  -0.018402
    10  H    0.004348   0.000331   0.000141  -0.006293  -0.020637  -0.003931
    11  H   -0.015150   0.000519   0.054999  -0.009609  -0.017752  -0.008178
    12  H   -0.017166   0.008183   0.000328   0.390463   0.001215  -0.000063
    13  Br  -0.076505  -0.003948  -0.001985   0.254806   0.002758  -0.000221
    14  C    0.340921  -0.025886   0.002224  -0.041415  -0.000325   0.000064
    15  C   -0.121334  -0.008635  -0.000222   0.007702  -0.000334   0.000049
    16  C    0.015543  -0.000529  -0.000003  -0.000075  -0.000130  -0.000000
    17  C   -0.000851   0.000058  -0.000000   0.000078  -0.000002  -0.000001
    18  C    0.013952  -0.000169   0.000001   0.000290   0.000010   0.000000
    19  C   -0.092820   0.006494  -0.000098  -0.012801  -0.000061   0.000014
    20  H   -0.024681   0.006811  -0.000565   0.000138  -0.000088   0.000004
    21  H   -0.000301   0.000003   0.000000  -0.000001  -0.000001   0.000000
    22  H    0.000019  -0.000000   0.000000   0.000000   0.000000  -0.000000
    23  H   -0.000303   0.000001  -0.000000  -0.000011   0.000000  -0.000000
    24  H   -0.017146  -0.000080  -0.000002   0.003538   0.000006   0.000001
    25  N   -0.147022   0.386797  -0.099399   0.004915  -0.000005   0.000002
    26  C    0.009426  -0.032839  -0.008632  -0.000264   0.000001   0.000000
    27  H   -0.015612  -0.001388   0.003350   0.000024   0.000001  -0.000000
    28  H   -0.000057   0.004981   0.000373  -0.000011  -0.000001  -0.000000
    29  H   -0.000346   0.000739   0.000148   0.000059   0.000000   0.000000
    30  H    0.003613  -0.009180   0.026703  -0.000044  -0.000004  -0.000000
               7          8          9         10         11         12
     1  C   -0.000713   0.019163  -0.060262   0.004348  -0.015150  -0.017166
     2  C   -0.000070   0.000383  -0.008081   0.000331   0.000519   0.008183
     3  O   -0.000042   0.001044  -0.016168   0.000141   0.054999   0.000328
     4  C    0.000062  -0.011220   0.074422  -0.006293  -0.009609   0.390463
     5  C    0.403821   0.400972   0.328488  -0.020637  -0.017752   0.001215
     6  H   -0.024400  -0.022951  -0.018402  -0.003931  -0.008178  -0.000063
     7  H    0.608321  -0.017559  -0.025257  -0.007522   0.005912   0.001500
     8  H   -0.017559   0.592650  -0.030222   0.007317  -0.002282  -0.000546
     9  N   -0.025257  -0.030222   6.384504   0.342029   0.330407  -0.011339
    10  H   -0.007522   0.007317   0.342029   0.532640  -0.012473  -0.000694
    11  H    0.005912  -0.002282   0.330407  -0.012473   0.498574   0.002271
    12  H    0.001500  -0.000546  -0.011339  -0.000694   0.002271   0.582007
    13  Br   0.000033   0.000535  -0.066604   0.008490   0.003823  -0.035547
    14  C    0.000210   0.001471   0.000833  -0.000092  -0.000666  -0.010942
    15  C    0.000004   0.000794   0.000347  -0.000017  -0.000013   0.000095
    16  C    0.000004   0.000327  -0.000009   0.000000   0.000002  -0.000056
    17  C    0.000000   0.000018  -0.000001   0.000000  -0.000000  -0.000024
    18  C    0.000003  -0.000101   0.000014  -0.000001   0.000001   0.000067
    19  C   -0.000054  -0.000355   0.000382  -0.000013  -0.000055   0.007792
    20  H   -0.000013   0.001050   0.000028   0.000000  -0.000053  -0.000009
    21  H   -0.000000   0.000010   0.000000  -0.000000   0.000000   0.000001
    22  H   -0.000000  -0.000001  -0.000000  -0.000000   0.000000  -0.000001
    23  H    0.000000   0.000000  -0.000000   0.000000  -0.000000   0.000019
    24  H   -0.000012  -0.000031   0.000142  -0.000004  -0.000009   0.001416
    25  N   -0.000003  -0.000253  -0.000101   0.000004   0.001197  -0.000098
    26  C   -0.000000  -0.000012   0.000004  -0.000000  -0.000018   0.000006
    27  H    0.000000   0.000020   0.000002   0.000000  -0.000064  -0.000022
    28  H    0.000000   0.000007  -0.000001   0.000000   0.000005  -0.000000
    29  H   -0.000000  -0.000001   0.000001  -0.000000  -0.000005  -0.000000
    30  H    0.000000   0.000006   0.000004  -0.000000  -0.000046  -0.000000
              13         14         15         16         17         18
     1  C   -0.076505   0.340921  -0.121334   0.015543  -0.000851   0.013952
     2  C   -0.003948  -0.025886  -0.008635  -0.000529   0.000058  -0.000169
     3  O   -0.001985   0.002224  -0.000222  -0.000003  -0.000000   0.000001
     4  C    0.254806  -0.041415   0.007702  -0.000075   0.000078   0.000290
     5  C    0.002758  -0.000325  -0.000334  -0.000130  -0.000002   0.000010
     6  H   -0.000221   0.000064   0.000049  -0.000000  -0.000001   0.000000
     7  H    0.000033   0.000210   0.000004   0.000004   0.000000   0.000003
     8  H    0.000535   0.001471   0.000794   0.000327   0.000018  -0.000101
     9  N   -0.066604   0.000833   0.000347  -0.000009  -0.000001   0.000014
    10  H    0.008490  -0.000092  -0.000017   0.000000   0.000000  -0.000001
    11  H    0.003823  -0.000666  -0.000013   0.000002  -0.000000   0.000001
    12  H   -0.035547  -0.010942   0.000095  -0.000056  -0.000024   0.000067
    13  Br  35.013500   0.002845  -0.000117   0.000003  -0.000000  -0.000008
    14  C    0.002845   5.180186   0.306291   0.072722  -0.135259   0.069364
    15  C   -0.000117   0.306291   5.150715   0.330934   0.061160  -0.123841
    16  C    0.000003   0.072722   0.330934   5.021693   0.309859   0.067075
    17  C   -0.000000  -0.135259   0.061160   0.309859   5.087522   0.312309
    18  C   -0.000008   0.069364  -0.123841   0.067075   0.312309   5.023874
    19  C   -0.000309   0.324828   0.040116  -0.123382   0.062054   0.327109
    20  H   -0.000011  -0.065724   0.449923  -0.061206   0.013137  -0.002021
    21  H   -0.000000   0.014156  -0.062502   0.446008  -0.068224   0.012721
    22  H    0.000000  -0.001474   0.012775  -0.064493   0.447466  -0.064334
    23  H   -0.000000   0.013847  -0.001568   0.012495  -0.067278   0.444832
    24  H    0.000358  -0.063686   0.013700  -0.001956   0.012918  -0.060394
    25  N   -0.000476  -0.010927   0.003931  -0.000302   0.000021  -0.000018
    26  C   -0.000040   0.000031  -0.000485  -0.000013  -0.000000  -0.000000
    27  H    0.000032   0.006182   0.004245  -0.000290  -0.000043  -0.000031
    28  H    0.000001   0.000069   0.000163   0.000016  -0.000001  -0.000000
    29  H    0.000000  -0.000011   0.000030  -0.000002   0.000000  -0.000000
    30  H    0.000007  -0.000116  -0.000058  -0.000003   0.000000  -0.000000
              19         20         21         22         23         24
     1  C   -0.092820  -0.024681  -0.000301   0.000019  -0.000303  -0.017146
     2  C    0.006494   0.006811   0.000003  -0.000000   0.000001  -0.000080
     3  O   -0.000098  -0.000565   0.000000   0.000000  -0.000000  -0.000002
     4  C   -0.012801   0.000138  -0.000001   0.000000  -0.000011   0.003538
     5  C   -0.000061  -0.000088  -0.000001   0.000000   0.000000   0.000006
     6  H    0.000014   0.000004   0.000000  -0.000000  -0.000000   0.000001
     7  H   -0.000054  -0.000013  -0.000000  -0.000000   0.000000  -0.000012
     8  H   -0.000355   0.001050   0.000010  -0.000001   0.000000  -0.000031
     9  N    0.000382   0.000028   0.000000  -0.000000  -0.000000   0.000142
    10  H   -0.000013   0.000000  -0.000000  -0.000000   0.000000  -0.000004
    11  H   -0.000055  -0.000053   0.000000   0.000000  -0.000000  -0.000009
    12  H    0.007792  -0.000009   0.000001  -0.000001   0.000019   0.001416
    13  Br  -0.000309  -0.000011  -0.000000   0.000000  -0.000000   0.000358
    14  C    0.324828  -0.065724   0.014156  -0.001474   0.013847  -0.063686
    15  C    0.040116   0.449923  -0.062502   0.012775  -0.001568   0.013700
    16  C   -0.123382  -0.061206   0.446008  -0.064493   0.012495  -0.001956
    17  C    0.062054   0.013137  -0.068224   0.447466  -0.067278   0.012918
    18  C    0.327109  -0.002021   0.012721  -0.064334   0.444832  -0.060394
    19  C    5.119746   0.014218  -0.001680   0.012422  -0.061453   0.445649
    20  H    0.014218   0.660051  -0.011828  -0.000204   0.000024  -0.000165
    21  H   -0.001680  -0.011828   0.659758  -0.010901  -0.000232   0.000025
    22  H    0.012422  -0.000204  -0.010901   0.655962  -0.010896  -0.000207
    23  H   -0.061453   0.000024  -0.000232  -0.010896   0.658114  -0.011785
    24  H    0.445649  -0.000165   0.000025  -0.000207  -0.011785   0.662782
    25  N   -0.000452   0.006941  -0.000015   0.000000  -0.000000  -0.000009
    26  C    0.000027  -0.000318   0.000002   0.000000   0.000000   0.000001
    27  H   -0.000625  -0.001168   0.000003  -0.000001  -0.000002  -0.000011
    28  H   -0.000001  -0.000274   0.000000  -0.000000   0.000000  -0.000000
    29  H    0.000001   0.000065  -0.000000   0.000000  -0.000000   0.000000
    30  H    0.000002  -0.000052   0.000000  -0.000000   0.000000  -0.000000
              25         26         27         28         29         30
     1  C   -0.147022   0.009426  -0.015612  -0.000057  -0.000346   0.003613
     2  C    0.386797  -0.032839  -0.001388   0.004981   0.000739  -0.009180
     3  O   -0.099399  -0.008632   0.003350   0.000373   0.000148   0.026703
     4  C    0.004915  -0.000264   0.000024  -0.000011   0.000059  -0.000044
     5  C   -0.000005   0.000001   0.000001  -0.000001   0.000000  -0.000004
     6  H    0.000002   0.000000  -0.000000  -0.000000   0.000000  -0.000000
     7  H   -0.000003  -0.000000   0.000000   0.000000  -0.000000   0.000000
     8  H   -0.000253  -0.000012   0.000020   0.000007  -0.000001   0.000006
     9  N   -0.000101   0.000004   0.000002  -0.000001   0.000001   0.000004
    10  H    0.000004  -0.000000   0.000000   0.000000  -0.000000  -0.000000
    11  H    0.001197  -0.000018  -0.000064   0.000005  -0.000005  -0.000046
    12  H   -0.000098   0.000006  -0.000022  -0.000000  -0.000000  -0.000000
    13  Br  -0.000476  -0.000040   0.000032   0.000001   0.000000   0.000007
    14  C   -0.010927   0.000031   0.006182   0.000069  -0.000011  -0.000116
    15  C    0.003931  -0.000485   0.004245   0.000163   0.000030  -0.000058
    16  C   -0.000302  -0.000013  -0.000290   0.000016  -0.000002  -0.000003
    17  C    0.000021  -0.000000  -0.000043  -0.000001   0.000000   0.000000
    18  C   -0.000018  -0.000000  -0.000031  -0.000000  -0.000000  -0.000000
    19  C   -0.000452   0.000027  -0.000625  -0.000001   0.000001   0.000002
    20  H    0.006941  -0.000318  -0.001168  -0.000274   0.000065  -0.000052
    21  H   -0.000015   0.000002   0.000003   0.000000  -0.000000   0.000000
    22  H    0.000000   0.000000  -0.000001  -0.000000   0.000000  -0.000000
    23  H   -0.000000   0.000000  -0.000002   0.000000  -0.000000   0.000000
    24  H   -0.000009   0.000001  -0.000011  -0.000000   0.000000  -0.000000
    25  N    6.508449   0.318377   0.354053  -0.030522  -0.029099  -0.027854
    26  C    0.318377   4.477564  -0.024683   0.399680   0.409947   0.394137
    27  H    0.354053  -0.024683   0.524652  -0.002884  -0.003997   0.006014
    28  H   -0.030522   0.399680  -0.002884   0.634024  -0.031174  -0.016827
    29  H   -0.029099   0.409947  -0.003997  -0.031174   0.625514  -0.020878
    30  H   -0.027854   0.394137   0.006014  -0.016827  -0.020878   0.584503
 Mulliken charges:
               1
     1  C   -0.118803
     2  C    0.178550
     3  O   -0.351960
     4  C   -0.030111
     5  C    0.032111
     6  H    0.059443
     7  H    0.055775
     8  H    0.059766
     9  N   -0.225158
    10  H    0.156374
    11  H    0.168663
    12  H    0.081144
    13  Br  -0.101421
    14  C    0.020277
    15  C   -0.063848
    16  C   -0.024232
    17  C   -0.034916
    18  C   -0.020704
    19  C   -0.066694
    20  H    0.015992
    21  H    0.023000
    22  H    0.023869
    23  H    0.024196
    24  H    0.014961
    25  N   -0.238133
    26  C    0.058102
    27  H    0.152243
    28  H    0.042433
    29  H    0.049009
    30  H    0.060074
 Sum of Mulliken charges =  -0.00000
 Mulliken charges with hydrogens summed into heavy atoms:
               1
     1  C   -0.118803
     2  C    0.178550
     3  O   -0.351960
     4  C    0.051033
     5  C    0.207094
     9  N    0.099879
    13  Br  -0.101421
    14  C    0.020277
    15  C   -0.047856
    16  C   -0.001232
    17  C   -0.011047
    18  C    0.003492
    19  C   -0.051734
    25  N   -0.085890
    26  C    0.209619
 Electronic spatial extent (au):  <R**2>=           4475.7924
 Charge=              0.0000 electrons
 Dipole moment (field-independent basis, Debye):
    X=              1.6306    Y=             -1.2358    Z=              2.3346  Tot=              3.1042
 Quadrupole moment (field-independent basis, Debye-Ang):
   XX=           -101.0778   YY=            -93.8166   ZZ=            -94.4644
   XY=              7.1977   XZ=             -5.0592   YZ=             -5.1843
 Traceless Quadrupole moment (field-independent basis, Debye-Ang):
   XX=             -4.6249   YY=              2.6363   ZZ=              1.9885
   XY=              7.1977   XZ=             -5.0592   YZ=             -5.1843
 Octapole moment (field-independent basis, Debye-Ang**2):
  XXX=            -76.5280  YYY=              3.7045  ZZZ=              6.1767  XYY=            -18.3707
  XXY=            -14.9711  XXZ=              5.8844  XZZ=            -45.2117  YZZ=            -12.0718
  YYZ=            -15.3609  XYZ=             17.1668
 Hexadecapole moment (field-independent basis, Debye-Ang**3):
 XXXX=          -2900.6584 YYYY=          -1486.9925 ZZZZ=           -790.6341 XXXY=             61.0938
 XXXZ=             58.1582 YYYX=             94.7596 YYYZ=            -10.7794 ZZZX=             28.8699
 ZZZY=             -7.1376 XXYY=           -776.4968 XXZZ=           -640.0471 YYZZ=           -385.8097
 XXYZ=             17.1097 YYXZ=             -7.3383 ZZXY=             38.4479
 N-N= 1.351914620223D+03 E-N=-1.027925164667D+04  KE= 3.176722796824D+03
 Unable to Open any file for archive entry.
 1\1\GINC-NODE-001\FTS\RwB97XD\def2SVP\C11H15Br1N2O1\JP2658\30-Dec-2023
 \0\\# wb97xd def2svp geom=allchk scrf=(iefpcm,solvent=toluene) opt=(re
 adfc,ts,noeigen,maxcycles=50,maxstep=10)\\TS-325_opt_sqm_re.out\\0,1\C
 ,0.0783997588,0.0900769499,-0.080909638\C,-0.3625448788,1.4902113369,0
 .0722790395\O,-1.3490917113,1.7929077365,0.7545234244\C,-0.8568391232,
 -0.9086080672,0.1052547212\C,-0.3976058839,-0.9603985688,2.919690884\H
 ,-0.6185248674,-0.558628935,3.9211391103\H,-0.1374647731,-2.0239232566
 ,3.0126904262\H,0.4747168015,-0.4236669823,2.5161881289\N,-1.497320996
 2,-0.7940761889,1.9921765085\H,-2.3102596792,-1.3722739867,2.197991286
 3\H,-1.7737650249,0.191348118,1.8861893188\H,-0.5149079761,-1.94526961
 33,0.1126032261\Br,-2.6249364984,-0.8424550144,-0.6934598484\C,1.50767
 837,-0.278971113,-0.216089037\C,2.5258590203,0.4317051988,0.4505676164
 \C,3.8627282965,0.0597081715,0.337057747\C,4.2273810985,-1.0450279353,
 -0.4339866919\C,3.2356300595,-1.7624321503,-1.1012406433\C,1.899892200
 5,-1.3762911905,-1.0051248307\H,2.2600253079,1.286485836,1.0771341582\
 H,4.6272166516,0.6310533821,0.8693280057\H,5.2756565126,-1.3394708309,
 -0.5180098741\H,3.5045130841,-2.6216365714,-1.7205497841\H,1.141222838
 ,-1.9237196112,-1.5702085469\N,0.3810595888,2.4415794839,-0.5542142489
 \C,0.1134161999,3.8529681942,-0.4505769463\H,1.1227656434,2.1297962805
 ,-1.1672044773\H,1.0255033604,4.4101797872,-0.1866888368\H,-0.28769609
 96,4.2652405835,-1.3908498305\H,-0.6367472803,3.9993889567,0.335869632
 7\\Version=ES64L-G16RevC.01\State=1-A\HF=-3186.1669567\RMSD=4.580e-09\
 RMSF=1.530e-05\Dipole=0.6829457,-0.4694275,0.8971087\Quadrupole=-3.831
 05,1.9560852,1.8749649,5.0948312,-3.5715841,-4.1040831\PG=C01 [X(C11H1
 5Br1N2O1)]\\@
 The archive entry for this job was punched.


 The earth never tires,
 The earth is rude, silent, incomprehensible at first,
 Nature is rude and incomprehensible at first,
 Be not discouraged, keep on,
 There are divine things well envelop'd,
 I swear to you there are divine things more beautiful than words can tell.
                                 -- Walt Whitman
 Job cpu time:       0 days  7 hours 10 minutes 19.1 seconds.
 Elapsed time:       0 days  0 hours 36 minutes 43.4 seconds.
 File lengths (MBytes):  RWF=    159 Int=      0 D2E=      0 Chk=     14 Scr=      1
 Normal termination of Gaussian 16 at Sat Dec 30 16:57:48 2023.
