Unloading slurm/anatra/current
  ERROR: No such file or directory on
    '/cm/local/modulefiles/slurm/anatra/current'
environment: line 0: unalias: gv: not found
environment: line 0: unalias: sl: not found
 Entering Gaussian System, Link 0=g16
 Initial command:
 /apps/gaussian/g16/C.01/g16/l1.exe "/local/jobs/1153182/Gau-1516914.inp" -scrdir="/local/jobs/1153182/"
 Entering Link 1 = /apps/gaussian/g16/C.01/g16/l1.exe PID=   1516915.
  
 Copyright (c) 1988-2019, Gaussian, Inc.  All Rights Reserved.
  
 This is part of the Gaussian(R) 16 program.  It is based on
 the Gaussian(R) 09 system (copyright 2009, Gaussian, Inc.),
 the Gaussian(R) 03 system (copyright 2003, Gaussian, Inc.),
 the Gaussian(R) 98 system (copyright 1998, Gaussian, Inc.),
 the Gaussian(R) 94 system (copyright 1995, Gaussian, Inc.),
 the Gaussian 92(TM) system (copyright 1992, Gaussian, Inc.),
 the Gaussian 90(TM) system (copyright 1990, Gaussian, Inc.),
 the Gaussian 88(TM) system (copyright 1988, Gaussian, Inc.),
 the Gaussian 86(TM) system (copyright 1986, Carnegie Mellon
 University), and the Gaussian 82(TM) system (copyright 1983,
 Carnegie Mellon University). Gaussian is a federally registered
 trademark of Gaussian, Inc.
  
 This software contains proprietary and confidential information,
 including trade secrets, belonging to Gaussian, Inc.
  
 This software is provided under written license and may be
 used, copied, transmitted, or stored only in accord with that
 written license.
  
 The following legend is applicable only to US Government
 contracts under FAR:
  
                    RESTRICTED RIGHTS LEGEND
  
 Use, reproduction and disclosure by the US Government is
 subject to restrictions as set forth in subparagraphs (a)
 and (c) of the Commercial Computer Software - Restricted
 Rights clause in FAR 52.227-19.
  
 Gaussian, Inc.
 340 Quinnipiac St., Bldg. 40, Wallingford CT 06492
  
  
 ---------------------------------------------------------------
 Warning -- This program may not be used in any manner that
 competes with the business of Gaussian, Inc. or will provide
 assistance to any competitor of Gaussian, Inc.  The licensee
 of this program is prohibited from giving any competitor of
 Gaussian, Inc. access to this program.  By using this program,
 the user acknowledges that Gaussian, Inc. is engaged in the
 business of creating and licensing software in the field of
 computational chemistry and represents and warrants to the
 licensee that it is not a competitor of Gaussian, Inc. and that
 it will not use this program in any manner prohibited above.
 ---------------------------------------------------------------
  

 Cite this work as:
 Gaussian 16, Revision C.01,
 M. J. Frisch, G. W. Trucks, H. B. Schlegel, G. E. Scuseria, 
 M. A. Robb, J. R. Cheeseman, G. Scalmani, V. Barone, 
 G. A. Petersson, H. Nakatsuji, X. Li, M. Caricato, A. V. Marenich, 
 J. Bloino, B. G. Janesko, R. Gomperts, B. Mennucci, H. P. Hratchian, 
 J. V. Ortiz, A. F. Izmaylov, J. L. Sonnenberg, D. Williams-Young, 
 F. Ding, F. Lipparini, F. Egidi, J. Goings, B. Peng, A. Petrone, 
 T. Henderson, D. Ranasinghe, V. G. Zakrzewski, J. Gao, N. Rega, 
 G. Zheng, W. Liang, M. Hada, M. Ehara, K. Toyota, R. Fukuda, 
 J. Hasegawa, M. Ishida, T. Nakajima, Y. Honda, O. Kitao, H. Nakai, 
 T. Vreven, K. Throssell, J. A. Montgomery, Jr., J. E. Peralta, 
 F. Ogliaro, M. J. Bearpark, J. J. Heyd, E. N. Brothers, K. N. Kudin, 
 V. N. Staroverov, T. A. Keith, R. Kobayashi, J. Normand, 
 K. Raghavachari, A. P. Rendell, J. C. Burant, S. S. Iyengar, 
 J. Tomasi, M. Cossi, J. M. Millam, M. Klene, C. Adamo, R. Cammi, 
 J. W. Ochterski, R. L. Martin, K. Morokuma, O. Farkas, 
 J. B. Foresman, and D. J. Fox, Gaussian, Inc., Wallingford CT, 2019.
 
 ******************************************
 Gaussian 16:  ES64L-G16RevC.01  3-Jul-2019
                30-Dec-2023 
 ******************************************
 %chk=TS-325_opt_sqm_re2_freq.chk
 %nprocshared=12
 Will use up to   12 processors via shared memory.
 %mem=48GB
 -----------------------------------------------------------
 # wb97xd def2svp scrf=(iefpcm,solvent=toluene) freq=noraman
 -----------------------------------------------------------
 1/10=4,30=1,38=1/1,3;
 2/12=2,17=6,18=5,40=1/2;
 3/5=43,7=101,11=2,25=1,30=1,70=2201,71=2,72=13,74=-58,140=1/1,2,3;
 4//1;
 5/5=2,38=5,53=13,98=1/2;
 8/6=4,10=90,11=11/1;
 11/6=1,8=1,9=11,15=111,16=1/1,2,10;
 10/6=1/2;
 6/7=2,8=2,9=2,10=2,28=1/1;
 7/8=1,10=1,25=1/1,2,3,16;
 1/10=4,30=1/3;
 99//99;
 ----------------------
 TS-325_opt_sqm_re2.out
 ----------------------
 Symbolic Z-matrix:
 Charge =  0 Multiplicity = 1
 C                     0.10075   0.10034  -0.11038 
 C                    -0.33413   1.50249   0.04174 
 O                    -1.3452    1.80598   0.6867 
 C                    -0.84984  -0.89199   0.02515 
 C                    -0.50687  -0.9813    2.85518 
 H                    -0.76524  -0.58945   3.85158 
 H                    -0.25987  -2.04815   2.94574 
 H                     0.38582  -0.44772   2.49428 
 N                    -1.56617  -0.79405   1.88556 
 H                    -2.39177  -1.36728   2.05087 
 H                    -1.8296    0.19502   1.7804 
 H                    -0.51737  -1.93171   0.03382 
 Br                   -2.58307  -0.80039  -0.84435 
 C                     1.53116  -0.27998  -0.19149 
 C                     2.52718   0.41351   0.52489 
 C                     3.86435   0.03081   0.46163 
 C                     4.25086  -1.06796  -0.3073 
 C                     3.28121  -1.7684   -1.02327 
 C                     1.94601  -1.37137  -0.97717 
 H                     2.24319   1.26317   1.15046 
 H                     4.61122   0.58887   1.03166 
 H                     5.29915  -1.37085  -0.35196 
 H                     3.56792  -2.6226   -1.64152 
 H                     1.2065   -1.90518  -1.57946 
 N                     0.44265   2.45446  -0.54215 
 C                     0.18305   3.86688  -0.43231 
 H                     1.20617   2.14327  -1.12805 
 H                     1.08828   4.41266  -0.12454 
 H                    -0.17563   4.29388  -1.38309 
 H                    -0.59746   4.01074   0.32453 
 

 GradGradGradGradGradGradGradGradGradGradGradGradGradGradGradGradGradGrad
 Berny optimization.
 Initialization pass.
 Trust Radius=3.00D-01 FncErr=1.00D-07 GrdErr=1.00D-07 EigMax=2.50D+02 EigMin=1.00D-04
 Number of steps in this run=      2 maximum allowed number of steps=      2.
 GradGradGradGradGradGradGradGradGradGradGradGradGradGradGradGradGradGrad

                          Input orientation:                          
 ---------------------------------------------------------------------
 Center     Atomic      Atomic             Coordinates (Angstroms)
 Number     Number       Type             X           Y           Z
 ---------------------------------------------------------------------
      1          6           0        0.100750    0.100340   -0.110380
      2          6           0       -0.334130    1.502490    0.041740
      3          8           0       -1.345200    1.805980    0.686700
      4          6           0       -0.849840   -0.891990    0.025150
      5          6           0       -0.506870   -0.981300    2.855180
      6          1           0       -0.765240   -0.589450    3.851580
      7          1           0       -0.259870   -2.048150    2.945740
      8          1           0        0.385820   -0.447720    2.494280
      9          7           0       -1.566170   -0.794050    1.885560
     10          1           0       -2.391770   -1.367280    2.050870
     11          1           0       -1.829600    0.195020    1.780400
     12          1           0       -0.517370   -1.931710    0.033820
     13         35           0       -2.583070   -0.800390   -0.844350
     14          6           0        1.531160   -0.279980   -0.191490
     15          6           0        2.527180    0.413510    0.524890
     16          6           0        3.864350    0.030810    0.461630
     17          6           0        4.250860   -1.067960   -0.307300
     18          6           0        3.281210   -1.768400   -1.023270
     19          6           0        1.946010   -1.371370   -0.977170
     20          1           0        2.243190    1.263170    1.150460
     21          1           0        4.611220    0.588870    1.031660
     22          1           0        5.299150   -1.370850   -0.351960
     23          1           0        3.567920   -2.622600   -1.641520
     24          1           0        1.206500   -1.905180   -1.579460
     25          7           0        0.442650    2.454460   -0.542150
     26          6           0        0.183050    3.866880   -0.432310
     27          1           0        1.206170    2.143270   -1.128050
     28          1           0        1.088280    4.412660   -0.124540
     29          1           0       -0.175630    4.293880   -1.383090
     30          1           0       -0.597460    4.010740    0.324530
 ---------------------------------------------------------------------
                    Distance matrix (angstroms):
                    1          2          3          4          5
     1  C    0.000000
     2  C    1.475902   0.000000
     3  O    2.373882   1.237070   0.000000
     4  C    1.380836   2.449442   2.821714   0.000000
     5  C    3.214606   3.756926   3.629605   2.852135   0.000000
     6  H    4.113742   4.367717   4.011347   3.839304   1.101415
     7  H    3.753122   4.587567   4.597338   3.196031   1.098808
     8  H    2.676918   3.215058   3.367928   2.796575   1.100841
     9  N    2.749969   3.192443   2.871628   1.995957   1.448220
    10  H    3.610757   4.062766   3.609134   2.589786   2.085364
    11  H    2.703750   2.639857   2.006493   2.285262   2.070868
    12  H    2.128871   3.439094   3.883540   1.091618   2.977157
    13  Br   2.924537   3.338584   3.266435   1.941264   4.246158
    14  C    1.482328   2.590541   3.660040   2.467924   3.731972
    15  C    2.527688   3.099420   4.118311   3.654906   4.072003
    16  C    3.807455   4.468712   5.508293   4.823449   5.085372
    17  C    4.315914   5.267938   6.368945   5.114551   5.713561
    18  C    3.800116   4.990356   6.091294   4.351190   5.478271
    19  C    2.514406   3.807399   4.867862   3.008526   4.566802
    20  H    2.744438   2.815868   3.658724   3.934193   3.937835
    21  H    4.678382   5.125537   6.089277   5.747102   5.655573
    22  H    5.407969   6.336002   7.437637   6.179126   6.644348
    23  H    4.666911   5.922476   7.012252   5.028857   6.286342
    24  H    2.720844   4.076033   5.041762   2.798189   4.843059
    25  N    2.417685   1.360353   2.264289   3.631954   4.924214
    26  C    3.781169   2.466280   2.799114   4.891112   5.898172
    27  H    2.535975   2.037531   3.149059   3.843156   5.344489
    28  H    4.423971   3.243453   3.657146   5.649604   6.365378
    29  H    4.391122   3.138012   3.441158   5.415805   6.774967
    30  H    3.995982   2.537840   2.356109   4.918342   5.597576
                    6          7          8          9         10
     6  H    0.000000
     7  H    1.789902   0.000000
     8  H    1.785298   1.783846   0.000000
     9  N    2.132741   2.098373   2.073825   0.000000
    10  H    2.548171   2.410264   2.959258   1.018595   0.000000
    11  H    2.457243   2.975547   2.414710   1.028938   1.682252
    12  H    4.054429   2.925601   3.011950   2.413129   2.810773
    13  Br   5.039917   4.617244   4.481644   2.913166   2.956393
    14  C    4.660004   4.021993   2.924603   3.764553   4.647556
    15  C    4.786734   4.437109   3.034079   4.479413   5.449394
    16  C    5.771446   5.244241   4.057195   5.674374   6.604497
    17  C    6.533492   5.647099   4.813739   6.222660   7.055146
    18  C    6.444210   5.326401   4.743484   5.736527   6.464823
    19  C    5.592772   4.551171   3.916413   4.567705   5.290121
    20  H    4.447348   4.522519   2.860563   4.391327   5.404892
    21  H    6.184392   5.860469   4.589965   6.387626   7.342151
    22  H    7.420051   6.498943   5.752744   7.243743   8.057534
    23  H    7.285885   6.002077   5.653380   6.491746   7.122322
    24  H    5.925799   4.759004   4.403756   4.574787   5.139667
    25  N    5.479895   5.738676   4.200689   4.525699   5.418799
    26  C    6.253786   6.826052   5.217453   5.491499   6.339741
    27  H    6.012564   6.026030   4.528518   5.039401   5.947661
    28  H    6.653283   7.279162   5.565515   6.180327   7.088784
    29  H    7.183058   7.679011   6.150772   6.205216   6.982270
    30  H    5.799136   6.610209   5.054950   5.144047   5.926457
                   11         12         13         14         15
    11  H    0.000000
    12  H    3.048847   0.000000
    13  Br   2.906522   2.513600   0.000000
    14  C    3.925390   2.641108   4.198088   0.000000
    15  C    4.539336   3.874338   5.427985   1.409321   0.000000
    16  C    5.846981   4.820164   6.630664   2.442730   1.392295
    17  C    6.551763   4.857823   6.860220   2.833918   2.420406
    18  C    6.151094   3.946305   5.946330   2.443343   2.779585
    19  C    4.930822   2.721089   4.566862   1.407312   2.404109
    20  H    4.257392   4.367475   5.615188   2.165440   1.092662
    21  H    6.496144   5.800986   7.563548   3.426042   2.151927
    22  H    7.603814   5.856218   7.918160   3.926003   3.411250
    23  H    6.984393   4.469193   6.464566   3.426200   3.872265
    24  H    4.991733   2.361166   4.015195   2.161745   3.398354
    25  N    3.957579   4.526794   4.454251   2.963946   3.106335
    26  C    4.735969   5.859310   5.441011   4.367132   4.282166
    27  H    4.633644   4.574494   4.806658   2.618187   2.733011
    28  H    5.470951   6.546314   6.416606   4.713968   4.299464
    29  H    5.435434   6.393934   5.660176   5.025260   5.099298
    30  H    4.265846   5.950096   5.334407   4.817424   4.769023
                   16         17         18         19         20
    16  C    0.000000
    17  C    1.395686   0.000000
    18  C    2.404607   1.394077   0.000000
    19  C    2.777820   2.419322   1.393742   0.000000
    20  H    2.149734   3.404405   3.872080   3.399401   0.000000
    21  H    1.092785   2.160500   3.398292   3.870566   2.465027
    22  H    2.164539   1.092085   2.163512   3.410929   4.305139
    23  H    3.398779   2.159504   1.092746   2.153492   4.964803
    24  H    3.870177   3.404035   2.152319   1.092969   4.308785
    25  N    4.311576   5.192789   5.110914   4.133559   2.743364
    26  C    5.391339   6.396511   6.457880   5.553752   3.678130
    27  H    3.749065   4.500641   4.429213   3.594833   2.653600
    28  H    5.220227   6.330285   6.619831   5.909119   3.588695
    29  H    6.156151   7.035657   6.987879   6.063100   4.631929
    30  H    5.980501   7.049724   7.089366   6.093502   4.037399
                   21         22         23         24         25
    21  H    0.000000
    22  H    2.495627   0.000000
    23  H    4.306728   2.495396   0.000000
    24  H    4.962897   4.306048   2.468774   0.000000
    25  N    4.830557   6.185043   6.062381   4.545981   0.000000
    26  C    5.700636   7.322209   7.418415   5.973280   1.440273
    27  H    4.321443   5.450123   5.343691   4.073539   1.011475
    28  H    5.326282   7.157663   7.612143   6.484279   2.103755
    29  H    6.517058   7.945163   7.868840   6.354305   2.114927
    30  H    6.272127   8.011814   8.075701   6.471287   2.062758
                   26         27         28         29         30
    26  C    0.000000
    27  H    2.121712   0.000000
    28  H    1.100927   2.484162   0.000000
    29  H    1.102254   2.568957   1.787603   0.000000
    30  H    1.096676   2.974981   1.790230   1.781593   0.000000
 Stoichiometry    C11H15BrN2O
 Framework group  C1[X(C11H15BrN2O)]
 Deg. of freedom    84
 Full point group                 C1      NOp   1
 Largest Abelian subgroup         C1      NOp   1
 Largest concise Abelian subgroup C1      NOp   1
                         Standard orientation:                         
 ---------------------------------------------------------------------
 Center     Atomic      Atomic             Coordinates (Angstroms)
 Number     Number       Type             X           Y           Z
 ---------------------------------------------------------------------
      1          6           0        0.100750    0.100341   -0.110380
      2          6           0       -0.334128    1.502491    0.041740
      3          8           0       -1.345198    1.805982    0.686700
      4          6           0       -0.849841   -0.891988    0.025150
      5          6           0       -0.506871   -0.981299    2.855180
      6          1           0       -0.765241   -0.589448    3.851580
      7          1           0       -0.259873   -2.048149    2.945740
      8          1           0        0.385819   -0.447720    2.494280
      9          7           0       -1.566171   -0.794047    1.885560
     10          1           0       -2.391772   -1.367276    2.050870
     11          1           0       -1.829600    0.195023    1.780400
     12          1           0       -0.517373   -1.931709    0.033820
     13         35           0       -2.583071   -0.800386   -0.844350
     14          6           0        1.531160   -0.279981   -0.191490
     15          6           0        2.527181    0.413507    0.524890
     16          6           0        3.864350    0.030805    0.461630
     17          6           0        4.250859   -1.067965   -0.307300
     18          6           0        3.281208   -1.768404   -1.023270
     19          6           0        1.946008   -1.371372   -0.977170
     20          1           0        2.243192    1.263168    1.150460
     21          1           0        4.611221    0.588864    1.031660
     22          1           0        5.299148   -1.370857   -0.351960
     23          1           0        3.567916   -2.622604   -1.641520
     24          1           0        1.206497   -1.905181   -1.579460
     25          7           0        0.442653    2.454460   -0.542150
     26          6           0        0.183055    3.866880   -0.432310
     27          1           0        1.206173    2.143269   -1.128050
     28          1           0        1.088286    4.412659   -0.124540
     29          1           0       -0.175624    4.293881   -1.383090
     30          1           0       -0.597455    4.010741    0.324530
 ---------------------------------------------------------------------
 Rotational constants (GHZ):           0.5748311           0.3051855           0.2598661
 Standard basis: def2SVP (5D, 7F)
 There are   320 symmetry adapted cartesian basis functions of A   symmetry.
 There are   303 symmetry adapted basis functions of A   symmetry.
   303 basis functions,   535 primitive gaussians,   320 cartesian basis functions
    69 alpha electrons       69 beta electrons
       nuclear repulsion energy      1351.9360222576 Hartrees.
 NAtoms=   30 NActive=   30 NUniq=   30 SFac= 1.00D+00 NAtFMM=   60 NAOKFM=F Big=F
 Integral buffers will be    131072 words long.
 Raffenetti 2 integral format.
 Two-electron integral symmetry is turned on.
 Nuclear repulsion after empirical dispersion term =     1351.9138170825 Hartrees.
 Force inversion solution in PCM.
 ------------------------------------------------------------------------------
 Polarizable Continuum Model (PCM)
 =================================
 Model                : PCM.
 Atomic radii         : UFF (Universal Force Field).
 Polarization charges : Total charges.
 Charge compensation  : None.
 Solution method      : Matrix inversion.
 Cavity type          : Scaled VdW (van der Waals Surface) (Alpha=1.100).
 Cavity algorithm     : GePol (No added spheres)
                        Default sphere list used, NSphG=   30.
                        Lebedev-Laikov grids with approx.  5.0 points / Ang**2.
                        Smoothing algorithm: York/Karplus (Gamma=1.0000).
                        Polarization charges: spherical gaussians, with
                                              point-specific exponents (IZeta= 3).
                        Self-potential: point-specific (ISelfS= 7).
                        Self-field    : sphere-specific E.n sum rule (ISelfD= 2).
 1st derivatives      : Analytical E(r).r(x)/FMM algorithm (CHGder, D1EAlg=3).
                        Cavity 1st derivative terms included.
 2nd derivatives      : Analytical E(r).r(xy)/FMM algorithm (CHGder, D2EAlg=3).
                        Cavity 2nd derivative terms included.
 Solvent              : Toluene, Eps=   2.374100 Eps(inf)=   2.238315
 ------------------------------------------------------------------------------
 One-electron integrals computed using PRISM.
   1 Symmetry operations used in ECPInt.
 ECPInt:  NShTT=   10011 NPrTT=   37668 LenC2=    9556 LenP2D=   25808.
 LDataN:  DoStor=T MaxTD1= 4 Len=   56
 NBasis=   303 RedAO= T EigKep=  2.89D-04  NBF=   303
 NBsUse=   303 1.00D-06 EigRej= -1.00D+00 NBFU=   303
 ExpMin= 1.22D-01 ExpMax= 1.13D+05 ExpMxC= 1.70D+04 IAcc=3 IRadAn=         5 AccDes= 0.00D+00
 Harris functional with IExCor= 4639 and IRadAn=       5 diagonalized for initial guess.
 HarFok:  IExCor= 4639 AccDes= 0.00D+00 IRadAn=         5 IDoV= 1 UseB2=F ITyADJ=14
 ICtDFT=  3500011 ScaDFX=  1.000000  1.000000  1.000000  1.000000
 FoFCou: FMM=F IPFlag=           0 FMFlag=      100000 FMFlg1=           0
         NFxFlg=           0 DoJE=T BraDBF=F KetDBF=T FulRan=T
         wScrn=  0.000000 ICntrl=       500 IOpCl=  0 I1Cent=   200000004 NGrid=           0
         NMat0=    1 NMatS0=      1 NMatT0=    0 NMatD0=    1 NMtDS0=    0 NMtDT0=    0
 Petite list used in FoFCou.
 Requested convergence on RMS density matrix=1.00D-08 within 128 cycles.
 Requested convergence on MAX density matrix=1.00D-06.
 Requested convergence on             energy=1.00D-06.
 No special actions if energy rises.
 Inv3:  Mode=1 IEnd=    16202928.
 Iteration    1 A*A^-1 deviation from unit magnitude is 3.33D-15 for   2174.
 Iteration    1 A*A^-1 deviation from orthogonality  is 2.19D-15 for   1534    874.
 Iteration    1 A^-1*A deviation from unit magnitude is 3.11D-15 for    234.
 Iteration    1 A^-1*A deviation from orthogonality  is 1.87D-15 for   1456   1176.
 Error on total polarization charges =  0.00657
 SCF Done:  E(RwB97XD) =  -3186.16695673     A.U. after   15 cycles
            NFock= 15  Conv=0.61D-08     -V/T= 2.0030
 DoSCS=F DFT=T ScalE2(SS,OS)=  1.000000  1.000000
 Range of M.O.s used for correlation:     1   303
 NBasis=   303 NAE=    69 NBE=    69 NFC=     0 NFV=     0
 NROrb=    303 NOA=    69 NOB=    69 NVA=   234 NVB=   234

 **** Warning!!: The largest alpha MO coefficient is  0.12314516D+02

   1 Symmetry operations used in ECPInt.
 ECPInt:  NShTT=   10011 NPrTT=   37668 LenC2=    9556 LenP2D=   25808.
 LDataN:  DoStor=T MaxTD1= 5 Len=  102
 Symmetrizing basis deriv contribution to polar:
 IMax=3 JMax=2 DiffMx= 0.00D+00
 G2DrvN: will do    31 centers at a time, making    1 passes.
 Calling FoFCou, ICntrl=  3107 FMM=F I1Cent=   0 AccDes= 0.00D+00.
 NEqPCM:  Using equilibrium solvation (IEInf=0, Eps=   2.3741, EpsInf=   2.2383)
 G2PCM: DoFxE=T DoFxN=T DoGrad=T DoDP/DQ/DG/TGxP=FFFF NFrqRd=   0 IEInf=0 SqF1=F DoCFld=F IF1Alg=4.
 End of G2Drv F.D. properties file   721 does not exist.
 End of G2Drv F.D. properties file   722 does not exist.
 End of G2Drv F.D. properties file   788 does not exist.
          IDoAtm=111111111111111111111111111111
 NEqPCM:  Using equilibrium solvation (IEInf=0, Eps=   2.3741, EpsInf=   2.2383)
          Differentiating once with respect to electric field.
                with respect to dipole field.
          Differentiating once with respect to nuclear coordinates.
 Keep R1 ints in memory in canonical form, NReq=2151801606.
          There are    93 degrees of freedom in the 1st order CPHF.  IDoFFX=6 NUNeed=     3.
     90 vectors produced by pass  0 Test12= 1.74D-14 1.08D-09 XBig12= 1.05D+02 5.09D+00.
 AX will form    90 AO Fock derivatives at one time.
     90 vectors produced by pass  1 Test12= 1.74D-14 1.08D-09 XBig12= 8.23D+00 3.58D-01.
     90 vectors produced by pass  2 Test12= 1.74D-14 1.08D-09 XBig12= 1.81D-01 7.10D-02.
     90 vectors produced by pass  3 Test12= 1.74D-14 1.08D-09 XBig12= 2.94D-03 6.37D-03.
     90 vectors produced by pass  4 Test12= 1.74D-14 1.08D-09 XBig12= 2.80D-05 4.46D-04.
     90 vectors produced by pass  5 Test12= 1.74D-14 1.08D-09 XBig12= 1.55D-07 2.80D-05.
     83 vectors produced by pass  6 Test12= 1.74D-14 1.08D-09 XBig12= 7.56D-10 2.38D-06.
     22 vectors produced by pass  7 Test12= 1.74D-14 1.08D-09 XBig12= 3.44D-12 1.48D-07.
      3 vectors produced by pass  8 Test12= 1.74D-14 1.08D-09 XBig12= 1.46D-14 1.16D-08.
 InvSVY:  IOpt=1 It=  1 EMax= 7.99D-15
 Solved reduced A of dimension   648 with    93 vectors.
 Isotropic polarizability for W=    0.000000      184.25 Bohr**3.
 End of Minotr F.D. properties file   721 does not exist.
 End of Minotr F.D. properties file   722 does not exist.
 End of Minotr F.D. properties file   788 does not exist.

 **********************************************************************

            Population analysis using the SCF Density.

 **********************************************************************

 Orbital symmetries:
       Occupied  (A) (A) (A) (A) (A) (A) (A) (A) (A) (A) (A) (A)
                 (A) (A) (A) (A) (A) (A) (A) (A) (A) (A) (A) (A)
                 (A) (A) (A) (A) (A) (A) (A) (A) (A) (A) (A) (A)
                 (A) (A) (A) (A) (A) (A) (A) (A) (A) (A) (A) (A)
                 (A) (A) (A) (A) (A) (A) (A) (A) (A) (A) (A) (A)
                 (A) (A) (A) (A) (A) (A) (A) (A) (A)
       Virtual   (A) (A) (A) (A) (A) (A) (A) (A) (A) (A) (A) (A)
                 (A) (A) (A) (A) (A) (A) (A) (A) (A) (A) (A) (A)
                 (A) (A) (A) (A) (A) (A) (A) (A) (A) (A) (A) (A)
                 (A) (A) (A) (A) (A) (A) (A) (A) (A) (A) (A) (A)
                 (A) (A) (A) (A) (A) (A) (A) (A) (A) (A) (A) (A)
                 (A) (A) (A) (A) (A) (A) (A) (A) (A) (A) (A) (A)
                 (A) (A) (A) (A) (A) (A) (A) (A) (A) (A) (A) (A)
                 (A) (A) (A) (A) (A) (A) (A) (A) (A) (A) (A) (A)
                 (A) (A) (A) (A) (A) (A) (A) (A) (A) (A) (A) (A)
                 (A) (A) (A) (A) (A) (A) (A) (A) (A) (A) (A) (A)
                 (A) (A) (A) (A) (A) (A) (A) (A) (A) (A) (A) (A)
                 (A) (A) (A) (A) (A) (A) (A) (A) (A) (A) (A) (A)
                 (A) (A) (A) (A) (A) (A) (A) (A) (A) (A) (A) (A)
                 (A) (A) (A) (A) (A) (A) (A) (A) (A) (A) (A) (A)
                 (A) (A) (A) (A) (A) (A) (A) (A) (A) (A) (A) (A)
                 (A) (A) (A) (A) (A) (A) (A) (A) (A) (A) (A) (A)
                 (A) (A) (A) (A) (A) (A) (A) (A) (A) (A) (A) (A)
                 (A) (A) (A) (A) (A) (A) (A) (A) (A) (A) (A) (A)
                 (A) (A) (A) (A) (A) (A) (A) (A) (A) (A) (A) (A)
                 (A) (A) (A) (A) (A) (A)
 The electronic state is 1-A.
 Alpha  occ. eigenvalues -- -483.04786 -62.63004 -56.43769 -56.43420 -56.43406
 Alpha  occ. eigenvalues --  -19.20961 -14.47863 -14.45733 -10.38804 -10.38363
 Alpha  occ. eigenvalues --  -10.33227 -10.32140 -10.31341 -10.30155 -10.30110
 Alpha  occ. eigenvalues --  -10.29790 -10.29783 -10.29715 -10.27649  -8.79955
 Alpha  occ. eigenvalues --   -6.62483  -6.61215  -6.61161  -2.72853  -2.72503
 Alpha  occ. eigenvalues --   -2.72460  -2.71450  -2.71449  -1.11373  -1.01252
 Alpha  occ. eigenvalues --   -1.00014  -0.95256  -0.91157  -0.86407  -0.83516
 Alpha  occ. eigenvalues --   -0.80887  -0.78680  -0.77155  -0.70538  -0.68886
 Alpha  occ. eigenvalues --   -0.67614  -0.65516  -0.62058  -0.61068  -0.57573
 Alpha  occ. eigenvalues --   -0.56098  -0.55345  -0.54619  -0.53139  -0.52657
 Alpha  occ. eigenvalues --   -0.52078  -0.51269  -0.50127  -0.49337  -0.47282
 Alpha  occ. eigenvalues --   -0.47064  -0.46397  -0.45494  -0.45388  -0.43310
 Alpha  occ. eigenvalues --   -0.42609  -0.42032  -0.36308  -0.35492  -0.34892
 Alpha  occ. eigenvalues --   -0.33313  -0.32762  -0.32415  -0.25610
 Alpha virt. eigenvalues --    0.03935   0.05959   0.07249   0.08662   0.13568
 Alpha virt. eigenvalues --    0.14816   0.15748   0.17415   0.17706   0.18013
 Alpha virt. eigenvalues --    0.18936   0.20124   0.20235   0.21064   0.21760
 Alpha virt. eigenvalues --    0.22364   0.22975   0.24165   0.24785   0.25510
 Alpha virt. eigenvalues --    0.26064   0.28422   0.29339   0.33168   0.34098
 Alpha virt. eigenvalues --    0.35435   0.37072   0.37572   0.39261   0.41636
 Alpha virt. eigenvalues --    0.41858   0.43054   0.44469   0.46090   0.47120
 Alpha virt. eigenvalues --    0.49092   0.49747   0.49998   0.50344   0.53134
 Alpha virt. eigenvalues --    0.53403   0.54170   0.54777   0.55735   0.57218
 Alpha virt. eigenvalues --    0.57505   0.57762   0.58879   0.59383   0.59873
 Alpha virt. eigenvalues --    0.60789   0.62805   0.63859   0.64952   0.65109
 Alpha virt. eigenvalues --    0.65717   0.66396   0.67080   0.69356   0.69905
 Alpha virt. eigenvalues --    0.70427   0.71493   0.72589   0.72950   0.73469
 Alpha virt. eigenvalues --    0.73730   0.73891   0.74040   0.75067   0.75865
 Alpha virt. eigenvalues --    0.76044   0.76333   0.77005   0.77800   0.78135
 Alpha virt. eigenvalues --    0.78763   0.80265   0.81396   0.82634   0.82702
 Alpha virt. eigenvalues --    0.83626   0.83677   0.85192   0.86477   0.86941
 Alpha virt. eigenvalues --    0.87413   0.88838   0.90709   0.92134   0.93316
 Alpha virt. eigenvalues --    0.95419   0.96704   0.98422   1.00425   1.00909
 Alpha virt. eigenvalues --    1.03314   1.05027   1.07061   1.08057   1.13300
 Alpha virt. eigenvalues --    1.13906   1.15939   1.17634   1.19995   1.21670
 Alpha virt. eigenvalues --    1.23388   1.27865   1.29331   1.29743   1.30979
 Alpha virt. eigenvalues --    1.33162   1.33529   1.35546   1.36457   1.37291
 Alpha virt. eigenvalues --    1.38811   1.39978   1.41970   1.42784   1.45949
 Alpha virt. eigenvalues --    1.48875   1.52520   1.55630   1.57704   1.59920
 Alpha virt. eigenvalues --    1.61641   1.61690   1.62769   1.67611   1.70297
 Alpha virt. eigenvalues --    1.70855   1.74719   1.75088   1.78117   1.78981
 Alpha virt. eigenvalues --    1.80674   1.82142   1.83049   1.84351   1.84610
 Alpha virt. eigenvalues --    1.84850   1.85504   1.86472   1.86512   1.87364
 Alpha virt. eigenvalues --    1.88356   1.88808   1.89995   1.91364   1.92797
 Alpha virt. eigenvalues --    1.93106   1.95069   1.95444   1.97319   2.00455
 Alpha virt. eigenvalues --    2.03156   2.03684   2.04562   2.05272   2.05600
 Alpha virt. eigenvalues --    2.07507   2.08440   2.09501   2.12287   2.13007
 Alpha virt. eigenvalues --    2.15408   2.16610   2.17075   2.18917   2.21742
 Alpha virt. eigenvalues --    2.23171   2.23488   2.24826   2.25751   2.27199
 Alpha virt. eigenvalues --    2.27421   2.30794   2.33491   2.36947   2.38582
 Alpha virt. eigenvalues --    2.39668   2.39937   2.40229   2.43005   2.43556
 Alpha virt. eigenvalues --    2.44720   2.48651   2.51130   2.52230   2.52604
 Alpha virt. eigenvalues --    2.58152   2.61868   2.65191   2.66342   2.68169
 Alpha virt. eigenvalues --    2.69881   2.71950   2.72814   2.73969   2.74683
 Alpha virt. eigenvalues --    2.75105   2.77045   2.81013   2.81356   2.81942
 Alpha virt. eigenvalues --    2.83604   2.87314   2.89837   2.96436   2.96750
 Alpha virt. eigenvalues --    2.97205   2.97715   3.02252   3.03000   3.06494
 Alpha virt. eigenvalues --    3.07984   3.08572   3.08795   3.17751   3.21682
 Alpha virt. eigenvalues --    3.24908   3.26323   3.26877   3.34476   3.40288
 Alpha virt. eigenvalues --    3.49240   3.55549   3.58229   3.65174   3.68527
 Alpha virt. eigenvalues --    3.70949   3.72929   3.77860   3.92917
          Condensed to atoms (all electrons):
               1          2          3          4          5          6
     1  C    5.728373   0.241810  -0.129193   0.464794  -0.002461  -0.001230
     2  C    0.241810   4.612083   0.689735  -0.045777  -0.001029   0.000132
     3  O   -0.129193   0.689735   7.821719   0.007426   0.000063   0.000006
     4  C    0.464794  -0.045777   0.007426   4.968767  -0.022246   0.002387
     5  C   -0.002461  -0.001029   0.000063  -0.022246   4.492232   0.403391
     6  H   -0.001230   0.000132   0.000006   0.002387   0.403391   0.613883
     7  H   -0.000713  -0.000070  -0.000042   0.000062   0.403822  -0.024399
     8  H    0.019163   0.000383   0.001044  -0.011220   0.400972  -0.022951
     9  N   -0.060262  -0.008081  -0.016168   0.074424   0.328487  -0.018402
    10  H    0.004348   0.000331   0.000141  -0.006293  -0.020636  -0.003930
    11  H   -0.015149   0.000519   0.054998  -0.009609  -0.017752  -0.008178
    12  H   -0.017165   0.008183   0.000328   0.390463   0.001215  -0.000063
    13  Br  -0.076504  -0.003948  -0.001985   0.254806   0.002758  -0.000221
    14  C    0.340920  -0.025887   0.002224  -0.041415  -0.000325   0.000064
    15  C   -0.121335  -0.008635  -0.000222   0.007702  -0.000334   0.000049
    16  C    0.015542  -0.000529  -0.000003  -0.000075  -0.000130  -0.000000
    17  C   -0.000851   0.000058  -0.000000   0.000078  -0.000002  -0.000001
    18  C    0.013952  -0.000169   0.000001   0.000290   0.000010   0.000000
    19  C   -0.092821   0.006494  -0.000098  -0.012801  -0.000061   0.000014
    20  H   -0.024681   0.006811  -0.000565   0.000138  -0.000088   0.000004
    21  H   -0.000301   0.000003   0.000000  -0.000001  -0.000001   0.000000
    22  H    0.000019  -0.000000   0.000000   0.000000   0.000000  -0.000000
    23  H   -0.000303   0.000001  -0.000000  -0.000011   0.000000  -0.000000
    24  H   -0.017146  -0.000080  -0.000002   0.003539   0.000006   0.000001
    25  N   -0.147022   0.386796  -0.099399   0.004915  -0.000005   0.000002
    26  C    0.009426  -0.032839  -0.008631  -0.000264   0.000001   0.000000
    27  H   -0.015613  -0.001388   0.003350   0.000024   0.000001  -0.000000
    28  H   -0.000057   0.004981   0.000373  -0.000011  -0.000001  -0.000000
    29  H   -0.000346   0.000739   0.000148   0.000059   0.000000   0.000000
    30  H    0.003613  -0.009181   0.026702  -0.000044  -0.000004  -0.000000
               7          8          9         10         11         12
     1  C   -0.000713   0.019163  -0.060262   0.004348  -0.015149  -0.017165
     2  C   -0.000070   0.000383  -0.008081   0.000331   0.000519   0.008183
     3  O   -0.000042   0.001044  -0.016168   0.000141   0.054998   0.000328
     4  C    0.000062  -0.011220   0.074424  -0.006293  -0.009609   0.390463
     5  C    0.403822   0.400972   0.328487  -0.020636  -0.017752   0.001215
     6  H   -0.024399  -0.022951  -0.018402  -0.003930  -0.008178  -0.000063
     7  H    0.608319  -0.017559  -0.025256  -0.007522   0.005912   0.001500
     8  H   -0.017559   0.592649  -0.030222   0.007317  -0.002282  -0.000546
     9  N   -0.025256  -0.030222   6.384504   0.342029   0.330408  -0.011339
    10  H   -0.007522   0.007317   0.342029   0.532640  -0.012473  -0.000694
    11  H    0.005912  -0.002282   0.330408  -0.012473   0.498573   0.002271
    12  H    0.001500  -0.000546  -0.011339  -0.000694   0.002271   0.582008
    13  Br   0.000033   0.000535  -0.066604   0.008490   0.003823  -0.035547
    14  C    0.000210   0.001471   0.000833  -0.000092  -0.000666  -0.010942
    15  C    0.000004   0.000795   0.000347  -0.000017  -0.000013   0.000095
    16  C    0.000004   0.000327  -0.000009   0.000000   0.000002  -0.000056
    17  C    0.000000   0.000018  -0.000001   0.000000  -0.000000  -0.000024
    18  C    0.000003  -0.000101   0.000014  -0.000001   0.000001   0.000067
    19  C   -0.000054  -0.000355   0.000382  -0.000013  -0.000055   0.007792
    20  H   -0.000013   0.001050   0.000028   0.000000  -0.000053  -0.000009
    21  H   -0.000000   0.000010   0.000000  -0.000000   0.000000   0.000001
    22  H   -0.000000  -0.000001  -0.000000  -0.000000   0.000000  -0.000001
    23  H    0.000000   0.000000  -0.000000   0.000000  -0.000000   0.000019
    24  H   -0.000012  -0.000031   0.000142  -0.000004  -0.000009   0.001416
    25  N   -0.000003  -0.000253  -0.000101   0.000004   0.001197  -0.000098
    26  C   -0.000000  -0.000012   0.000004  -0.000000  -0.000018   0.000006
    27  H    0.000000   0.000020   0.000002   0.000000  -0.000064  -0.000022
    28  H    0.000000   0.000007  -0.000001   0.000000   0.000005  -0.000000
    29  H   -0.000000  -0.000001   0.000001  -0.000000  -0.000005  -0.000000
    30  H    0.000000   0.000006   0.000004  -0.000000  -0.000046  -0.000000
              13         14         15         16         17         18
     1  C   -0.076504   0.340920  -0.121335   0.015542  -0.000851   0.013952
     2  C   -0.003948  -0.025887  -0.008635  -0.000529   0.000058  -0.000169
     3  O   -0.001985   0.002224  -0.000222  -0.000003  -0.000000   0.000001
     4  C    0.254806  -0.041415   0.007702  -0.000075   0.000078   0.000290
     5  C    0.002758  -0.000325  -0.000334  -0.000130  -0.000002   0.000010
     6  H   -0.000221   0.000064   0.000049  -0.000000  -0.000001   0.000000
     7  H    0.000033   0.000210   0.000004   0.000004   0.000000   0.000003
     8  H    0.000535   0.001471   0.000795   0.000327   0.000018  -0.000101
     9  N   -0.066604   0.000833   0.000347  -0.000009  -0.000001   0.000014
    10  H    0.008490  -0.000092  -0.000017   0.000000   0.000000  -0.000001
    11  H    0.003823  -0.000666  -0.000013   0.000002  -0.000000   0.000001
    12  H   -0.035547  -0.010942   0.000095  -0.000056  -0.000024   0.000067
    13  Br  35.013499   0.002845  -0.000117   0.000003  -0.000000  -0.000008
    14  C    0.002845   5.180185   0.306292   0.072721  -0.135258   0.069365
    15  C   -0.000117   0.306292   5.150714   0.330939   0.061158  -0.123842
    16  C    0.000003   0.072721   0.330939   5.021685   0.309862   0.067075
    17  C   -0.000000  -0.135258   0.061158   0.309862   5.087523   0.312310
    18  C   -0.000008   0.069365  -0.123842   0.067075   0.312310   5.023881
    19  C   -0.000309   0.324830   0.040115  -0.123381   0.062053   0.327105
    20  H   -0.000011  -0.065723   0.449922  -0.061205   0.013136  -0.002021
    21  H   -0.000000   0.014156  -0.062502   0.446008  -0.068224   0.012721
    22  H    0.000000  -0.001474   0.012774  -0.064492   0.447465  -0.064334
    23  H   -0.000000   0.013847  -0.001568   0.012495  -0.067277   0.444829
    24  H    0.000358  -0.063686   0.013700  -0.001956   0.012918  -0.060395
    25  N   -0.000476  -0.010927   0.003931  -0.000302   0.000021  -0.000018
    26  C   -0.000040   0.000032  -0.000485  -0.000013  -0.000000  -0.000000
    27  H    0.000032   0.006182   0.004245  -0.000290  -0.000043  -0.000032
    28  H    0.000001   0.000069   0.000163   0.000016  -0.000001  -0.000000
    29  H    0.000000  -0.000011   0.000030  -0.000002   0.000000  -0.000000
    30  H    0.000007  -0.000116  -0.000058  -0.000003   0.000000  -0.000000
              19         20         21         22         23         24
     1  C   -0.092821  -0.024681  -0.000301   0.000019  -0.000303  -0.017146
     2  C    0.006494   0.006811   0.000003  -0.000000   0.000001  -0.000080
     3  O   -0.000098  -0.000565   0.000000   0.000000  -0.000000  -0.000002
     4  C   -0.012801   0.000138  -0.000001   0.000000  -0.000011   0.003539
     5  C   -0.000061  -0.000088  -0.000001   0.000000   0.000000   0.000006
     6  H    0.000014   0.000004   0.000000  -0.000000  -0.000000   0.000001
     7  H   -0.000054  -0.000013  -0.000000  -0.000000   0.000000  -0.000012
     8  H   -0.000355   0.001050   0.000010  -0.000001   0.000000  -0.000031
     9  N    0.000382   0.000028   0.000000  -0.000000  -0.000000   0.000142
    10  H   -0.000013   0.000000  -0.000000  -0.000000   0.000000  -0.000004
    11  H   -0.000055  -0.000053   0.000000   0.000000  -0.000000  -0.000009
    12  H    0.007792  -0.000009   0.000001  -0.000001   0.000019   0.001416
    13  Br  -0.000309  -0.000011  -0.000000   0.000000  -0.000000   0.000358
    14  C    0.324830  -0.065723   0.014156  -0.001474   0.013847  -0.063686
    15  C    0.040115   0.449922  -0.062502   0.012774  -0.001568   0.013700
    16  C   -0.123381  -0.061205   0.446008  -0.064492   0.012495  -0.001956
    17  C    0.062053   0.013136  -0.068224   0.447465  -0.067277   0.012918
    18  C    0.327105  -0.002021   0.012721  -0.064334   0.444829  -0.060395
    19  C    5.119745   0.014217  -0.001680   0.012422  -0.061453   0.445649
    20  H    0.014217   0.660050  -0.011829  -0.000204   0.000024  -0.000165
    21  H   -0.001680  -0.011829   0.659759  -0.010901  -0.000232   0.000025
    22  H    0.012422  -0.000204  -0.010901   0.655960  -0.010896  -0.000207
    23  H   -0.061453   0.000024  -0.000232  -0.010896   0.658113  -0.011785
    24  H    0.445649  -0.000165   0.000025  -0.000207  -0.011785   0.662781
    25  N   -0.000452   0.006941  -0.000015   0.000000  -0.000000  -0.000009
    26  C    0.000027  -0.000318   0.000002   0.000000   0.000000   0.000001
    27  H   -0.000625  -0.001168   0.000003  -0.000001  -0.000002  -0.000011
    28  H   -0.000001  -0.000274   0.000000  -0.000000   0.000000  -0.000000
    29  H    0.000001   0.000065  -0.000000   0.000000  -0.000000   0.000000
    30  H    0.000002  -0.000052   0.000000  -0.000000   0.000000  -0.000000
              25         26         27         28         29         30
     1  C   -0.147022   0.009426  -0.015613  -0.000057  -0.000346   0.003613
     2  C    0.386796  -0.032839  -0.001388   0.004981   0.000739  -0.009181
     3  O   -0.099399  -0.008631   0.003350   0.000373   0.000148   0.026702
     4  C    0.004915  -0.000264   0.000024  -0.000011   0.000059  -0.000044
     5  C   -0.000005   0.000001   0.000001  -0.000001   0.000000  -0.000004
     6  H    0.000002   0.000000  -0.000000  -0.000000   0.000000  -0.000000
     7  H   -0.000003  -0.000000   0.000000   0.000000  -0.000000   0.000000
     8  H   -0.000253  -0.000012   0.000020   0.000007  -0.000001   0.000006
     9  N   -0.000101   0.000004   0.000002  -0.000001   0.000001   0.000004
    10  H    0.000004  -0.000000   0.000000   0.000000  -0.000000  -0.000000
    11  H    0.001197  -0.000018  -0.000064   0.000005  -0.000005  -0.000046
    12  H   -0.000098   0.000006  -0.000022  -0.000000  -0.000000  -0.000000
    13  Br  -0.000476  -0.000040   0.000032   0.000001   0.000000   0.000007
    14  C   -0.010927   0.000032   0.006182   0.000069  -0.000011  -0.000116
    15  C    0.003931  -0.000485   0.004245   0.000163   0.000030  -0.000058
    16  C   -0.000302  -0.000013  -0.000290   0.000016  -0.000002  -0.000003
    17  C    0.000021  -0.000000  -0.000043  -0.000001   0.000000   0.000000
    18  C   -0.000018  -0.000000  -0.000032  -0.000000  -0.000000  -0.000000
    19  C   -0.000452   0.000027  -0.000625  -0.000001   0.000001   0.000002
    20  H    0.006941  -0.000318  -0.001168  -0.000274   0.000065  -0.000052
    21  H   -0.000015   0.000002   0.000003   0.000000  -0.000000   0.000000
    22  H    0.000000   0.000000  -0.000001  -0.000000   0.000000  -0.000000
    23  H   -0.000000   0.000000  -0.000002   0.000000  -0.000000   0.000000
    24  H   -0.000009   0.000001  -0.000011  -0.000000   0.000000  -0.000000
    25  N    6.508451   0.318376   0.354054  -0.030522  -0.029099  -0.027854
    26  C    0.318376   4.477569  -0.024683   0.399679   0.409947   0.394136
    27  H    0.354054  -0.024683   0.524653  -0.002884  -0.003997   0.006014
    28  H   -0.030522   0.399679  -0.002884   0.634024  -0.031174  -0.016827
    29  H   -0.029099   0.409947  -0.003997  -0.031174   0.625514  -0.020878
    30  H   -0.027854   0.394136   0.006014  -0.016827  -0.020878   0.584503
 Mulliken charges:
               1
     1  C   -0.118806
     2  C    0.178552
     3  O   -0.351951
     4  C   -0.030109
     5  C    0.032116
     6  H    0.059442
     7  H    0.055773
     8  H    0.059767
     9  N   -0.225162
    10  H    0.156372
    11  H    0.168663
    12  H    0.081142
    13  Br  -0.101422
    14  C    0.020276
    15  C   -0.063848
    16  C   -0.024233
    17  C   -0.034918
    18  C   -0.020706
    19  C   -0.066692
    20  H    0.015994
    21  H    0.022998
    22  H    0.023871
    23  H    0.024199
    24  H    0.014961
    25  N   -0.238136
    26  C    0.058098
    27  H    0.152240
    28  H    0.042434
    29  H    0.049009
    30  H    0.060076
 Sum of Mulliken charges =  -0.00000
 Mulliken charges with hydrogens summed into heavy atoms:
               1
     1  C   -0.118806
     2  C    0.178552
     3  O   -0.351951
     4  C    0.051033
     5  C    0.207098
     9  N    0.099873
    13  Br  -0.101422
    14  C    0.020276
    15  C   -0.047854
    16  C   -0.001235
    17  C   -0.011047
    18  C    0.003493
    19  C   -0.051730
    25  N   -0.085896
    26  C    0.209617
 APT charges:
               1
     1  C   -1.027741
     2  C    1.423065
     3  O   -0.936116
     4  C    1.484559
     5  C    0.194872
     6  H   -0.031883
     7  H    0.002499
     8  H    0.045353
     9  N   -0.919873
    10  H    0.151047
    11  H    0.292323
    12  H   -0.010541
    13  Br  -0.423438
    14  C    0.333791
    15  C   -0.184945
    16  C    0.042059
    17  C   -0.148674
    18  C    0.040436
    19  C   -0.157234
    20  H    0.050186
    21  H    0.025439
    22  H    0.032524
    23  H    0.025839
    24  H    0.040169
    25  N   -0.894184
    26  C    0.364616
    27  H    0.220998
    28  H   -0.045246
    29  H   -0.054545
    30  H    0.064646
 Sum of APT charges =   0.00000
 APT charges with hydrogens summed into heavy atoms:
               1
     1  C   -1.027741
     2  C    1.423065
     3  O   -0.936116
     4  C    1.474019
     5  C    0.210841
     9  N   -0.476503
    13  Br  -0.423438
    14  C    0.333791
    15  C   -0.134760
    16  C    0.067499
    17  C   -0.116150
    18  C    0.066275
    19  C   -0.117066
    25  N   -0.673186
    26  C    0.329471
 Electronic spatial extent (au):  <R**2>=           4475.7957
 Charge=             -0.0000 electrons
 Dipole moment (field-independent basis, Debye):
    X=              1.6306    Y=             -1.2358    Z=              2.3346  Tot=              3.1043
 Quadrupole moment (field-independent basis, Debye-Ang):
   XX=           -101.0778   YY=            -93.8168   ZZ=            -94.4644
   XY=              7.1976   XZ=             -5.0592   YZ=             -5.1842
 Traceless Quadrupole moment (field-independent basis, Debye-Ang):
   XX=             -4.6248   YY=              2.6362   ZZ=              1.9886
   XY=              7.1976   XZ=             -5.0592   YZ=             -5.1842
 Octapole moment (field-independent basis, Debye-Ang**2):
  XXX=            -76.5280  YYY=              3.7036  ZZZ=              6.1768  XYY=            -18.3713
  XXY=            -14.9708  XXZ=              5.8846  XZZ=            -45.2118  YZZ=            -12.0719
  YYZ=            -15.3603  XYZ=             17.1667
 Hexadecapole moment (field-independent basis, Debye-Ang**3):
 XXXX=          -2900.6570 YYYY=          -1486.9992 ZZZZ=           -790.6355 XXXY=             61.0936
 XXXZ=             58.1587 YYYX=             94.7591 YYYZ=            -10.7794 ZZZX=             28.8691
 ZZZY=             -7.1384 XXYY=           -776.4975 XXZZ=           -640.0478 YYZZ=           -385.8100
 XXYZ=             17.1094 YYXZ=             -7.3382 ZZXY=             38.4482
 N-N= 1.351913817082D+03 E-N=-1.027925002534D+04  KE= 3.176722795507D+03
  Exact polarizability:     235.107       3.167     170.886      -8.238       9.861     146.749
 Approx polarizability:     213.482       3.839     166.657      -4.954      14.718     150.650
   1 Symmetry operations used in ECPInt.
 ECPInt:  NShTT=   10011 NPrTT=   37668 LenC2=    9556 LenP2D=   25808.
 LDataN:  DoStor=T MaxTD1= 6 Len=  172
 D2PCM: PCM CHGder 2nd derivatives, FixD1E=F FixD2E=F DoIter=F DoCFld=F I1PDM=0
 Calling FoFJK, ICntrl=    100127 FMM=F ISym2X=0 I1Cent= 0 IOpClX= 0 NMat=1 NMatS=1 NMatT=0.
 Full mass-weighted force constant matrix:
 Low frequencies --- -351.6769  -19.5346   -3.7430   -0.0075   -0.0054    0.0008
 Low frequencies ---    8.9523   38.9919   59.7621
 ******    1 imaginary frequencies (negative Signs) ****** 
 Diagonal vibrational polarizability:
      105.9569416      78.3915945     143.0260343
 Harmonic frequencies (cm**-1), IR intensities (KM/Mole), Raman scattering
 activities (A**4/AMU), depolarization ratios for plane and unpolarized
 incident light, reduced masses (AMU), force constants (mDyne/A),
 and normal coordinates:
                      1                      2                      3
                      A                      A                      A
 Frequencies --   -351.6766                38.6777                59.6185
 Red. masses --      5.4051                 4.1716                 3.9319
 Frc consts  --      0.3939                 0.0037                 0.0082
 IR Inten    --    474.0778                 2.2632                 3.8498
  Atom  AN      X      Y      Z        X      Y      Z        X      Y      Z
     1   6     0.01   0.02   0.08    -0.00   0.01   0.04    -0.02   0.04  -0.13
     2   6     0.02  -0.03   0.05    -0.00   0.02  -0.00    -0.02   0.03  -0.09
     3   8    -0.02  -0.01   0.02    -0.06   0.03  -0.11    -0.04   0.00  -0.11
     4   6    -0.07   0.03   0.44     0.01   0.01   0.04     0.00   0.02  -0.07
     5   6    -0.01   0.00  -0.11    -0.09   0.21   0.08     0.22   0.02  -0.12
     6   1    -0.29  -0.03  -0.19    -0.14   0.30   0.04     0.25  -0.05  -0.09
     7   1    -0.07  -0.01  -0.13    -0.05   0.23   0.19     0.29   0.03  -0.20
     8   1     0.03   0.03   0.07    -0.10   0.21   0.06     0.16   0.09  -0.15
     9   7     0.15   0.09  -0.33    -0.06   0.08   0.03     0.14  -0.00  -0.05
    10   1     0.13   0.03  -0.56    -0.04   0.05   0.04     0.17  -0.03   0.01
    11   1     0.11   0.13  -0.20    -0.11   0.06  -0.05     0.10  -0.01  -0.02
    12   1    -0.03   0.03   0.26     0.03   0.01   0.08     0.03   0.03  -0.09
    13  35    -0.01  -0.01  -0.00     0.02  -0.07  -0.00    -0.05  -0.03   0.04
    14   6    -0.02   0.00  -0.02    -0.00   0.01   0.01    -0.01   0.03  -0.07
    15   6     0.01  -0.00  -0.02     0.00  -0.10   0.10    -0.05  -0.01   0.02
    16   6     0.00  -0.00  -0.02    -0.00  -0.11   0.05    -0.06  -0.06   0.14
    17   6     0.00  -0.01  -0.01    -0.02  -0.01  -0.10    -0.03  -0.06   0.16
    18   6    -0.00  -0.01   0.00    -0.03   0.09  -0.19     0.01  -0.01   0.05
    19   6    -0.01  -0.01   0.00    -0.02   0.10  -0.13     0.02   0.04  -0.06
    20   1     0.00  -0.00  -0.02     0.01  -0.18   0.21    -0.08  -0.01   0.01
    21   1     0.00  -0.00  -0.01     0.00  -0.20   0.13    -0.09  -0.09   0.22
    22   1     0.00  -0.01  -0.01    -0.02  -0.02  -0.14    -0.04  -0.10   0.25
    23   1    -0.01  -0.02   0.01    -0.03   0.17  -0.30     0.04  -0.01   0.06
    24   1    -0.01  -0.02   0.02    -0.03   0.19  -0.20     0.05   0.07  -0.13
    25   7    -0.01  -0.00   0.02     0.08   0.01   0.09     0.01   0.05  -0.01
    26   6    -0.01  -0.01   0.01     0.08   0.01   0.08     0.06   0.05   0.11
    27   1    -0.02  -0.00   0.01     0.13   0.01   0.16     0.05   0.08   0.03
    28   1    -0.02   0.01   0.01     0.06   0.00   0.17     0.02  -0.02   0.38
    29   1    -0.01  -0.01   0.01     0.18   0.03   0.05     0.30   0.18   0.08
    30   1    -0.02  -0.01   0.00     0.01   0.02   0.00    -0.10  -0.01  -0.05
                      4                      5                      6
                      A                      A                      A
 Frequencies --     64.3875                73.0741                85.8683
 Red. masses --      3.4106                 1.6215                 1.8082
 Frc consts  --      0.0083                 0.0051                 0.0079
 IR Inten    --      1.0603                 0.3205                 0.1494
  Atom  AN      X      Y      Z        X      Y      Z        X      Y      Z
     1   6    -0.00   0.01  -0.02    -0.01  -0.02   0.01    -0.02  -0.02  -0.03
     2   6    -0.02   0.00   0.02     0.01  -0.01  -0.01     0.02  -0.01  -0.02
     3   8    -0.04  -0.03   0.01     0.03   0.01   0.02     0.05   0.03   0.02
     4   6     0.01   0.00  -0.03    -0.02  -0.01   0.01    -0.02  -0.01  -0.01
     5   6     0.01   0.18   0.01    -0.05  -0.05   0.01    -0.01   0.02  -0.02
     6   1    -0.02   0.23  -0.02    -0.04  -0.04   0.01    -0.00   0.03  -0.02
     7   1     0.10   0.21   0.09    -0.10  -0.06   0.01    -0.03   0.01  -0.01
     8   1    -0.04   0.23  -0.04    -0.02  -0.09   0.03    -0.00  -0.00  -0.02
     9   7    -0.01   0.01   0.00    -0.03   0.01   0.00    -0.01   0.03  -0.01
    10   1     0.04  -0.06   0.03    -0.06   0.04  -0.01    -0.03   0.05  -0.00
    11   1    -0.10  -0.01  -0.05     0.01   0.02   0.01     0.01   0.03  -0.02
    12   1     0.01   0.01  -0.01    -0.03  -0.02   0.02    -0.02  -0.01  -0.00
    13  35     0.02  -0.03  -0.03    -0.02  -0.01   0.01    -0.04  -0.03  -0.00
    14   6    -0.00   0.00  -0.02    -0.01  -0.01   0.01    -0.01  -0.01  -0.01
    15   6     0.03   0.08  -0.15    -0.02   0.02  -0.00    -0.04   0.02  -0.01
    16   6     0.03   0.06  -0.15    -0.01   0.07  -0.03    -0.03   0.06  -0.00
    17   6    -0.01  -0.05  -0.03     0.02   0.08  -0.03     0.01   0.07   0.01
    18   6    -0.05  -0.12   0.10     0.03   0.04  -0.00     0.03   0.03   0.01
    19   6    -0.04  -0.10   0.10     0.01  -0.01   0.02     0.02  -0.01   0.01
    20   1     0.07   0.16  -0.24    -0.04   0.01  -0.00    -0.06   0.02  -0.02
    21   1     0.06   0.12  -0.25    -0.02   0.10  -0.04    -0.04   0.09  -0.00
    22   1    -0.02  -0.06  -0.03     0.03   0.12  -0.05     0.02   0.11   0.01
    23   1    -0.08  -0.21   0.19     0.04   0.04  -0.00     0.06   0.04   0.02
    24   1    -0.06  -0.16   0.18     0.02  -0.04   0.03     0.03  -0.04   0.01
    25   7    -0.01   0.04   0.09    -0.00  -0.04  -0.07     0.04  -0.03  -0.02
    26   6     0.01   0.04   0.21     0.14  -0.02   0.02     0.15  -0.02   0.07
    27   1     0.02   0.08   0.10     0.02  -0.07  -0.02    -0.01  -0.05  -0.08
    28   1    -0.02  -0.02   0.39     0.05  -0.16   0.52     0.33  -0.08  -0.38
    29   1     0.14   0.15   0.22     0.63   0.14  -0.10    -0.30  -0.00   0.25
    30   1    -0.08  -0.03   0.13    -0.20  -0.04  -0.32     0.52   0.05   0.45
                      7                      8                      9
                      A                      A                      A
 Frequencies --     94.1304               100.1976               142.1130
 Red. masses --      3.6888                 7.9495                 2.5489
 Frc consts  --      0.0193                 0.0470                 0.0303
 IR Inten    --      0.8481                 6.4547                 8.2012
  Atom  AN      X      Y      Z        X      Y      Z        X      Y      Z
     1   6     0.01  -0.10  -0.01    -0.02   0.07  -0.01    -0.03   0.02   0.09
     2   6     0.01  -0.10   0.03     0.02   0.08   0.11    -0.01   0.03   0.05
     3   8     0.04  -0.11   0.08     0.24   0.10   0.44    -0.04   0.07  -0.01
     4   6    -0.02  -0.07  -0.02     0.02   0.04  -0.02    -0.03   0.01   0.03
     5   6     0.05   0.26  -0.03     0.04   0.11  -0.01     0.13   0.01  -0.08
     6   1    -0.03   0.30  -0.07     0.04   0.12  -0.02     0.09  -0.27   0.02
     7   1     0.30   0.32   0.07     0.11   0.13   0.00     0.46   0.07  -0.33
     8   1    -0.07   0.43  -0.09     0.00   0.16  -0.05    -0.06   0.35  -0.05
     9   7     0.01  -0.07  -0.05     0.01   0.04   0.01     0.00  -0.11   0.03
    10   1     0.13  -0.23   0.01     0.03   0.01   0.05     0.11  -0.26   0.08
    11   1    -0.18  -0.12  -0.10    -0.01   0.03   0.01    -0.17  -0.15   0.12
    12   1    -0.06  -0.09  -0.07     0.07   0.05  -0.01    -0.01   0.02   0.01
    13  35    -0.04   0.07  -0.00     0.03  -0.08  -0.06     0.01  -0.01  -0.03
    14   6     0.01  -0.07   0.00    -0.03   0.07  -0.04    -0.04   0.00   0.09
    15   6    -0.03  -0.06   0.04    -0.02  -0.00   0.01    -0.02   0.00   0.06
    16   6    -0.01   0.02   0.05    -0.05  -0.10   0.07    -0.02   0.02  -0.02
    17   6     0.06   0.07   0.01    -0.09  -0.11   0.07    -0.04   0.04  -0.06
    18   6     0.10   0.04  -0.03    -0.09  -0.01  -0.02    -0.08   0.02   0.01
    19   6     0.08  -0.03  -0.02    -0.07   0.08  -0.08    -0.08  -0.00   0.08
    20   1    -0.08  -0.09   0.07     0.00  -0.00   0.02     0.00  -0.00   0.07
    21   1    -0.04   0.03   0.08    -0.04  -0.17   0.13     0.01   0.03  -0.07
    22   1     0.08   0.13   0.00    -0.11  -0.20   0.13    -0.04   0.06  -0.13
    23   1     0.15   0.08  -0.05    -0.12  -0.01  -0.03    -0.10   0.02  -0.01
    24   1     0.11  -0.05  -0.04    -0.08   0.16  -0.13    -0.10  -0.00   0.11
    25   7    -0.04  -0.09  -0.01    -0.16   0.04  -0.18     0.06  -0.02   0.06
    26   6    -0.06  -0.10  -0.01    -0.00   0.06  -0.06     0.09  -0.01  -0.10
    27   1    -0.05  -0.08  -0.04    -0.30  -0.01  -0.32     0.05  -0.09   0.08
    28   1    -0.09  -0.08   0.05     0.02  -0.06   0.09     0.10   0.00  -0.14
    29   1    -0.01  -0.10  -0.03     0.14   0.18  -0.06     0.12  -0.10  -0.15
    30   1    -0.10  -0.12  -0.05    -0.06   0.07  -0.12     0.09   0.10  -0.13
                     10                     11                     12
                      A                      A                      A
 Frequencies --    160.9289               163.1514               202.5205
 Red. masses --      2.3614                 3.3013                 1.7166
 Frc consts  --      0.0360                 0.0518                 0.0415
 IR Inten    --      2.9137                11.1116                 7.3381
  Atom  AN      X      Y      Z        X      Y      Z        X      Y      Z
     1   6    -0.03  -0.04   0.04     0.01   0.00  -0.01     0.01  -0.01  -0.03
     2   6    -0.05  -0.04  -0.01     0.09   0.02   0.08     0.03  -0.00  -0.03
     3   8    -0.05  -0.03  -0.01     0.08   0.03   0.06     0.04  -0.01  -0.00
     4   6    -0.04  -0.03   0.06    -0.03   0.03  -0.06    -0.02   0.02   0.01
     5   6     0.14  -0.00  -0.02     0.04   0.01  -0.06     0.01  -0.02  -0.00
     6   1     0.42   0.31  -0.08     0.24   0.29  -0.12    -0.09  -0.51   0.16
     7   1    -0.19  -0.06   0.19    -0.24  -0.04   0.14     0.26  -0.00  -0.46
     8   1     0.26  -0.37  -0.27     0.15  -0.30  -0.25    -0.10   0.33   0.24
     9   7     0.06   0.11   0.09     0.01   0.09  -0.01    -0.01   0.14   0.06
    10   1    -0.02   0.26   0.22    -0.05   0.19   0.06    -0.06   0.22   0.07
    11   1     0.20   0.15   0.04     0.11   0.11  -0.04     0.09   0.17   0.06
    12   1    -0.06  -0.03   0.10    -0.04   0.02  -0.06    -0.05   0.01   0.09
    13  35     0.04   0.02  -0.04    -0.07  -0.04  -0.02    -0.01  -0.01  -0.02
    14   6    -0.04  -0.03   0.05     0.01  -0.03   0.01     0.00  -0.05   0.02
    15   6    -0.04  -0.03   0.05     0.01  -0.02   0.01    -0.01  -0.06   0.04
    16   6    -0.04   0.00   0.01     0.02   0.02  -0.01     0.01  -0.01   0.00
    17   6    -0.03   0.03  -0.03     0.04   0.04  -0.02     0.03   0.03  -0.04
    18   6    -0.03   0.02  -0.01     0.04   0.00   0.01     0.03  -0.01  -0.01
    19   6    -0.04  -0.02   0.03     0.03  -0.04   0.03     0.02  -0.05   0.03
    20   1    -0.05  -0.05   0.07    -0.00  -0.02   0.01    -0.02  -0.07   0.06
    21   1    -0.03   0.00   0.00     0.01   0.05  -0.02    -0.00  -0.00   0.00
    22   1    -0.02   0.06  -0.07     0.05   0.07  -0.04     0.04   0.08  -0.09
    23   1    -0.03   0.03  -0.03     0.05   0.00   0.02     0.05   0.01  -0.03
    24   1    -0.05  -0.02   0.04     0.04  -0.06   0.04     0.02  -0.07   0.04
    25   7    -0.07  -0.05  -0.04     0.16   0.04   0.20    -0.01   0.02  -0.03
    26   6    -0.00  -0.05   0.05    -0.08   0.02  -0.08    -0.08   0.01   0.05
    27   1    -0.05  -0.05  -0.01     0.12   0.05   0.15     0.01   0.07  -0.03
    28   1     0.03  -0.10   0.04    -0.22   0.22  -0.02    -0.11   0.04   0.09
    29   1    -0.02   0.02   0.08     0.02  -0.21  -0.23    -0.09   0.05   0.08
    30   1     0.03  -0.05   0.08    -0.23   0.03  -0.25    -0.09  -0.08   0.06
                     13                     14                     15
                      A                      A                      A
 Frequencies --    226.1634               261.1411               269.5045
 Red. masses --      4.2713                 4.8974                 4.2101
 Frc consts  --      0.1287                 0.1968                 0.1802
 IR Inten    --      2.0625                 8.5459                25.0617
  Atom  AN      X      Y      Z        X      Y      Z        X      Y      Z
     1   6    -0.05  -0.05  -0.07    -0.03   0.02  -0.12     0.01   0.03  -0.01
     2   6     0.01  -0.06   0.03     0.08   0.05  -0.08     0.01   0.03  -0.01
     3   8     0.01  -0.04   0.04     0.12   0.06  -0.02    -0.00   0.01  -0.02
     4   6    -0.02  -0.05   0.05     0.01   0.00  -0.04    -0.00   0.03   0.06
     5   6     0.00  -0.01   0.12    -0.04   0.01   0.01     0.05  -0.02   0.33
     6   1    -0.14  -0.26   0.18    -0.11   0.20  -0.08    -0.26   0.05   0.22
     7   1     0.13  -0.00  -0.08    -0.10   0.01   0.23     0.07   0.00   0.47
     8   1    -0.03   0.17   0.31     0.02  -0.10  -0.00     0.12   0.01   0.53
     9   7     0.05   0.06   0.07     0.05  -0.10  -0.10     0.24  -0.10   0.05
    10   1     0.00   0.13   0.07     0.07  -0.16  -0.16     0.23  -0.10  -0.02
    11   1     0.12   0.08   0.05    -0.03  -0.12  -0.09     0.19  -0.11   0.07
    12   1    -0.02  -0.05   0.07     0.06   0.02  -0.06    -0.01   0.03  -0.05
    13  35     0.05   0.02  -0.01     0.08   0.00   0.04    -0.07   0.00  -0.08
    14   6    -0.07   0.01  -0.16    -0.10  -0.12  -0.00     0.00  -0.01   0.01
    15   6    -0.14   0.08  -0.15    -0.19  -0.12   0.09     0.01  -0.03   0.03
    16   6    -0.15   0.07   0.00    -0.16   0.02   0.02     0.02  -0.01   0.01
    17   6    -0.10   0.01   0.11    -0.09   0.13  -0.09     0.03   0.01  -0.03
    18   6    -0.02   0.01   0.00    -0.05  -0.02   0.01     0.01  -0.00   0.00
    19   6    -0.03   0.02  -0.15    -0.09  -0.16   0.07     0.01  -0.02   0.03
    20   1    -0.21   0.10  -0.22    -0.27  -0.18   0.13     0.01  -0.04   0.05
    21   1    -0.19   0.09   0.04    -0.19   0.06   0.03     0.01  -0.01   0.01
    22   1    -0.11  -0.03   0.27    -0.05   0.29  -0.21     0.03   0.04  -0.06
    23   1     0.05  -0.01   0.06     0.02  -0.00   0.01     0.01  -0.00  -0.00
    24   1     0.01   0.01  -0.19    -0.07  -0.23   0.10     0.01  -0.04   0.04
    25   7     0.12  -0.07   0.17     0.07   0.10  -0.03    -0.01   0.04  -0.03
    26   6     0.03  -0.08  -0.06    -0.08   0.08   0.03     0.01   0.05  -0.01
    27   1     0.03  -0.10   0.07     0.07   0.17  -0.07     0.00   0.05  -0.02
    28   1    -0.03   0.03  -0.07    -0.14   0.17   0.08     0.03   0.03  -0.01
    29   1     0.07  -0.25  -0.15    -0.11   0.09   0.05     0.00   0.07   0.00
    30   1    -0.04  -0.01  -0.14    -0.11  -0.05   0.02     0.03   0.05   0.01
                     16                     17                     18
                      A                      A                      A
 Frequencies --    314.6457               334.6254               419.1543
 Red. masses --      3.5893                 4.1448                 7.0590
 Frc consts  --      0.2094                 0.2734                 0.7307
 IR Inten    --     51.5238                 2.9701                14.7768
  Atom  AN      X      Y      Z        X      Y      Z        X      Y      Z
     1   6    -0.00  -0.02   0.10    -0.03   0.03  -0.01    -0.10   0.01   0.06
     2   6     0.09   0.02  -0.05    -0.11   0.07   0.06    -0.16   0.06   0.08
     3   8     0.10   0.11  -0.08    -0.14  -0.01   0.06    -0.10   0.48   0.01
     4   6    -0.07   0.03   0.21    -0.04   0.04   0.07     0.00  -0.08  -0.14
     5   6     0.04  -0.02  -0.01     0.00  -0.01  -0.01    -0.00   0.01   0.01
     6   1     0.22   0.12  -0.02     0.10   0.02  -0.00    -0.15  -0.04  -0.00
     7   1     0.02  -0.01   0.07    -0.01  -0.01  -0.01     0.01   0.01   0.01
     8   1    -0.02  -0.08  -0.25    -0.01  -0.04  -0.10     0.03   0.05   0.15
     9   7    -0.12  -0.11   0.13    -0.06  -0.01   0.06     0.09   0.01  -0.09
    10   1     0.01  -0.30   0.12    -0.01  -0.08   0.04    -0.00   0.17   0.00
    11   1    -0.31  -0.15   0.26    -0.12  -0.02   0.11     0.17   0.04  -0.11
    12   1    -0.09   0.03   0.23    -0.02   0.05   0.07     0.05  -0.07  -0.23
    13  35    -0.01  -0.00  -0.02     0.02   0.00   0.00     0.02   0.00   0.01
    14   6    -0.00  -0.04  -0.05    -0.02  -0.11  -0.11    -0.05  -0.03  -0.04
    15   6    -0.01   0.01  -0.09    -0.05  -0.12  -0.08     0.00  -0.06  -0.08
    16   6    -0.01   0.01   0.00    -0.02  -0.04   0.01     0.02  -0.05  -0.00
    17   6     0.02  -0.02   0.07     0.11   0.02   0.00     0.11  -0.02   0.00
    18   6     0.06   0.01  -0.02     0.16  -0.04  -0.01     0.11  -0.00  -0.01
    19   6     0.04  -0.00  -0.09     0.10  -0.15  -0.05     0.06  -0.06   0.01
    20   1    -0.05   0.02  -0.12    -0.11  -0.15  -0.07     0.03  -0.04  -0.09
    21   1    -0.05   0.03   0.03    -0.11   0.00   0.09    -0.05  -0.02   0.05
    22   1     0.01  -0.06   0.17     0.14   0.09   0.04     0.12   0.00   0.03
    23   1     0.10   0.02  -0.02     0.23  -0.03   0.01     0.10   0.01  -0.03
    24   1     0.07  -0.02  -0.10     0.18  -0.27  -0.04     0.13  -0.16   0.01
    25   7     0.07   0.03  -0.09    -0.13   0.11   0.07    -0.02  -0.15   0.02
    26   6    -0.09  -0.00   0.08     0.10   0.18  -0.09    -0.09  -0.20   0.08
    27   1     0.13   0.12  -0.06    -0.12   0.03   0.11    -0.08  -0.21  -0.01
    28   1    -0.17   0.08   0.16     0.23   0.03  -0.19    -0.15  -0.14   0.15
    29   1    -0.15   0.08   0.14     0.18   0.12  -0.14    -0.09  -0.17   0.09
    30   1    -0.12  -0.23   0.09     0.15   0.46  -0.09    -0.14  -0.32   0.04
                     19                     20                     21
                      A                      A                      A
 Frequencies --    425.1580               475.3593               519.4175
 Red. masses --      2.8939                 3.7544                 3.4029
 Frc consts  --      0.3082                 0.4998                 0.5409
 IR Inten    --      3.6079                33.7104                40.1251
  Atom  AN      X      Y      Z        X      Y      Z        X      Y      Z
     1   6    -0.01   0.00  -0.03     0.09  -0.04   0.27    -0.12  -0.09  -0.13
     2   6    -0.00  -0.01  -0.02     0.10   0.01   0.11    -0.06  -0.01  -0.11
     3   8     0.01  -0.03   0.00    -0.00  -0.01  -0.05     0.03   0.03   0.02
     4   6    -0.01   0.01   0.00     0.06  -0.04  -0.12    -0.10  -0.13   0.03
     5   6    -0.00  -0.00   0.00    -0.00   0.01  -0.01     0.00   0.00   0.00
     6   1    -0.00   0.00  -0.00    -0.07  -0.04  -0.01    -0.04   0.02  -0.02
     7   1    -0.01  -0.00   0.01     0.04   0.02  -0.03     0.02   0.01   0.03
     8   1    -0.00  -0.01  -0.00     0.00   0.06   0.07    -0.00   0.02   0.02
     9   7    -0.00  -0.00   0.00     0.05   0.02  -0.06     0.01  -0.03  -0.02
    10   1     0.01  -0.02  -0.01    -0.07   0.23   0.09    -0.04   0.08   0.09
    11   1    -0.01  -0.01   0.01     0.23   0.05  -0.19     0.09  -0.01  -0.07
    12   1    -0.01   0.01   0.03     0.05  -0.04  -0.25    -0.10  -0.13   0.12
    13  35     0.00  -0.00   0.00    -0.01  -0.00   0.00     0.01   0.01   0.00
    14   6    -0.00   0.02   0.01    -0.00  -0.16   0.11    -0.06  -0.09   0.20
    15   6     0.04   0.14  -0.15    -0.04   0.02  -0.06     0.01  -0.00   0.03
    16   6    -0.02  -0.13   0.16    -0.05   0.07  -0.03     0.04   0.03  -0.11
    17   6    -0.00  -0.00  -0.01    -0.08  -0.04   0.12     0.04  -0.12   0.10
    18   6     0.01   0.13  -0.15    -0.00   0.04  -0.09     0.03   0.06  -0.07
    19   6    -0.04  -0.11   0.18    -0.03  -0.06  -0.05     0.04   0.06   0.04
    20   1     0.08   0.30  -0.35    -0.10   0.09  -0.18     0.12   0.17  -0.15
    21   1    -0.05  -0.27   0.34    -0.05   0.14  -0.12     0.08   0.20  -0.33
    22   1    -0.00   0.00  -0.03    -0.09  -0.09   0.23     0.03  -0.15   0.14
    23   1     0.03   0.28  -0.36     0.10   0.16  -0.21    -0.00   0.20  -0.28
    24   1    -0.08  -0.25   0.35    -0.01   0.00  -0.13     0.07   0.23  -0.15
    25   7     0.02  -0.00   0.01    -0.06   0.05  -0.07     0.02   0.06   0.06
    26   6     0.01  -0.00  -0.00     0.00   0.08  -0.01     0.01   0.10  -0.00
    27   1    -0.07  -0.00  -0.10     0.29   0.09   0.36    -0.28   0.07  -0.35
    28   1    -0.00   0.01   0.00     0.05   0.00  -0.03    -0.00   0.11  -0.01
    29   1     0.01  -0.01  -0.01    -0.00   0.13   0.02     0.04   0.04  -0.05
    30   1    -0.00  -0.00  -0.01     0.04   0.11   0.03    -0.02   0.15  -0.04
                     22                     23                     24
                      A                      A                      A
 Frequencies --    568.0394               579.5346               628.7897
 Red. masses --      2.3541                 1.4937                 3.8608
 Frc consts  --      0.4475                 0.2956                 0.8994
 IR Inten    --     43.9131                45.3975                27.9923
  Atom  AN      X      Y      Z        X      Y      Z        X      Y      Z
     1   6     0.04   0.12   0.00    -0.04   0.03  -0.10     0.10  -0.02  -0.10
     2   6     0.01   0.03   0.04    -0.01   0.00  -0.00    -0.05  -0.01  -0.00
     3   8    -0.05  -0.06  -0.00     0.01  -0.01   0.03    -0.01   0.08   0.01
     4   6    -0.03   0.23  -0.06    -0.07   0.08  -0.01     0.17  -0.04   0.05
     5   6    -0.00  -0.00   0.01     0.00  -0.00   0.01    -0.00  -0.00  -0.00
     6   1     0.01   0.01   0.01    -0.00   0.01   0.00     0.10  -0.03   0.03
     7   1    -0.06  -0.02   0.01    -0.03  -0.01   0.02    -0.11  -0.03  -0.06
     8   1     0.04  -0.05   0.02     0.02  -0.03   0.02     0.05  -0.10  -0.03
     9   7     0.02   0.03   0.00     0.01   0.01   0.00    -0.01   0.07   0.03
    10   1     0.14  -0.20  -0.20     0.08  -0.12  -0.10     0.21  -0.34  -0.34
    11   1    -0.17  -0.01   0.16    -0.10  -0.01   0.09    -0.32  -0.01   0.18
    12   1    -0.01   0.24  -0.08    -0.05   0.09   0.01     0.11  -0.06   0.17
    13  35     0.01  -0.01   0.00     0.01  -0.00   0.00    -0.02   0.00  -0.01
    14   6    -0.01  -0.08   0.06    -0.04  -0.01   0.04     0.13  -0.01   0.06
    15   6    -0.02  -0.04   0.01    -0.00  -0.01  -0.01    -0.06   0.15   0.13
    16   6    -0.00   0.04  -0.04     0.01  -0.00  -0.03    -0.13   0.01  -0.03
    17   6    -0.01  -0.03   0.06     0.03  -0.03   0.03    -0.14  -0.03  -0.01
    18   6     0.02   0.02  -0.04     0.01   0.04  -0.01     0.07  -0.17  -0.14
    19   6    -0.00  -0.03  -0.01     0.00   0.01   0.03     0.12  -0.04   0.03
    20   1    -0.03   0.04  -0.11     0.05   0.01  -0.02    -0.08   0.20   0.05
    21   1     0.00   0.15  -0.16     0.01   0.06  -0.08     0.02  -0.04  -0.18
    22   1    -0.01  -0.02   0.07     0.03  -0.05   0.04    -0.08   0.15   0.08
    23   1     0.07   0.11  -0.14    -0.01   0.08  -0.09     0.12  -0.10  -0.22
    24   1     0.03   0.03  -0.11     0.03   0.04  -0.02     0.01   0.14   0.01
    25   7     0.04  -0.05   0.00    -0.03  -0.03  -0.04    -0.05  -0.02   0.03
    26   6     0.01  -0.09   0.01    -0.01  -0.05  -0.01    -0.01  -0.01   0.00
    27   1    -0.42  -0.14  -0.54     0.57   0.00   0.73     0.05  -0.01   0.16
    28   1    -0.04  -0.04   0.06     0.01  -0.06  -0.04     0.03  -0.05  -0.02
    29   1    -0.02  -0.08   0.03    -0.03  -0.03   0.01     0.03  -0.03  -0.02
    30   1    -0.02  -0.18   0.00     0.02  -0.05   0.02     0.00   0.06  -0.01
                     25                     26                     27
                      A                      A                      A
 Frequencies --    641.2123               708.6314               724.0031
 Red. masses --      4.6670                 1.9656                 2.7012
 Frc consts  --      1.1306                 0.5815                 0.8342
 IR Inten    --     12.5730                32.0142                41.8010
  Atom  AN      X      Y      Z        X      Y      Z        X      Y      Z
     1   6     0.06  -0.04  -0.12     0.02   0.05  -0.06     0.01   0.07   0.00
     2   6    -0.07  -0.02  -0.04    -0.04   0.02  -0.04    -0.03   0.05  -0.04
     3   8    -0.00   0.08   0.02    -0.02   0.01   0.03    -0.01  -0.03   0.03
     4   6     0.14  -0.08   0.04    -0.05   0.10   0.06     0.18  -0.04   0.05
     5   6    -0.00  -0.00  -0.00    -0.00  -0.00  -0.01    -0.01   0.00  -0.01
     6   1     0.07  -0.03   0.03    -0.07   0.07  -0.06     0.04   0.01  -0.00
     7   1    -0.09  -0.03  -0.05     0.18   0.05   0.10     0.04   0.01  -0.02
     8   1     0.04  -0.07  -0.02    -0.10   0.12  -0.05    -0.04   0.02  -0.06
     9   7    -0.01   0.05   0.03    -0.03  -0.11  -0.02    -0.02  -0.02   0.01
    10   1     0.16  -0.27  -0.26    -0.34   0.46   0.47    -0.09   0.10   0.07
    11   1    -0.24  -0.01   0.13     0.40  -0.00  -0.20     0.10   0.00  -0.11
    12   1     0.08  -0.10   0.18    -0.03   0.10   0.03     0.24  -0.02   0.07
    13  35    -0.02   0.00  -0.01     0.00  -0.00   0.00    -0.02   0.00  -0.01
    14   6     0.08  -0.12  -0.04     0.08  -0.01  -0.01    -0.03   0.08  -0.08
    15   6     0.14  -0.11  -0.02     0.04   0.04   0.06    -0.05  -0.09   0.04
    16   6     0.22   0.14   0.11     0.04   0.06   0.04    -0.02   0.05  -0.15
    17   6    -0.09   0.07   0.10    -0.09   0.01   0.02     0.03  -0.07   0.08
    18   6    -0.14   0.13   0.04     0.01  -0.06  -0.06     0.02   0.12  -0.09
    19   6    -0.19  -0.14  -0.09     0.01  -0.07  -0.03    -0.02  -0.03   0.11
    20   1    -0.04  -0.07  -0.16    -0.03   0.06   0.01    -0.06  -0.32   0.34
    21   1     0.24   0.23  -0.00     0.14   0.03  -0.06    -0.10   0.00   0.00
    22   1    -0.15  -0.11  -0.14    -0.08   0.03   0.00    -0.02  -0.32   0.42
    23   1     0.08   0.25  -0.03     0.13  -0.02  -0.07    -0.07   0.03   0.00
    24   1    -0.16  -0.08  -0.18    -0.05  -0.02  -0.01    -0.03  -0.28   0.34
    25   7    -0.04  -0.01   0.04    -0.00  -0.01   0.01     0.04  -0.00  -0.01
    26   6    -0.01   0.00   0.00     0.00  -0.04   0.00     0.01  -0.03  -0.00
    27   1    -0.01  -0.00   0.08     0.05  -0.04   0.09     0.03  -0.03  -0.01
    28   1     0.02  -0.03  -0.02    -0.00  -0.03  -0.00    -0.03   0.02   0.02
    29   1     0.03  -0.03  -0.03    -0.00  -0.04  -0.00    -0.03  -0.02   0.02
    30   1    -0.00   0.09  -0.01    -0.00  -0.04  -0.00    -0.00  -0.11   0.01
                     28                     29                     30
                      A                      A                      A
 Frequencies --    732.1488               792.1501               816.1402
 Red. masses --      1.7727                 3.5387                 3.4833
 Frc consts  --      0.5599                 1.3083                 1.3670
 IR Inten    --    141.5733                 9.7394                53.5902
  Atom  AN      X      Y      Z        X      Y      Z        X      Y      Z
     1   6     0.01   0.07  -0.00     0.00  -0.05  -0.11    -0.04  -0.02   0.23
     2   6    -0.02   0.05  -0.02     0.18  -0.05   0.25    -0.15  -0.02  -0.22
     3   8    -0.02  -0.03   0.02    -0.00   0.04  -0.10     0.03  -0.04   0.08
     4   6     0.15  -0.03   0.06    -0.08  -0.03   0.01    -0.10  -0.01  -0.07
     5   6    -0.01   0.00  -0.01     0.00  -0.00   0.01     0.00   0.00   0.01
     6   1     0.03   0.01  -0.00     0.00   0.00   0.00    -0.03  -0.04   0.01
     7   1     0.04   0.01  -0.01     0.02   0.00   0.01    -0.08  -0.02  -0.03
     8   1    -0.04   0.02  -0.05    -0.01   0.01  -0.01     0.05  -0.03   0.07
     9   7    -0.02  -0.02   0.01    -0.02  -0.01   0.01     0.03   0.04  -0.01
    10   1    -0.11   0.12   0.10    -0.04   0.03   0.06     0.15  -0.15  -0.13
    11   1     0.11   0.00  -0.10    -0.00   0.00   0.01    -0.12   0.01   0.07
    12   1     0.24  -0.00   0.06    -0.12  -0.05  -0.10    -0.13  -0.02  -0.13
    13  35    -0.01   0.00  -0.01     0.01  -0.00   0.00     0.01  -0.00   0.00
    14   6    -0.04  -0.01   0.02     0.03   0.14  -0.18     0.03   0.12  -0.15
    15   6    -0.04  -0.04  -0.04    -0.01  -0.04   0.09     0.01  -0.01   0.07
    16   6    -0.05  -0.08   0.03     0.00   0.01  -0.02     0.02   0.02   0.03
    17   6     0.05  -0.01   0.01    -0.01  -0.09   0.10    -0.05  -0.06   0.09
    18   6    -0.01  -0.01   0.09    -0.01   0.03  -0.01     0.03  -0.05  -0.03
    19   6    -0.01   0.02   0.01    -0.01  -0.03   0.09     0.01  -0.06   0.02
    20   1     0.04   0.20  -0.34     0.02  -0.01   0.05    -0.02  -0.02   0.07
    21   1    -0.05   0.21  -0.25     0.08   0.28  -0.40     0.14   0.24  -0.34
    22   1     0.13   0.32  -0.40     0.06   0.24  -0.35     0.04   0.31  -0.36
    23   1     0.00   0.22  -0.23     0.02   0.31  -0.39     0.14   0.20  -0.33
    24   1     0.09   0.23  -0.29    -0.00   0.00   0.06    -0.01  -0.10   0.07
    25   7     0.03  -0.00  -0.02    -0.08  -0.01  -0.02     0.08   0.01   0.01
    26   6     0.00  -0.03  -0.00    -0.01   0.01   0.00     0.01   0.03  -0.00
    27   1     0.07  -0.03   0.05    -0.14   0.03  -0.11     0.13   0.03   0.06
    28   1    -0.03   0.01   0.02     0.05  -0.06  -0.03    -0.04   0.09   0.02
    29   1    -0.03  -0.01   0.02     0.04   0.02  -0.01    -0.03   0.04   0.01
    30   1    -0.00  -0.11   0.01     0.01   0.13  -0.01    -0.00  -0.05   0.00
                     31                     32                     33
                      A                      A                      A
 Frequencies --    842.6629               870.3033               944.1432
 Red. masses --      3.7212                 1.2505                 1.4770
 Frc consts  --      1.5568                 0.5581                 0.7757
 IR Inten    --     17.1193                 1.4568                 2.0550
  Atom  AN      X      Y      Z        X      Y      Z        X      Y      Z
     1   6    -0.13   0.01  -0.06     0.00   0.00  -0.00    -0.01   0.01   0.03
     2   6     0.02   0.15   0.16    -0.00   0.01  -0.00    -0.00  -0.02  -0.01
     3   8    -0.16  -0.07   0.07    -0.00  -0.00   0.00     0.01  -0.00  -0.00
     4   6    -0.04  -0.15   0.00    -0.01  -0.00   0.00    -0.02  -0.01   0.00
     5   6     0.00   0.01   0.00    -0.00  -0.00   0.00     0.00   0.00   0.00
     6   1     0.01  -0.04   0.02     0.00   0.00  -0.00     0.01  -0.01   0.01
     7   1    -0.07  -0.01  -0.05     0.01   0.00   0.00    -0.01  -0.00  -0.01
     8   1     0.04  -0.04   0.03    -0.00   0.00  -0.00     0.00  -0.00  -0.00
     9   7     0.00   0.03   0.01    -0.00  -0.00   0.00    -0.00   0.00   0.00
    10   1     0.07  -0.08  -0.05    -0.00   0.00   0.00     0.01  -0.01  -0.01
    11   1    -0.09   0.00  -0.01     0.00   0.00   0.00    -0.01   0.00  -0.01
    12   1     0.02  -0.15  -0.04     0.00   0.00  -0.00     0.01  -0.00  -0.13
    13  35     0.00   0.00   0.00     0.00   0.00   0.00     0.00  -0.00   0.00
    14   6    -0.02  -0.00   0.01     0.00  -0.00   0.00     0.00   0.05  -0.07
    15   6     0.04   0.04   0.04     0.01   0.05  -0.07    -0.01  -0.06   0.09
    16   6     0.07   0.05   0.05     0.01   0.04  -0.05     0.01   0.02  -0.01
    17   6    -0.05   0.02  -0.01     0.00  -0.00   0.01     0.02   0.06  -0.08
    18   6     0.03  -0.06  -0.05    -0.01  -0.05   0.05     0.01  -0.01  -0.01
    19   6     0.01  -0.04  -0.03    -0.01  -0.05   0.05    -0.02  -0.07   0.08
    20   1     0.04   0.06   0.01    -0.06  -0.33   0.43     0.06   0.33  -0.41
[...]
 .00110916,0.00269099,-0.00179865,-0.00012977,-0.00039564,0.00038572,-0
 .00007464,0.00017316,0.00000735,0.00019505,-0.00173396,-0.00015458,0.0
 0003896,-0.00004434,0.00003564,-0.00002354,0.00000500,-0.00000031,0.00
 000701,0.00002293,-0.00002537,-0.00002199,-0.00002399,0.00001585,0.000
 19244,0.00036852,-0.00042234,0.00003120,-0.00002729,-0.00008384,-0.000
 03763,0.00000648,0.00009646,0.00074908,0.00033681,-0.00064324,-0.00006
 147,0.00011787,-0.00005748,-0.01330867,-0.00625521,-0.00390450,0.00155
 150,-0.00504316,0.00262617,0.00040542,0.00059151,-0.00032281,-0.000212
 61,-0.00307564,0.00470307,0.00348074,-0.00025212,0.00443038,-0.1102181
 7,-0.08678682,-0.13366629,-0.00064492,-0.00038122,-0.00031539,0.000058
 60,0.00046131,-0.00060242,0.00010279,-0.00007482,0.00013183,0.00051440
 ,0.00236197,-0.00233517,0.11623457,0.09675839,0.13203894,0.01420184,-0
 .00725926,-0.00075772,-0.16645085,-0.07908034,0.08369965,-0.05934020,-
 0.03182839,0.05771303,0.00124076,0.00489656,-0.00082154,-0.00098042,-0
 .00017408,-0.00071267,0.00011350,0.00006263,0.00011736,0.00018870,-0.0
 0016684,0.00019635,-0.00008722,0.00013621,-0.00011502,-0.00041399,-0.0
 0241515,0.00120448,0.00025956,-0.00035863,0.00026613,0.00127817,0.0044
 5355,-0.00263676,0.00053226,0.00051898,-0.00015498,-0.00048382,-0.0002
 4015,-0.00007361,-0.00445445,0.00088419,0.00156276,-0.00166554,0.00239
 938,-0.00391752,0.00167422,0.00025399,-0.00032129,0.00051798,0.0008718
 4,0.00114495,-0.00168249,0.00019248,-0.00012859,0.00169959,-0.00154325
 ,-0.00078577,0.00005433,0.00045754,0.00218519,0.00011322,0.00000515,-0
 .00009360,-0.00006654,0.00007042,0.00015218,0.00001476,0.00000324,0.00
 000838,0.00000497,0.00020361,0.00013102,0.57746241,-0.02348562,-0.0512
 0824,0.01730796,-0.07790883,-0.25715589,0.06143079,-0.01535214,0.02333
 425,0.01295455,0.01643192,-0.00047173,-0.00617862,-0.00180990,0.000330
 85,-0.00086021,0.00036867,-0.00004034,0.00048953,0.00016337,-0.0002128
 5,0.00010720,0.00007945,-0.00001385,-0.00052747,-0.00334757,-0.0009148
 8,0.00520108,0.00020118,0.00024177,0.00089350,0.00095210,0.00055035,-0
 .00103248,-0.00168639,-0.00118934,-0.00034070,-0.00299232,0.00032271,-
 0.00005617,-0.00662751,-0.00074054,0.00256895,0.00318831,-0.00089290,-
 0.00025003,-0.00097808,0.00055029,0.00055782,0.00079667,-0.00078536,-0
 .00050179,0.00025922,0.00023437,0.00040195,0.00071300,-0.00039776,-0.0
 0025300,0.00020419,-0.00004213,0.00045149,0.00022599,-0.00004950,0.000
 18064,0.00010495,0.00003907,-0.00005745,0.00010993,-0.00010965,-0.0000
 5496,-0.00014312,0.00024092,0.00014804,-0.02865666,0.72747124,0.001789
 38,0.00597110,0.01109004,0.08859770,0.07189451,-0.11611233,0.05330215,
 0.01977884,-0.02001461,-0.00132657,-0.00256300,0.00234708,0.00049427,0
 .00007969,0.00057723,-0.00009381,-0.00006221,-0.00009203,-0.00012813,0
 .00013007,-0.00011814,0.00000459,-0.00008592,0.00001595,0.00040403,0.0
 0107979,-0.00104676,-0.00019174,0.00000594,-0.00014673,-0.00053375,-0.
 00249881,0.00178346,-0.00000618,-0.00035164,-0.00066930,0.00007579,0.0
 0041889,0.00022659,-0.00032152,-0.00008622,-0.00102298,-0.00157303,0.0
 0017395,-0.00123780,0.00047988,0.00051738,-0.00014413,-0.00013786,0.00
 010878,0.00025617,-0.00022478,0.00013700,-0.00002165,-0.00005814,-0.00
 025879,0.00023109,-0.00003458,0.00038423,0.00097031,-0.00001348,0.0000
 2305,-0.00009532,-0.00006532,0.00002019,0.00010005,-0.00001489,0.00006
 128,-0.00000767,0.00009966,0.00008363,-0.00006689,-0.37764697,-0.01270
 597,0.35609683,-0.00026692,-0.00434674,0.00416690,0.01196718,-0.014407
 26,-0.01072123,-0.00282240,-0.00130286,0.00032834,0.00250128,0.0002239
 3,-0.00040163,-0.00022721,0.00005001,-0.00014368,0.00005186,-0.0000057
 3,0.00007425,0.00002739,-0.00002527,0.00001944,0.00001502,-0.00000945,
 -0.00006619,-0.00056332,-0.00017574,0.00088713,0.00002529,0.00004690,0
 .00012370,0.00011668,0.00006917,-0.00021689,-0.00010374,-0.00017435,-0
 .00041652,-0.00066920,0.00005367,-0.00000206,-0.00102327,0.00012394,0.
 00006053,0.00013463,0.00032489,0.00003184,0.00012610,-0.00010566,-0.00
 011169,0.00016444,0.00007856,0.00012505,-0.00025138,0.00000094,-0.0000
 3236,0.00039352,-0.00039151,-0.00028217,-0.00001681,0.00007229,-0.0000
 4429,-0.00000714,0.00001083,0.00000509,0.00001458,0.00000043,-0.000006
 13,0.00001025,-0.00002056,-0.00000928,-0.00000986,0.00001615,0.0000114
 6,-0.10193625,0.02842540,0.02970989,0.60229229,-0.00036296,0.00585501,
 0.00028712,-0.01105368,-0.03990402,0.01051529,0.00851496,-0.00152287,-
 0.00732066,-0.00337949,-0.00173415,0.00234570,0.00051354,-0.00008493,0
 .00033146,-0.00010784,0.00000102,-0.00016837,-0.00006433,0.00007912,-0
 .00004894,-0.00001660,-0.00005086,0.00016405,0.00108105,0.00057271,-0.
 00179337,-0.00007847,-0.00006257,-0.00025514,-0.00035261,-0.00067542,0
 .00055195,0.00008909,0.00004257,-0.00006140,0.00066957,0.00006808,-0.0
 0005213,0.00063923,0.00030233,-0.00048577,-0.00072907,0.00029684,-0.00
 061908,0.00070138,-0.00006035,-0.00006523,-0.00019862,0.00040018,0.000
 35474,-0.00042531,-0.00004709,-0.00009789,0.00010538,-0.00016989,-0.00
 031686,0.00024292,0.00001367,0.00073762,-0.00009765,0.00001429,-0.0000
 9311,-0.00007263,0.00003445,0.00004670,-0.00004664,0.00004902,0.000036
 58,0.00005865,-0.00003230,-0.00000332,0.03416953,-0.25927177,-0.012139
 00,0.02262367,0.53125605,0.00440757,0.00088889,0.00338096,-0.01412638,
 0.01173876,0.00614637,0.00166994,-0.00177624,-0.00376916,-0.00045041,0
 .00126989,0.00095976,0.00009234,-0.00000826,0.00005479,-0.00001163,0.0
 0000880,-0.00003427,-0.00001053,0.00001524,-0.00001127,0.00000181,-0.0
 0001327,0.00002009,-0.00008070,-0.00009149,-0.00005192,-0.00003336,0.0
 0002737,0.00003199,-0.00008936,-0.00020574,0.00014916,0.00035536,0.000
 21469,-0.00049118,-0.00030398,-0.00002194,-0.00003857,0.00039660,-0.00
 025146,-0.00017782,-0.00034332,-0.00003186,-0.00002126,0.00004721,-0.0
 0008747,-0.00003140,-0.00005988,0.00007358,0.00007228,-0.00006521,-0.0
 0000957,-0.00002538,-0.00007030,0.00005623,-0.00001072,0.00002915,0.00
 010449,-0.00007408,-0.00003099,0.00002463,-0.00003472,-0.00000350,-0.0
 0000124,0.00000003,-0.00001105,0.00000064,0.00000244,0.00001291,-0.000
 02387,-0.00002389,0.03026553,-0.00540806,-0.08182674,-0.01960122,-0.01
 459383,0.58998008,-0.00022069,0.00313886,-0.00197527,-0.01569647,0.006
 05643,0.00727477,0.00209445,-0.00299102,0.00414804,-0.00189568,-0.0006
 4582,0.00110657,0.00028749,-0.00007037,0.00008747,-0.00007114,0.000004
 74,-0.00005545,-0.00000610,0.00003628,-0.00000609,-0.00002472,-0.00000
 505,0.00006296,0.00049047,-0.00002199,-0.00094530,-0.00000246,-0.00008
 972,-0.00010636,0.00005870,0.00031769,-0.00006945,0.00005289,0.0000353
 8,0.00012372,0.00030451,-0.00002070,-0.00012347,0.00196474,0.00072468,
 -0.00025783,-0.00064494,0.00029547,-0.00030172,-0.00054337,0.00011777,
 0.00014334,-0.00024241,-0.00018650,-0.00019999,0.00035881,-0.00005161,
 0.00001081,-0.00036421,0.00032822,0.00021132,-0.00006212,0.00014482,-0
 .00045920,-0.00002432,0.00002254,-0.00002321,0.00001399,-0.00002588,-0
 .00001490,-0.00000610,-0.00001292,-0.00000144,-0.00000528,-0.00007941,
 -0.00007660,-0.27157779,0.09186648,0.20237580,0.00086643,-0.00143721,-
 0.00199887,0.28392970,-0.00042724,-0.00215847,-0.00003297,-0.01750339,
 0.01773334,0.01289656,-0.00538887,-0.00450044,0.00448509,-0.00014290,0
 .00001338,-0.00008025,-0.00002545,-0.00004351,-0.00009732,0.00000483,0
 .00001506,-0.00001378,0.00001426,-0.00002329,0.00002760,-0.00002865,0.
 00003533,0.00002450,0.00022414,-0.00019561,-0.00014977,0.00003529,-0.0
 0004644,-0.00005667,0.00009733,0.00066071,-0.00034480,-0.00001039,0.00
 001726,0.00006271,0.00015469,-0.00001053,0.00000920,-0.00023002,-0.001
 88442,0.00095910,0.00133313,-0.00047449,0.00111551,0.00017947,-0.00010
 313,-0.00007165,-0.00004610,0.00013508,0.00015110,-0.00019078,-0.00007
 075,-0.00005836,0.00033543,-0.00032735,-0.00053423,0.00005004,-0.00005
 539,-0.00007940,-0.00007998,-0.00000984,-0.00002531,-0.00003087,0.0000
 3244,-0.00002072,-0.00003095,0.00003146,0.00002050,0.00000096,0.000023
 03,0.00004336,0.09460770,-0.10839574,-0.06939079,0.02348006,-0.0044264
 9,-0.01903489,-0.09662423,0.10916724,-0.00091044,0.00044026,-0.0010213
 8,0.00458430,-0.00811235,-0.01045735,0.00349167,0.00234174,0.00472994,
 0.00037687,-0.00033678,-0.00013880,0.00004069,0.00002132,0.00002044,-0
 .00000265,-0.00000221,0.00000690,-0.00001105,-0.00000459,-0.00000885,0
 .00000066,0.00000996,-0.00001181,-0.00019719,-0.00006805,0.00002107,-0
 .00000866,-0.00001151,0.00006512,0.00015339,0.00002758,0.00013545,-0.0
 0013594,-0.00005810,0.00013709,-0.00018937,0.00004678,-0.00010859,0.00
 034766,0.00041479,-0.00002734,0.00028356,0.00031048,0.00051098,-0.0009
 4900,0.00015150,0.00029321,-0.00007945,-0.00055628,-0.00057775,0.00083
 977,-0.00011076,-0.00000835,-0.00051337,0.00053641,0.00023427,-0.00025
 582,0.00005668,-0.00110479,0.00002211,0.00000910,0.00004694,0.00005782
 ,-0.00005818,-0.00004750,0.00003120,-0.00005508,-0.00001284,-0.0000553
 5,-0.00012277,-0.00005762,0.20507123,-0.06705386,-0.16460052,-0.003441
 39,0.00147007,0.00010260,-0.20832967,0.06985793,0.17148456,-0.00034521
 ,-0.00026974,-0.00053393,-0.00138211,0.00178096,0.00063780,0.00073433,
 -0.00170567,0.00007734,0.00019225,0.00006876,-0.00020047,-0.00006381,0
 .00000957,-0.00004403,0.00000808,-0.00000123,0.00002400,0.00001221,-0.
 00000611,0.00000793,0.00000551,0.00000209,-0.00001852,-0.00006248,-0.0
 0004462,0.00018026,0.00001599,0.00001284,0.00000315,0.00001682,0.00006
 867,-0.00009120,-0.00001084,-0.00000251,0.00003998,0.00003508,-0.00001
 942,0.00003186,0.00005181,0.00000861,-0.00002261,0.00008431,-0.0001636
 1,0.00012792,-0.00010871,0.00001771,0.00003348,0.00000645,-0.00005320,
 -0.00005894,0.00007335,-0.00000148,0.00002156,-0.00002407,0.00005337,0
 .00004987,0.00001459,-0.00003866,-0.00013439,0.00001344,-0.00000328,0.
 00001101,0.00000760,-0.00000118,-0.00000758,0.00000413,-0.00000437,-0.
 00000178,-0.00000758,0.00000719,0.00000406,0.01332728,0.00616740,0.003
 71941,-0.24168869,-0.10659407,-0.06376318,0.00030067,-0.00056803,0.000
 41520,0.24954552,-0.00018502,-0.00240359,0.00140195,0.00429425,0.00129
 983,-0.00767108,-0.00172571,0.00078253,0.00113258,0.00169940,0.0003591
 1,-0.00067861,-0.00022005,0.00003988,-0.00010921,0.00004224,-0.0000058
 1,0.00006379,0.00002369,-0.00002280,0.00001616,0.00001161,0.00000062,-
 0.00006862,-0.00041469,-0.00016246,0.00069353,0.00002073,0.00002884,0.
 00010558,0.00010859,0.00012741,-0.00015122,-0.00007562,-0.00007728,-0.
 00011847,-0.00036979,0.00001874,0.00002551,-0.00077662,0.00003977,0.00
 014869,0.00030011,0.00001512,-0.00006308,-0.00009852,0.00005438,0.0000
 1617,0.00012467,-0.00007442,-0.00003834,-0.00000445,0.00003298,0.00003
 432,0.00014782,-0.00010315,-0.00001351,-0.00008394,-0.00003741,-0.0000
 1514,0.00004378,-0.00001355,0.00002769,0.00001314,0.00000155,-0.000004
 98,0.00001554,-0.00001162,-0.00000669,-0.00001239,0.00003511,0.0000137
 3,-0.02928672,-0.03136923,-0.00404474,-0.10143149,-0.10274774,-0.03411
 719,0.00017917,0.00059829,0.00039932,0.11410136,0.12505147,0.00008313,
 -0.00029246,0.00017202,0.00232174,0.00131616,-0.00177305,-0.00095955,0
 .00152937,0.00011736,0.00017855,0.00010336,-0.00013311,-0.00001057,0.0
 0000664,0.00000144,0.00000929,0.00000143,0.00000015,-0.00000341,-0.000
 00618,-0.00000169,-0.00000239,0.00000919,-0.00000094,-0.00006805,-0.00
 002207,0.00007094,-0.00000578,0.00000559,0.00002433,0.00001296,-0.0000
 1125,0.00003304,0.00000062,0.00000722,0.00000428,-0.00005136,0.0000095
 9,0.00000590,-0.00003884,-0.00001332,0.00003873,0.00004576,0.00003526,
 0.00006733,-0.00002625,-0.00001490,-0.00001650,0.00002702,-0.00001876,
 -0.00002192,0.00001431,0.00000104,-0.00000226,-0.00000100,0.00000095,-
 0.00001168,-0.00001361,-0.00000605,-0.00005678,0.00000172,-0.00000325,
 0.00001871,0.00000529,-0.00000481,-0.00000369,0.00000138,-0.00000417,-
 0.00000046,-0.00000716,-0.00000368,0.00000431,0.00063931,-0.00410691,0
 .00231403,-0.06456576,-0.03455274,-0.07108698,-0.00030277,-0.00034270,
 -0.00000980,0.06955078,0.03802312,0.06731135,0.00013712,0.00057696,0.0
 0016950,-0.00207293,-0.00189510,0.00158304,0.00055226,-0.00029556,-0.0
 0143219,-0.00030981,-0.00007992,0.00025364,0.00005261,-0.00001006,0.00
 003464,-0.00001159,-0.00000015,-0.00001533,-0.00000618,0.00000872,-0.0
 0000505,-0.00000139,-0.00000349,0.00001282,0.00007683,0.00000549,-0.00
 016515,-0.00000882,-0.00001089,-0.00001072,-0.00001965,-0.00005733,0.0
 0004685,0.00001468,0.00000186,-0.00001420,0.00002460,-0.00000014,-0.00
 001559,0.00019103,-0.00003052,-0.00006304,-0.00006760,-0.00005899,-0.0
 0000451,0.00003050,-0.00001442,-0.00000983,-0.00002571,0.00002639,0.00
 002511,-0.00001775,0.00000030,-0.00000844,-0.00001494,0.00002237,0.000
 01666,0.00000343,-0.00001333,0.00000059,0.00000053,-0.00000230,-0.0000
 0741,-0.00000572,0.00000407,0.00000050,-0.00000303,0.00000731,0.000001
 73,0.00000403,-0.00000336,-0.00000139,0.00173572,0.00780100,-0.0020553
 9,-0.07747315,0.02794258,-0.07587462,-0.00018583,0.00027986,-0.0006065
 6,-0.00712901,0.00908879,-0.02386157,0.07481667,-0.00157318,-0.0018968
 9,-0.00077391,0.00884284,0.00242323,-0.00257514,-0.00220847,0.00100927
 ,0.00211961,0.00151200,0.00010818,-0.00096004,-0.00018376,0.00003362,-
 0.00011362,0.00003749,-0.00000328,0.00005585,0.00002034,-0.00002725,0.
 00001504,0.00000781,0.00001283,-0.00005589,-0.00036237,-0.00011550,0.0
 0057358,0.00003092,0.00002152,0.00008831,0.00012152,0.00018242,-0.0001
 6514,-0.00016987,-0.00008890,0.00013665,-0.00020454,0.00002348,-0.0000
 0821,-0.00048175,0.00010707,0.00020147,0.00028723,0.00000616,0.0000876
 6,-0.00016112,0.00003682,0.00002945,0.00007898,-0.00010533,-0.00009118
 ,0.00008854,0.00000780,0.00002455,0.00004970,-0.00000097,0.00003343,-0
 .00008571,-0.00002416,-0.00013784,0.00003067,-0.00000812,0.00002742,0.
 00001894,-0.00000741,-0.00000981,0.00001731,-0.00001764,-0.00000815,-0
 .00002240,0.00001103,0.00000959,0.00755296,-0.02991167,0.03048047,0.02
 797829,-0.07687281,0.07867857,-0.00016573,0.00022853,0.00017578,-0.003
 98050,0.00616902,-0.01284093,-0.03486829,0.09712251,-0.00024134,0.0003
 5222,-0.00051718,-0.00041516,-0.00162418,0.00011196,0.00025701,0.00084
 340,0.00031887,-0.00039766,-0.00022948,0.00007477,0.00002375,-0.000002
 11,0.00002222,-0.00001029,-0.00000622,-0.00000277,-0.00000094,0.000011
 09,-0.00000196,0.00000817,-0.00001284,0.00000782,0.00011396,0.00010953
 ,-0.00010579,-0.00000635,0.00000259,-0.00003928,-0.00007096,-0.0000914
 0,0.00005586,0.00000871,0.00000411,0.00004270,0.00014578,0.00000168,0.
 00002472,0.00008865,0.00004963,-0.00004448,-0.00000595,-0.00005662,-0.
 00002109,0.00003623,0.00000890,0.00001236,-0.00001624,0.00001736,0.000
 00989,-0.00001010,0.00000203,0.00000433,-0.00001861,0.00000347,-0.0000
 0347,0.00002427,-0.00001795,0.00004501,0.00000089,-0.00000541,-0.00000
 380,-0.00000767,0.00000527,0.00000257,-0.00000500,0.00000738,0.0000047
 1,0.00000616,0.00000319,0.00000300,0.00323569,0.00018499,0.01182717,-0
 .07543376,0.08206188,-0.25709398,0.00036681,0.00048391,0.00019119,-0.0
 0064737,0.00249763,-0.00626230,0.08244425,-0.09103264,0.26688095,-0.00
 011826,0.00059010,0.00024524,-0.00063520,-0.00174933,0.00143852,-0.000
 62327,-0.00237483,-0.00063457,-0.00032369,-0.00010686,0.00021330,0.000
 08173,-0.00001146,0.00004838,-0.00000590,0.00000426,-0.00002708,-0.000
 01613,0.00000334,-0.00000888,-0.00001401,0.00000900,0.00002329,0.00007
 785,0.00004021,-0.00021155,-0.00001407,-0.00000869,-0.00000662,-0.0000
 1752,-0.00008065,0.00008867,0.00001696,0.00000932,-0.00001407,0.000024
 27,0.00000174,-0.00001576,0.00014675,0.00008083,-0.00004324,-0.0000504
 2,0.00005922,0.00000634,0.00003666,-0.00002227,-0.00002252,-0.00001680
 ,0.00002148,0.00001483,-0.00001558,-0.00001226,0.00000091,-0.00003256,
 0.00002019,-0.00003162,-0.00000862,0.00000053,0.00003850,-0.00001044,-
 0.00000055,0.00000027,-0.00000393,-0.00000077,0.00000066,-0.00000574,0
 .00000243,0.00000415,0.00000519,-0.00000700,-0.00000608,-0.00527969,0.
 00492891,0.00337359,-0.19164761,0.02766562,0.13965007,0.00085079,0.000
 53063,-0.00003020,-0.01362693,0.00447011,0.01702620,0.00971311,-0.0022
 0784,-0.00947293,0.20151306,-0.00043137,0.00039913,0.00048149,0.005247
 19,0.00030174,-0.00392601,-0.00271868,0.00102346,0.00224576,-0.0001127
 7,0.00000225,-0.00001237,0.00004785,0.00001625,0.00007131,-0.00000346,
 -0.00000904,-0.00001279,-0.00001506,0.00001631,-0.00001584,0.00001124,
 -0.00000706,-0.00000249,-0.00003044,0.00015714,-0.00008286,-0.00003392
 ,0.00002284,0.00001873,-0.00011604,-0.00031093,0.00029447,0.00002896,0
 .00002835,-0.00001737,0.00000426,0.00004170,0.00001460,0.00022841,0.00
 011013,-0.00000895,-0.00003385,-0.00010960,0.00001359,-0.00007943,0.00
 001853,0.00005048,-0.00004179,-0.00004451,-0.00005463,0.00008718,0.000
 00419,0.00002570,-0.00016892,0.00012668,0.00007681,0.00000414,0.000012
 41,-0.00005333,-0.00000147,0.00000088,-0.00000105,-0.00000045,-0.00000
 060,-0.00000337,-0.00000491,0.00000330,0.00000179,0.00000488,-0.000003
 55,-0.00001212,0.02926948,-0.01014245,-0.02716169,0.01881747,-0.051322
 06,-0.01742537,-0.00084038,-0.00596527,0.00028082,-0.00884087,0.002374
 39,0.01119530,-0.00842185,0.00157644,0.00642860,-0.03185541,0.06167894
 ,0.00000987,-0.00025657,-0.00003846,0.00254679,0.00146158,-0.00008922,
 -0.00094668,0.00219676,-0.00089594,0.00022993,0.00007310,-0.00005785,-
 0.00000343,0.00000043,-0.00000365,0.00000576,0.00000599,-0.00000472,-0
 .00000210,-0.00000799,-0.00000300,-0.00000464,0.00000449,0.00000141,-0
 .00005006,-0.00000147,0.00005482,0.00000102,0.00000881,0.00001250,-0.0
 0000616,0.00000961,0.00001371,-0.00002125,-0.00000644,0.00000480,-0.00
 006493,-0.00000148,-0.00002373,-0.00005046,-0.00008543,0.00005587,-0.0
 0000777,0.00001237,0.00000328,-0.00000746,-0.00000129,-0.00001743,0.00
 000961,-0.00000557,-0.00000078,0.00000189,0.00000639,-0.00000690,0.000
 01058,-0.00000150,0.00001130,-0.00001965,-0.00000120,0.00000049,0.0000
 0300,-0.00000031,0.00000432,0.00000257,-0.00000284,0.00000048,0.000002
 54,-0.00000154,-0.00000255,-0.00000261,-0.00000234,0.00000206,0.000572
 78,-0.00349080,-0.00061241,0.13995263,-0.02623632,-0.18609716,-0.00066
 402,0.00019657,0.00021352,-0.00941163,0.00250110,0.00919725,0.01956166
 ,-0.00396492,-0.01554397,-0.15164781,0.02759080,0.19382197\\0.00000222
 ,0.00000027,0.00000033,0.00000247,0.00000159,0.00000832,0.00000215,-0.
 00000080,-0.00000430,-0.00000111,-0.00000840,0.00001079,-0.00001514,-0
 .00004202,0.00001975,0.00000255,-0.00000445,-0.00000930,-0.00000371,0.
 00002188,-0.00000143,0.00001939,0.00001637,-0.00000873,0.00000076,-0.0
 0000351,-0.00001157,-0.00000445,-0.00000191,-0.00000058,0.00000125,0.0
 0001118,-0.00000361,-0.00000098,0.00000280,-0.00000063,-0.00000216,-0.
 00000154,0.00000051,-0.00000332,-0.00000646,-0.00000200,0.00000264,0.0
 0001316,0.00001175,-0.00000400,0.00000093,0.00000674,-0.00000373,-0.00
 000647,-0.00001255,-0.00000227,0.00000888,0.00001192,0.00000344,0.0000
 0192,-0.00000311,0.00000115,-0.00000237,-0.00001031,-0.00000109,-0.000
 00347,0.00000418,0.00000428,0.00000242,-0.00000150,0.00000099,-0.00000
 305,-0.00000304,0.00000110,-0.00000028,-0.00000331,-0.00001353,0.00000
 127,-0.00001235,0.00008206,0.00000801,-0.00005713,0.00000088,0.0000042
 0,0.00000584,-0.00003887,-0.00000674,-0.00000570,0.00000965,-0.0000071
 7,0.00000946,-0.00004262,0.00000378,0.00006157\\\@
 The archive entry for this job was punched.


 AND HERE I AM, FOR ALL MY LORE,
 THE WRETCHED FOOL I WAS BEFORE.
 CALLED MASTER OF ARTS, AND DOCTOR TO BOOT,
 FOR TEN YEARS ALMOST I CONFUTE
 AND UP AND DOWN, WHEREVER IT GOES
 I DRAG MY STUDENTS BY THE NOSE --
 AND SEE THAT FOR ALL OUR SCIENCE AND ART
 WE CAN KNOW NOTHING.  IT BURNS MY HEART.

                                       -- FAUST
 Job cpu time:       0 days  0 hours 50 minutes 49.3 seconds.
 Elapsed time:       0 days  0 hours  4 minutes 16.6 seconds.
 File lengths (MBytes):  RWF=    438 Int=      0 D2E=      0 Chk=     15 Scr=      1
 Normal termination of Gaussian 16 at Sat Dec 30 21:03:44 2023.
