Unloading slurm/anatra/current
  ERROR: No such file or directory on
    '/cm/local/modulefiles/slurm/anatra/current'
environment: line 0: unalias: gv: not found
environment: line 0: unalias: sl: not found
 Entering Gaussian System, Link 0=g16
 Initial command:
 /apps/gaussian/g16/C.01/g16/l1.exe "/local/jobs/1150746/Gau-2006595.inp" -scrdir="/local/jobs/1150746/"
 Entering Link 1 = /apps/gaussian/g16/C.01/g16/l1.exe PID=   2006598.
  
 Copyright (c) 1988-2019, Gaussian, Inc.  All Rights Reserved.
  
 This is part of the Gaussian(R) 16 program.  It is based on
 the Gaussian(R) 09 system (copyright 2009, Gaussian, Inc.),
 the Gaussian(R) 03 system (copyright 2003, Gaussian, Inc.),
 the Gaussian(R) 98 system (copyright 1998, Gaussian, Inc.),
 the Gaussian(R) 94 system (copyright 1995, Gaussian, Inc.),
 the Gaussian 92(TM) system (copyright 1992, Gaussian, Inc.),
 the Gaussian 90(TM) system (copyright 1990, Gaussian, Inc.),
 the Gaussian 88(TM) system (copyright 1988, Gaussian, Inc.),
 the Gaussian 86(TM) system (copyright 1986, Carnegie Mellon
 University), and the Gaussian 82(TM) system (copyright 1983,
 Carnegie Mellon University). Gaussian is a federally registered
 trademark of Gaussian, Inc.
  
 This software contains proprietary and confidential information,
 including trade secrets, belonging to Gaussian, Inc.
  
 This software is provided under written license and may be
 used, copied, transmitted, or stored only in accord with that
 written license.
  
 The following legend is applicable only to US Government
 contracts under FAR:
  
                    RESTRICTED RIGHTS LEGEND
  
 Use, reproduction and disclosure by the US Government is
 subject to restrictions as set forth in subparagraphs (a)
 and (c) of the Commercial Computer Software - Restricted
 Rights clause in FAR 52.227-19.
  
 Gaussian, Inc.
 340 Quinnipiac St., Bldg. 40, Wallingford CT 06492
  
  
 ---------------------------------------------------------------
 Warning -- This program may not be used in any manner that
 competes with the business of Gaussian, Inc. or will provide
 assistance to any competitor of Gaussian, Inc.  The licensee
 of this program is prohibited from giving any competitor of
 Gaussian, Inc. access to this program.  By using this program,
 the user acknowledges that Gaussian, Inc. is engaged in the
 business of creating and licensing software in the field of
 computational chemistry and represents and warrants to the
 licensee that it is not a competitor of Gaussian, Inc. and that
 it will not use this program in any manner prohibited above.
 ---------------------------------------------------------------
  

 Cite this work as:
 Gaussian 16, Revision C.01,
 M. J. Frisch, G. W. Trucks, H. B. Schlegel, G. E. Scuseria, 
 M. A. Robb, J. R. Cheeseman, G. Scalmani, V. Barone, 
 G. A. Petersson, H. Nakatsuji, X. Li, M. Caricato, A. V. Marenich, 
 J. Bloino, B. G. Janesko, R. Gomperts, B. Mennucci, H. P. Hratchian, 
 J. V. Ortiz, A. F. Izmaylov, J. L. Sonnenberg, D. Williams-Young, 
 F. Ding, F. Lipparini, F. Egidi, J. Goings, B. Peng, A. Petrone, 
 T. Henderson, D. Ranasinghe, V. G. Zakrzewski, J. Gao, N. Rega, 
 G. Zheng, W. Liang, M. Hada, M. Ehara, K. Toyota, R. Fukuda, 
 J. Hasegawa, M. Ishida, T. Nakajima, Y. Honda, O. Kitao, H. Nakai, 
 T. Vreven, K. Throssell, J. A. Montgomery, Jr., J. E. Peralta, 
 F. Ogliaro, M. J. Bearpark, J. J. Heyd, E. N. Brothers, K. N. Kudin, 
 V. N. Staroverov, T. A. Keith, R. Kobayashi, J. Normand, 
 K. Raghavachari, A. P. Rendell, J. C. Burant, S. S. Iyengar, 
 J. Tomasi, M. Cossi, J. M. Millam, M. Klene, C. Adamo, R. Cammi, 
 J. W. Ochterski, R. L. Martin, K. Morokuma, O. Farkas, 
 J. B. Foresman, and D. J. Fox, Gaussian, Inc., Wallingford CT, 2019.
 
 ******************************************
 Gaussian 16:  ES64L-G16RevC.01  3-Jul-2019
                18-Dec-2023 
 ******************************************
 %chk=TS-325_opt_dft.chk
 %nprocshared=12
 Will use up to   12 processors via shared memory.
 %mem=48GB
 ----------------------------------------------------------------------
 # wb97xd def2svp scrf=(iefpcm,solvent=toluene) opt=(calcfc,ts,noeigen,
 maxcycles=50,maxstep=10)
 ----------------------------------------------------------------------
 1/5=1,6=50,8=10,10=4,11=1,18=20,26=3,38=1/1,3;
 2/9=110,12=2,17=6,18=5,40=1/2;
 3/5=43,7=101,11=2,25=1,30=1,70=2201,71=2,72=13,74=-58,140=1/1,2,3;
 4//1;
 5/5=2,38=5,53=13/2;
 8/6=4,10=90,11=11/1;
 11/6=1,8=1,9=11,15=111,16=1/1,2,10;
 10/6=1,13=1/2;
 6/7=2,8=2,9=2,10=2,28=1/1;
 7/10=1,25=1/1,2,3,16;
 1/5=1,6=50,8=10,10=4,11=1,18=20,26=3/3(2);
 2/9=110/2;
 99//99;
 2/9=110/2;
 3/5=43,7=101,11=2,25=1,30=1,70=2205,71=1,72=13,74=-58/1,2,3;
 4/5=5,16=3,69=1/1;
 5/5=2,38=5,53=13/2;
 7//1,2,3,16;
 1/5=1,6=50,8=10,11=1,18=20,26=3/3(-5);
 2/9=110/2;
 6/7=2,8=2,9=2,10=2,19=2,28=1/1;
 99/9=1/99;
 ----------
 TS-325.out
 ----------
 Symbolic Z-matrix:
 Charge =  0 Multiplicity = 1
 C                     0.06177   0.16222  -0.05987 
 C                    -0.40074   1.45584   0.53163 
 O                    -1.15429   1.50254   1.49781 
 C                    -0.85367  -0.80502  -0.34582 
 C                    -0.17766  -2.94069   1.77398 
 H                    -0.63118  -3.30064   2.7018 
 H                    -0.07938  -3.77989   1.08005 
 H                     0.82018  -2.55382   1.99723 
 N                    -1.00546  -1.89012   1.17544 
 H                    -1.95493  -2.2718    1.0865 
 H                    -1.12869  -1.1636    1.89783 
 H                    -0.54188  -1.70552  -0.88485 
 Br                   -2.6779   -0.38746  -0.7648 
 C                     1.50834  -0.10668  -0.22143 
 C                     2.39043   0.13335   0.84219 
 C                     3.76031  -0.0945    0.69505 
 C                     4.26366  -0.56034  -0.51778 
 C                     3.39924  -0.79839  -1.58439 
 C                     2.02876  -0.57131  -1.43866 
 H                     2.01427   0.49002   1.7996 
 H                     4.43291   0.08937   1.52903 
 H                     5.33005  -0.7391   -0.63114 
 H                     3.79175  -1.16099  -2.5311 
 H                     1.37285  -0.75516  -2.28698 
 N                     0.13935   2.56268  -0.08207 
 C                    -0.10745   3.88962   0.41632 
 H                     0.84287   2.43119  -0.79729 
 H                    -1.14152   3.98435   0.75836 
 H                     0.57131   4.07921   1.25198 
 H                     0.08687   4.60465  -0.38633 
 
 Add virtual bond connecting atoms N9         and C4         Dist= 3.54D+00.

 GradGradGradGradGradGradGradGradGradGradGradGradGradGradGradGradGradGrad
 Berny optimization.
 Initialization pass.
                           ----------------------------
                           !    Initial Parameters    !
                           ! (Angstroms and Degrees)  !
 --------------------------                            --------------------------
 ! Name  Definition              Value          Derivative Info.                !
 --------------------------------------------------------------------------------
 ! R1    R(1,2)                  1.4957         calculate D2E/DX2 analytically  !
 ! R2    R(1,4)                  1.3621         calculate D2E/DX2 analytically  !
 ! R3    R(1,14)                 1.4802         calculate D2E/DX2 analytically  !
 ! R4    R(2,3)                  1.2262         calculate D2E/DX2 analytically  !
 ! R5    R(2,25)                 1.376          calculate D2E/DX2 analytically  !
 ! R6    R(4,9)                  1.8748         calculate D2E/DX2 analytically  !
 ! R7    R(4,12)                 1.0948         calculate D2E/DX2 analytically  !
 ! R8    R(4,13)                 1.9177         calculate D2E/DX2 analytically  !
 ! R9    R(5,6)                  1.0937         calculate D2E/DX2 analytically  !
 ! R10   R(5,7)                  1.0934         calculate D2E/DX2 analytically  !
 ! R11   R(5,8)                  1.0932         calculate D2E/DX2 analytically  !
 ! R12   R(5,9)                  1.4653         calculate D2E/DX2 analytically  !
 ! R13   R(9,10)                 1.0272         calculate D2E/DX2 analytically  !
 ! R14   R(9,11)                 1.0319         calculate D2E/DX2 analytically  !
 ! R15   R(14,15)                1.4025         calculate D2E/DX2 analytically  !
 ! R16   R(14,19)                1.403          calculate D2E/DX2 analytically  !
 ! R17   R(15,16)                1.3965         calculate D2E/DX2 analytically  !
 ! R18   R(15,20)                1.0887         calculate D2E/DX2 analytically  !
 ! R19   R(16,17)                1.3933         calculate D2E/DX2 analytically  !
 ! R20   R(16,21)                1.0871         calculate D2E/DX2 analytically  !
 ! R21   R(17,18)                1.3934         calculate D2E/DX2 analytically  !
 ! R22   R(17,22)                1.0872         calculate D2E/DX2 analytically  !
 ! R23   R(18,19)                1.3968         calculate D2E/DX2 analytically  !
 ! R24   R(18,23)                1.0871         calculate D2E/DX2 analytically  !
 ! R25   R(19,24)                1.088          calculate D2E/DX2 analytically  !
 ! R26   R(25,26)                1.4388         calculate D2E/DX2 analytically  !
 ! R27   R(25,27)                1.0118         calculate D2E/DX2 analytically  !
 ! R28   R(26,28)                1.0933         calculate D2E/DX2 analytically  !
 ! R29   R(26,29)                1.0932         calculate D2E/DX2 analytically  !
 ! R30   R(26,30)                1.0924         calculate D2E/DX2 analytically  !
 ! A1    A(2,1,4)              119.2977         calculate D2E/DX2 analytically  !
 ! A2    A(2,1,14)             120.1638         calculate D2E/DX2 analytically  !
 ! A3    A(4,1,14)             120.3242         calculate D2E/DX2 analytically  !
 ! A4    A(1,2,3)              122.3149         calculate D2E/DX2 analytically  !
 ! A5    A(1,2,25)             113.4496         calculate D2E/DX2 analytically  !
 ! A6    A(3,2,25)             124.1945         calculate D2E/DX2 analytically  !
 ! A7    A(1,4,9)              107.1618         calculate D2E/DX2 analytically  !
 ! A8    A(1,4,12)             119.737          calculate D2E/DX2 analytically  !
 ! A9    A(1,4,13)             122.0429         calculate D2E/DX2 analytically  !
 ! A10   A(9,4,12)              86.9335         calculate D2E/DX2 analytically  !
 ! A11   A(9,4,13)             103.0786         calculate D2E/DX2 analytically  !
 ! A12   A(12,4,13)            110.0243         calculate D2E/DX2 analytically  !
 ! A13   A(6,5,7)              108.85           calculate D2E/DX2 analytically  !
 ! A14   A(6,5,8)              108.7668         calculate D2E/DX2 analytically  !
 ! A15   A(6,5,9)              110.3791         calculate D2E/DX2 analytically  !
 ! A16   A(7,5,8)              108.6128         calculate D2E/DX2 analytically  !
 ! A17   A(7,5,9)              109.9879         calculate D2E/DX2 analytically  !
 ! A18   A(8,5,9)              110.2017         calculate D2E/DX2 analytically  !
 ! A19   A(4,9,5)              134.4812         calculate D2E/DX2 analytically  !
 ! A20   A(4,9,10)             102.6885         calculate D2E/DX2 analytically  !
 ! A21   A(4,9,11)              99.8004         calculate D2E/DX2 analytically  !
 ! A22   A(5,9,10)             106.9268         calculate D2E/DX2 analytically  !
 ! A23   A(5,9,11)             106.6355         calculate D2E/DX2 analytically  !
 ! A24   A(10,9,11)            102.2303         calculate D2E/DX2 analytically  !
 ! A25   A(1,14,15)            120.0524         calculate D2E/DX2 analytically  !
 ! A26   A(1,14,19)            121.1561         calculate D2E/DX2 analytically  !
 ! A27   A(15,14,19)           118.7735         calculate D2E/DX2 analytically  !
 ! A28   A(14,15,16)           120.6063         calculate D2E/DX2 analytically  !
 ! A29   A(14,15,20)           120.3757         calculate D2E/DX2 analytically  !
 ! A30   A(16,15,20)           119.0145         calculate D2E/DX2 analytically  !
 ! A31   A(15,16,17)           120.043          calculate D2E/DX2 analytically  !
 ! A32   A(15,16,21)           119.9017         calculate D2E/DX2 analytically  !
 ! A33   A(17,16,21)           120.0551         calculate D2E/DX2 analytically  !
 ! A34   A(16,17,18)           119.9552         calculate D2E/DX2 analytically  !
 ! A35   A(16,17,22)           120.0055         calculate D2E/DX2 analytically  !
 ! A36   A(18,17,22)           120.0393         calculate D2E/DX2 analytically  !
 ! A37   A(17,18,19)           120.0693         calculate D2E/DX2 analytically  !
 ! A38   A(17,18,23)           119.9742         calculate D2E/DX2 analytically  !
 ! A39   A(19,18,23)           119.9565         calculate D2E/DX2 analytically  !
 ! A40   A(14,19,18)           120.5513         calculate D2E/DX2 analytically  !
 ! A41   A(14,19,24)           120.5858         calculate D2E/DX2 analytically  !
 ! A42   A(18,19,24)           118.8619         calculate D2E/DX2 analytically  !
 ! A43   A(2,25,26)            121.3346         calculate D2E/DX2 analytically  !
 ! A44   A(2,25,27)            118.9233         calculate D2E/DX2 analytically  !
 ! A45   A(26,25,27)           118.9457         calculate D2E/DX2 analytically  !
 ! A46   A(25,26,28)           110.5197         calculate D2E/DX2 analytically  !
 ! A47   A(25,26,29)           108.557          calculate D2E/DX2 analytically  !
 ! A48   A(25,26,30)           108.5812         calculate D2E/DX2 analytically  !
 ! A49   A(28,26,29)           109.457          calculate D2E/DX2 analytically  !
 ! A50   A(28,26,30)           109.9632         calculate D2E/DX2 analytically  !
 ! A51   A(29,26,30)           109.7381         calculate D2E/DX2 analytically  !
 ! D1    D(4,1,2,3)             49.1418         calculate D2E/DX2 analytically  !
 ! D2    D(4,1,2,25)          -133.0961         calculate D2E/DX2 analytically  !
 ! D3    D(14,1,2,3)          -125.5571         calculate D2E/DX2 analytically  !
 ! D4    D(14,1,2,25)           52.2051         calculate D2E/DX2 analytically  !
 ! D5    D(2,1,4,9)            -90.7057         calculate D2E/DX2 analytically  !
 ! D6    D(2,1,4,12)           172.8674         calculate D2E/DX2 analytically  !
 ! D7    D(2,1,4,13)            27.5036         calculate D2E/DX2 analytically  !
 ! D8    D(14,1,4,9)            83.9844         calculate D2E/DX2 analytically  !
 ! D9    D(14,1,4,12)          -12.4424         calculate D2E/DX2 analytically  !
 ! D10   D(14,1,4,13)         -157.8063         calculate D2E/DX2 analytically  !
 ! D11   D(2,1,14,15)           47.5529         calculate D2E/DX2 analytically  !
 ! D12   D(2,1,14,19)         -130.8817         calculate D2E/DX2 analytically  !
 ! D13   D(4,1,14,15)         -127.091          calculate D2E/DX2 analytically  !
 ! D14   D(4,1,14,19)           54.4743         calculate D2E/DX2 analytically  !
 ! D15   D(1,2,25,26)         -175.0909         calculate D2E/DX2 analytically  !
 ! D16   D(1,2,25,27)           -5.4202         calculate D2E/DX2 analytically  !
 ! D17   D(3,2,25,26)            2.6225         calculate D2E/DX2 analytically  !
 ! D18   D(3,2,25,27)          172.2932         calculate D2E/DX2 analytically  !
 ! D19   D(1,4,9,5)            -76.1611         calculate D2E/DX2 analytically  !
 ! D20   D(1,4,9,10)           154.0923         calculate D2E/DX2 analytically  !
 ! D21   D(1,4,9,11)            49.0666         calculate D2E/DX2 analytically  !
 ! D22   D(12,4,9,5)            44.0598         calculate D2E/DX2 analytically  !
 ! D23   D(12,4,9,10)          -85.6868         calculate D2E/DX2 analytically  !
 ! D24   D(12,4,9,11)          169.2875         calculate D2E/DX2 analytically  !
 ! D25   D(13,4,9,5)           153.9121         calculate D2E/DX2 analytically  !
 ! D26   D(13,4,9,10)           24.1655         calculate D2E/DX2 analytically  !
 ! D27   D(13,4,9,11)          -80.8602         calculate D2E/DX2 analytically  !
 ! D28   D(6,5,9,4)            178.1429         calculate D2E/DX2 analytically  !
 ! D29   D(6,5,9,10)           -53.4919         calculate D2E/DX2 analytically  !
 ! D30   D(6,5,9,11)            55.2944         calculate D2E/DX2 analytically  !
 ! D31   D(7,5,9,4)            -61.7329         calculate D2E/DX2 analytically  !
 ! D32   D(7,5,9,10)            66.6323         calculate D2E/DX2 analytically  !
 ! D33   D(7,5,9,11)           175.4186         calculate D2E/DX2 analytically  !
 ! D34   D(8,5,9,4)             57.985          calculate D2E/DX2 analytically  !
 ! D35   D(8,5,9,10)          -173.6498         calculate D2E/DX2 analytically  !
 ! D36   D(8,5,9,11)           -64.8635         calculate D2E/DX2 analytically  !
 ! D37   D(1,14,15,16)        -178.8957         calculate D2E/DX2 analytically  !
 ! D38   D(1,14,15,20)           1.7968         calculate D2E/DX2 analytically  !
 ! D39   D(19,14,15,16)         -0.424          calculate D2E/DX2 analytically  !
 ! D40   D(19,14,15,20)       -179.7315         calculate D2E/DX2 analytically  !
 ! D41   D(1,14,19,18)         178.8607         calculate D2E/DX2 analytically  !
 ! D42   D(1,14,19,24)          -0.7663         calculate D2E/DX2 analytically  !
 ! D43   D(15,14,19,18)          0.4065         calculate D2E/DX2 analytically  !
 ! D44   D(15,14,19,24)       -179.2205         calculate D2E/DX2 analytically  !
 ! D45   D(14,15,16,17)          0.2129         calculate D2E/DX2 analytically  !
 ! D46   D(14,15,16,21)       -179.6096         calculate D2E/DX2 analytically  !
 ! D47   D(20,15,16,17)        179.5297         calculate D2E/DX2 analytically  !
 ! D48   D(20,15,16,21)         -0.2928         calculate D2E/DX2 analytically  !
 ! D49   D(15,16,17,18)          0.0232         calculate D2E/DX2 analytically  !
 ! D50   D(15,16,17,22)       -179.898          calculate D2E/DX2 analytically  !
 ! D51   D(21,16,17,18)        179.8455         calculate D2E/DX2 analytically  !
 ! D52   D(21,16,17,22)         -0.0757         calculate D2E/DX2 analytically  !
 ! D53   D(16,17,18,19)         -0.0404         calculate D2E/DX2 analytically  !
 ! D54   D(16,17,18,23)        179.9442         calculate D2E/DX2 analytically  !
 ! D55   D(22,17,18,19)        179.8808         calculate D2E/DX2 analytically  !
 ! D56   D(22,17,18,23)         -0.1346         calculate D2E/DX2 analytically  !
 ! D57   D(17,18,19,14)         -0.1782         calculate D2E/DX2 analytically  !
 ! D58   D(17,18,19,24)        179.4552         calculate D2E/DX2 analytically  !
 ! D59   D(23,18,19,14)        179.8372         calculate D2E/DX2 analytically  !
 ! D60   D(23,18,19,24)         -0.5294         calculate D2E/DX2 analytically  !
 ! D61   D(2,25,26,28)         -38.8072         calculate D2E/DX2 analytically  !
 ! D62   D(2,25,26,29)          81.2469         calculate D2E/DX2 analytically  !
 ! D63   D(2,25,26,30)        -159.4988         calculate D2E/DX2 analytically  !
 ! D64   D(27,25,26,28)        151.5243         calculate D2E/DX2 analytically  !
 ! D65   D(27,25,26,29)        -88.4216         calculate D2E/DX2 analytically  !
 ! D66   D(27,25,26,30)         30.8328         calculate D2E/DX2 analytically  !
 --------------------------------------------------------------------------------
 Trust Radius=1.00D-01 FncErr=1.00D-07 GrdErr=1.00D-06 EigMax=2.50D+02 EigMin=1.00D-04
 Number of steps in this run=     50 maximum allowed number of steps=    180.
 Search for a saddle point of order  1.
 GradGradGradGradGradGradGradGradGradGradGradGradGradGradGradGradGradGrad

                          Input orientation:                          
 ---------------------------------------------------------------------
 Center     Atomic      Atomic             Coordinates (Angstroms)
 Number     Number       Type             X           Y           Z
 ---------------------------------------------------------------------
      1          6           0        0.061770    0.162220   -0.059870
      2          6           0       -0.400740    1.455840    0.531630
      3          8           0       -1.154290    1.502540    1.497810
      4          6           0       -0.853670   -0.805020   -0.345820
      5          6           0       -0.177660   -2.940690    1.773980
      6          1           0       -0.631180   -3.300640    2.701800
      7          1           0       -0.079380   -3.779890    1.080050
      8          1           0        0.820180   -2.553820    1.997230
      9          7           0       -1.005460   -1.890120    1.175440
     10          1           0       -1.954930   -2.271800    1.086500
     11          1           0       -1.128690   -1.163600    1.897830
     12          1           0       -0.541880   -1.705520   -0.884850
     13         35           0       -2.677900   -0.387460   -0.764800
     14          6           0        1.508340   -0.106680   -0.221430
     15          6           0        2.390430    0.133350    0.842190
     16          6           0        3.760310   -0.094500    0.695050
     17          6           0        4.263660   -0.560340   -0.517780
     18          6           0        3.399240   -0.798390   -1.584390
     19          6           0        2.028760   -0.571310   -1.438660
     20          1           0        2.014270    0.490020    1.799600
     21          1           0        4.432910    0.089370    1.529030
     22          1           0        5.330050   -0.739100   -0.631140
     23          1           0        3.791750   -1.160990   -2.531100
     24          1           0        1.372850   -0.755160   -2.286980
     25          7           0        0.139350    2.562680   -0.082070
     26          6           0       -0.107450    3.889620    0.416320
     27          1           0        0.842870    2.431190   -0.797290
     28          1           0       -1.141520    3.984350    0.758360
     29          1           0        0.571310    4.079210    1.251980
     30          1           0        0.086870    4.604650   -0.386330
 ---------------------------------------------------------------------
                    Distance matrix (angstroms):
                    1          2          3          4          5
     1  C    0.000000
     2  C    1.495741   0.000000
     3  O    2.387808   1.226182   0.000000
     4  C    1.362113   2.467094   2.968868   0.000000
     5  C    3.612255   4.574131   4.557671   3.084093   0.000000
     6  H    4.483124   5.233244   4.979335   3.945327   1.093661
     7  H    4.106041   5.274173   5.406850   3.388581   1.093368
     8  H    3.490519   4.440271   4.538944   3.368970   1.093249
     9  N    2.622417   3.460582   3.411190   1.874757   1.465333
    10  H    3.362394   4.076602   3.880186   2.327178   2.019587
    11  H    2.647184   3.042676   2.696103   2.288707   2.019368
    12  H    2.129187   3.467064   4.042742   1.094836   2.954264
    13  Br   2.881816   3.203739   3.318568   1.917737   4.383559
    14  C    1.480194   2.579371   3.554571   2.466220   3.854331
    15  C    2.497439   3.104200   3.856107   3.579957   4.112547
    16  C    3.783518   4.443489   5.229556   4.782997   4.977198
    17  C    4.288083   5.188725   6.137773   5.126061   5.535662
    18  C    3.792840   4.898871   5.960610   4.429599   5.353719
    19  C    2.511609   3.727446   4.801616   3.091492   4.561064
    20  H    2.716126   2.893584   3.340067   3.808548   4.071239
    21  H    4.651535   5.121154   5.763231   5.680046   5.522556
    22  H    5.375268   6.245939   7.183595   6.190650   6.400505
    23  H    4.665899   5.814214   6.913018   5.146075   6.120234
    24  H    2.742360   3.997337   5.080185   2.954315   4.865390
    25  N    2.401816   1.376016   2.300744   3.520945   5.816571
    26  C    3.761503   2.454099   2.821993   4.814286   6.964288
    27  H    2.510404   2.064922   3.180963   3.681729   6.042351
    28  H    4.089754   2.644527   2.589658   4.923427   7.065174
    29  H    4.162138   2.888919   3.110845   5.332845   7.079014
    30  H    4.454480   3.315934   3.835824   5.490973   7.852966
                    6          7          8          9         10
     6  H    0.000000
     7  H    1.778830   0.000000
     8  H    1.777809   1.775859   0.000000
     9  N    2.111736   2.106645   2.109217   0.000000
    10  H    2.328094   2.406671   2.934314   1.027172   0.000000
    11  H    2.336841   2.935096   2.395973   1.031923   1.602821
    12  H    3.926378   2.894434   3.298667   2.119853   2.490704
    13  Br   4.969205   4.654499   4.955652   2.969777   2.738747
    14  C    4.829513   4.207990   3.374094   3.383947   4.288667
    15  C    4.937668   4.633572   3.319742   3.967059   4.972584
    16  C    5.795823   5.336061   4.048246   5.115427   6.128445
    17  C    6.467952   5.637425   4.707100   5.692006   6.646328
    18  C    6.393510   5.299941   4.749851   5.311301   6.162120
    19  C    5.627427   4.591638   4.146848   4.216547   5.013770
    20  H    4.709721   4.809704   3.275648   3.895306   4.887812
    21  H    6.205849   5.961000   4.500831   5.798213   6.824621
    22  H    7.294261   6.437120   5.526343   6.687845   7.640052
    23  H    7.177998   5.906326   5.592493   6.106005   6.880789
    24  H    5.948406   4.753405   4.679218   4.351189   4.975408
    25  N    6.536220   6.451865   5.564673   4.766482   5.396644
    26  C    7.562906   7.698228   6.699081   5.898142   6.467258
    27  H    6.875342   6.553813   5.714909   5.097225   5.787440
    28  H    7.557016   7.843153   6.937632   5.890829   6.317335
    29  H    7.616439   7.887865   6.679403   6.174541   6.837002
    30  H    8.517379   8.513426   7.580422   6.768630   7.322823
                   11         12         13         14         15
    11  H    0.000000
    12  H    2.895053   0.000000
    13  Br   3.176798   2.512822   0.000000
    14  C    3.544329   2.683248   4.230685   0.000000
    15  C    3.896237   3.868146   5.342437   1.402492   0.000000
    16  C    5.147036   4.858015   6.608142   2.431348   1.396473
    17  C    5.939405   4.953725   6.948105   2.808099   2.416550
    18  C    5.723756   4.104226   6.145911   2.431383   2.788212
    19  C    4.631680   2.863796   4.758207   1.402985   2.414462
    20  H    3.552788   4.308198   5.418725   2.167159   1.088735
    21  H    5.712910   5.813517   7.486831   3.414038   2.155321
    22  H    6.949188   5.956333   8.016781   3.895290   3.401946
    23  H    6.620133   4.667655   6.750891   3.414690   3.875319
    24  H    4.892562   2.556432   4.342903   2.169189   3.408317
    25  N    4.406029   4.396142   4.135982   3.003171   3.438497
    26  C    5.364032   5.760848   5.127930   4.357513   4.531041
    27  H    4.906448   4.363206   4.510173   2.686122   3.219147
    28  H    5.272565   5.952674   4.877828   4.971747   5.226079
    29  H    5.549250   6.266445   5.880128   4.535486   4.364280
    30  H    6.322000   6.360982   5.719122   4.923860   5.177661
                   16         17         18         19         20
    16  C    0.000000
    17  C    1.393314   0.000000
    18  C    2.412816   1.393394   0.000000
    19  C    2.788966   2.417213   1.396788   0.000000
    20  H    2.147173   3.396066   3.876794   3.407779   0.000000
    21  H    1.087070   2.154112   3.398526   3.876031   2.466485
    22  H    2.153688   1.087195   2.154119   3.402757   4.291111
    23  H    3.398004   2.153355   1.087107   2.156219   4.963893
    24  H    3.876718   3.394820   2.145171   1.087964   4.319957
    25  N    4.558056   5.191631   4.917381   3.902832   3.369262
    26  C    5.559719   6.307241   6.186853   5.282446   4.239391
    27  H    4.137348   4.552931   4.193416   3.291306   3.447341
    28  H    6.377222   7.176260   6.998684   5.969222   4.822192
    29  H    5.282021   6.187966   6.311352   5.566960   3.906956
    30  H    6.061811   6.643792   6.449805   5.627513   5.042156
                   21         22         23         24         25
    21  H    0.000000
    22  H    2.481443   0.000000
    23  H    4.296410   2.480767   0.000000
    24  H    4.963782   4.289696   2.464827   0.000000
    25  N    5.210332   6.176293   5.762247   4.170277   0.000000
    26  C    6.024524   7.217245   7.028492   5.574325   1.438775
    27  H    4.876912   5.496647   4.960418   3.557089   1.011815
    28  H    6.843908   8.131599   7.850619   6.169206   2.089999
    29  H    5.559455   7.029072   7.220985   6.044654   2.065464
    30  H    6.553199   7.490429   7.181140   5.830418   2.065180
                   26         27         28         29         30
    26  C    0.000000
    27  H    2.122022   0.000000
    28  H    1.093282   2.961445   0.000000
    29  H    1.093155   2.643714   1.785062   0.000000
    30  H    1.092371   2.337595   1.789980   1.787408   0.000000
 Stoichiometry    C11H15BrN2O
 Framework group  C1[X(C11H15BrN2O)]
 Deg. of freedom    84
 Full point group                 C1      NOp   1
 Largest Abelian subgroup         C1      NOp   1
 Largest concise Abelian subgroup C1      NOp   1
                         Standard orientation:                         
 ---------------------------------------------------------------------
 Center     Atomic      Atomic             Coordinates (Angstroms)
 Number     Number       Type             X           Y           Z
 ---------------------------------------------------------------------
      1          6           0        0.061771    0.162220   -0.059871
      2          6           0       -0.400741    1.455839    0.531629
      3          8           0       -1.154291    1.502538    1.497809
      4          6           0       -0.853668   -0.805021   -0.345821
      5          6           0       -0.177655   -2.940690    1.773979
      6          1           0       -0.631175   -3.300641    2.701799
      7          1           0       -0.079374   -3.779890    1.080049
      8          1           0        0.820184   -2.553819    1.997229
      9          7           0       -1.005456   -1.890121    1.175439
     10          1           0       -1.954926   -2.271803    1.086499
     11          1           0       -1.128687   -1.163601    1.897829
     12          1           0       -0.541877   -1.705521   -0.884851
     13         35           0       -2.677898   -0.387463   -0.764801
     14          6           0        1.508341   -0.106678   -0.221431
     15          6           0        2.390431    0.133353    0.842189
     16          6           0        3.760311   -0.094495    0.695049
     17          6           0        4.263662   -0.560335   -0.517781
     18          6           0        3.399242   -0.798386   -1.584391
     19          6           0        2.028762   -0.571308   -1.438661
     20          1           0        2.014271    0.490022    1.799599
     21          1           0        4.432911    0.089375    1.529029
     22          1           0        5.330052   -0.739093   -0.631141
     23          1           0        3.791753   -1.160985   -2.531101
     24          1           0        1.372852   -0.755158   -2.286981
     25          7           0        0.139348    2.562680   -0.082071
     26          6           0       -0.107454    3.889620    0.416319
     27          1           0        0.842868    2.431191   -0.797291
     28          1           0       -1.141524    3.984349    0.758359
     29          1           0        0.571306    4.079211    1.251979
     30          1           0        0.086865    4.604650   -0.386331
 ---------------------------------------------------------------------
 Rotational constants (GHZ):           0.5707058           0.3130453           0.2543192
 Standard basis: def2SVP (5D, 7F)
 There are   320 symmetry adapted cartesian basis functions of A   symmetry.
 There are   303 symmetry adapted basis functions of A   symmetry.
   303 basis functions,   535 primitive gaussians,   320 cartesian basis functions
    69 alpha electrons       69 beta electrons
       nuclear repulsion energy      1347.9991246151 Hartrees.
 NAtoms=   30 NActive=   30 NUniq=   30 SFac= 1.00D+00 NAtFMM=   60 NAOKFM=F Big=F
 Integral buffers will be    131072 words long.
 Raffenetti 2 integral format.
 Two-electron integral symmetry is turned on.
 Nuclear repulsion after empirical dispersion term =     1347.9774848751 Hartrees.
 Force inversion solution in PCM.
 ------------------------------------------------------------------------------
 Polarizable Continuum Model (PCM)
 =================================
 Model                : PCM.
 Atomic radii         : UFF (Universal Force Field).
 Polarization charges : Total charges.
 Charge compensation  : None.
 Solution method      : Matrix inversion.
 Cavity type          : Scaled VdW (van der Waals Surface) (Alpha=1.100).
 Cavity algorithm     : GePol (No added spheres)
                        Default sphere list used, NSphG=   30.
                        Lebedev-Laikov grids with approx.  5.0 points / Ang**2.
                        Smoothing algorithm: York/Karplus (Gamma=1.0000).
                        Polarization charges: spherical gaussians, with
                                              point-specific exponents (IZeta= 3).
                        Self-potential: point-specific (ISelfS= 7).
                        Self-field    : sphere-specific E.n sum rule (ISelfD= 2).
 1st derivatives      : Analytical E(r).r(x)/FMM algorithm (CHGder, D1EAlg=3).
                        Cavity 1st derivative terms included.
 2nd derivatives      : Analytical E(r).r(xy)/FMM algorithm (CHGder, D2EAlg=3).
                        Cavity 2nd derivative terms included.
 Solvent              : Toluene, Eps=   2.374100 Eps(inf)=   2.238315
 ------------------------------------------------------------------------------
 One-electron integrals computed using PRISM.
   1 Symmetry operations used in ECPInt.
 ECPInt:  NShTT=   10011 NPrTT=   37668 LenC2=    9528 LenP2D=   25663.
 LDataN:  DoStor=T MaxTD1= 4 Len=   56
 NBasis=   303 RedAO= T EigKep=  2.86D-04  NBF=   303
 NBsUse=   303 1.00D-06 EigRej= -1.00D+00 NBFU=   303
 ExpMin= 1.22D-01 ExpMax= 1.13D+05 ExpMxC= 1.70D+04 IAcc=3 IRadAn=         5 AccDes= 0.00D+00
 Harris functional with IExCor= 4639 and IRadAn=       5 diagonalized for initial guess.
 HarFok:  IExCor= 4639 AccDes= 0.00D+00 IRadAn=         5 IDoV= 1 UseB2=F ITyADJ=14
 ICtDFT=  3500011 ScaDFX=  1.000000  1.000000  1.000000  1.000000
 FoFCou: FMM=F IPFlag=           0 FMFlag=      100000 FMFlg1=           0
         NFxFlg=           0 DoJE=T BraDBF=F KetDBF=T FulRan=T
         wScrn=  0.000000 ICntrl=       500 IOpCl=  0 I1Cent=   200000004 NGrid=           0
         NMat0=    1 NMatS0=      1 NMatT0=    0 NMatD0=    1 NMtDS0=    0 NMtDT0=    0
 Petite list used in FoFCou.
 Requested convergence on RMS density matrix=1.00D-08 within 128 cycles.
 Requested convergence on MAX density matrix=1.00D-06.
 Requested convergence on             energy=1.00D-06.
 No special actions if energy rises.
 Inv3:  Mode=1 IEnd=    17612787.
 Iteration    1 A*A^-1 deviation from unit magnitude is 3.77D-15 for   1994.
 Iteration    1 A*A^-1 deviation from orthogonality  is 2.52D-15 for   1445    127.
 Iteration    1 A^-1*A deviation from unit magnitude is 4.00D-15 for   1994.
 Iteration    1 A^-1*A deviation from orthogonality  is 1.71D-14 for   1455   1418.
 Error on total polarization charges =  0.00587
 SCF Done:  E(RwB97XD) =  -3186.13623593     A.U. after   16 cycles
            NFock= 16  Conv=0.42D-08     -V/T= 2.0029
 DoSCS=F DFT=T ScalE2(SS,OS)=  1.000000  1.000000
 Range of M.O.s used for correlation:     1   303
 NBasis=   303 NAE=    69 NBE=    69 NFC=     0 NFV=     0
 NROrb=    303 NOA=    69 NOB=    69 NVA=   234 NVB=   234

 **** Warning!!: The largest alpha MO coefficient is  0.10951464D+02

   1 Symmetry operations used in ECPInt.
 ECPInt:  NShTT=   10011 NPrTT=   37668 LenC2=    9528 LenP2D=   25663.
 LDataN:  DoStor=T MaxTD1= 5 Len=  102
 Symmetrizing basis deriv contribution to polar:
 IMax=3 JMax=2 DiffMx= 0.00D+00
 G2DrvN: will do    31 centers at a time, making    1 passes.
 Calling FoFCou, ICntrl=  3107 FMM=F I1Cent=   0 AccDes= 0.00D+00.
 NEqPCM:  Using equilibrium solvation (IEInf=0, Eps=   2.3741, EpsInf=   2.2383)
 G2PCM: DoFxE=T DoFxN=T DoGrad=T DoDP/DQ/DG/TGxP=FFFF NFrqRd=   0 IEInf=0 SqF1=F DoCFld=F IF1Alg=4.
 End of G2Drv F.D. properties file   721 does not exist.
 End of G2Drv F.D. properties file   722 does not exist.
 End of G2Drv F.D. properties file   788 does not exist.
          IDoAtm=111111111111111111111111111111
 NEqPCM:  Using equilibrium solvation (IEInf=0, Eps=   2.3741, EpsInf=   2.2383)
          Differentiating once with respect to nuclear coordinates.
 Keep R1 ints in memory in canonical form, NReq=2151801613.
          There are    93 degrees of freedom in the 1st order CPHF.  IDoFFX=6 NUNeed=     0.
     87 vectors produced by pass  0 Test12= 1.74D-14 1.08D-09 XBig12= 1.00D-01 1.03D-01.
 AX will form    87 AO Fock derivatives at one time.
     87 vectors produced by pass  1 Test12= 1.74D-14 1.08D-09 XBig12= 1.13D-02 2.72D-02.
     87 vectors produced by pass  2 Test12= 1.74D-14 1.08D-09 XBig12= 3.06D-04 3.10D-03.
     87 vectors produced by pass  3 Test12= 1.74D-14 1.08D-09 XBig12= 4.27D-06 3.28D-04.
     87 vectors produced by pass  4 Test12= 1.74D-14 1.08D-09 XBig12= 5.17D-08 3.52D-05.
     87 vectors produced by pass  5 Test12= 1.74D-14 1.08D-09 XBig12= 3.55D-10 1.98D-06.
     81 vectors produced by pass  6 Test12= 1.74D-14 1.08D-09 XBig12= 2.03D-12 1.34D-07.
     27 vectors produced by pass  7 Test12= 1.74D-14 1.08D-09 XBig12= 1.03D-14 8.38D-09.
 InvSVY:  IOpt=1 It=  1 EMax= 3.05D-16
 Solved reduced A of dimension   630 with    93 vectors.
 End of Minotr F.D. properties file   721 does not exist.
 End of Minotr F.D. properties file   722 does not exist.
 End of Minotr F.D. properties file   788 does not exist.

 **********************************************************************

            Population analysis using the SCF Density.

 **********************************************************************

 Orbital symmetries:
       Occupied  (A) (A) (A) (A) (A) (A) (A) (A) (A) (A) (A) (A)
                 (A) (A) (A) (A) (A) (A) (A) (A) (A) (A) (A) (A)
                 (A) (A) (A) (A) (A) (A) (A) (A) (A) (A) (A) (A)
                 (A) (A) (A) (A) (A) (A) (A) (A) (A) (A) (A) (A)
                 (A) (A) (A) (A) (A) (A) (A) (A) (A) (A) (A) (A)
                 (A) (A) (A) (A) (A) (A) (A) (A) (A)
       Virtual   (A) (A) (A) (A) (A) (A) (A) (A) (A) (A) (A) (A)
                 (A) (A) (A) (A) (A) (A) (A) (A) (A) (A) (A) (A)
                 (A) (A) (A) (A) (A) (A) (A) (A) (A) (A) (A) (A)
                 (A) (A) (A) (A) (A) (A) (A) (A) (A) (A) (A) (A)
                 (A) (A) (A) (A) (A) (A) (A) (A) (A) (A) (A) (A)
                 (A) (A) (A) (A) (A) (A) (A) (A) (A) (A) (A) (A)
                 (A) (A) (A) (A) (A) (A) (A) (A) (A) (A) (A) (A)
                 (A) (A) (A) (A) (A) (A) (A) (A) (A) (A) (A) (A)
                 (A) (A) (A) (A) (A) (A) (A) (A) (A) (A) (A) (A)
                 (A) (A) (A) (A) (A) (A) (A) (A) (A) (A) (A) (A)
                 (A) (A) (A) (A) (A) (A) (A) (A) (A) (A) (A) (A)
                 (A) (A) (A) (A) (A) (A) (A) (A) (A) (A) (A) (A)
                 (A) (A) (A) (A) (A) (A) (A) (A) (A) (A) (A) (A)
                 (A) (A) (A) (A) (A) (A) (A) (A) (A) (A) (A) (A)
                 (A) (A) (A) (A) (A) (A) (A) (A) (A) (A) (A) (A)
                 (A) (A) (A) (A) (A) (A) (A) (A) (A) (A) (A) (A)
                 (A) (A) (A) (A) (A) (A) (A) (A) (A) (A) (A) (A)
                 (A) (A) (A) (A) (A) (A) (A) (A) (A) (A) (A) (A)
                 (A) (A) (A) (A) (A) (A) (A) (A) (A) (A) (A) (A)
                 (A) (A) (A) (A) (A) (A)
 The electronic state is 1-A.
 Alpha  occ. eigenvalues -- -483.05775 -62.63987 -56.44758 -56.44404 -56.44384
 Alpha  occ. eigenvalues --  -19.20346 -14.48246 -14.44876 -10.37905 -10.37455
 Alpha  occ. eigenvalues --  -10.33943 -10.31525 -10.30697 -10.29870 -10.29855
 Alpha  occ. eigenvalues --  -10.29504 -10.29467 -10.29431 -10.25488  -8.80939
 Alpha  occ. eigenvalues --   -6.63489  -6.62198  -6.62125  -2.73860  -2.73503
 Alpha  occ. eigenvalues --   -2.73445  -2.72416  -2.72415  -1.10507  -1.02610
 Alpha  occ. eigenvalues --   -0.99325  -0.94987  -0.91722  -0.86235  -0.83325
 Alpha  occ. eigenvalues --   -0.80497  -0.78723  -0.77276  -0.70156  -0.68682
 Alpha  occ. eigenvalues --   -0.67170  -0.64710  -0.61676  -0.60912  -0.57131
 Alpha  occ. eigenvalues --   -0.56629  -0.54763  -0.54535  -0.53038  -0.52640
 Alpha  occ. eigenvalues --   -0.51828  -0.51155  -0.50131  -0.48920  -0.47711
 Alpha  occ. eigenvalues --   -0.46664  -0.46268  -0.45384  -0.44827  -0.44346
 Alpha  occ. eigenvalues --   -0.42218  -0.41743  -0.37120  -0.36481  -0.34677
 Alpha  occ. eigenvalues --   -0.32982  -0.31789  -0.31492  -0.24095
 Alpha virt. eigenvalues --    0.04793   0.06145   0.08462   0.09484   0.12706
 Alpha virt. eigenvalues --    0.14980   0.15643   0.16238   0.17366   0.17571
 Alpha virt. eigenvalues --    0.18856   0.19152   0.20003   0.20787   0.21677
 Alpha virt. eigenvalues --    0.22219   0.22642   0.23479   0.24263   0.24864
 Alpha virt. eigenvalues --    0.25770   0.28113   0.29237   0.33103   0.33616
 Alpha virt. eigenvalues --    0.36393   0.37495   0.38552   0.38706   0.41800
 Alpha virt. eigenvalues --    0.42448   0.43537   0.44811   0.45900   0.47672
 Alpha virt. eigenvalues --    0.49150   0.49732   0.50329   0.51946   0.52233
 Alpha virt. eigenvalues --    0.53069   0.53831   0.54968   0.55788   0.56548
 Alpha virt. eigenvalues --    0.57127   0.57606   0.57817   0.58491   0.59495
 Alpha virt. eigenvalues --    0.60380   0.62602   0.63733   0.64465   0.65487
 Alpha virt. eigenvalues --    0.66419   0.68220   0.68482   0.69259   0.69511
 Alpha virt. eigenvalues --    0.70706   0.71714   0.72740   0.73086   0.73603
 Alpha virt. eigenvalues --    0.74472   0.74708   0.75353   0.75900   0.75959
 Alpha virt. eigenvalues --    0.76287   0.76423   0.77688   0.77870   0.78401
 Alpha virt. eigenvalues --    0.79359   0.80703   0.80947   0.82218   0.82654
 Alpha virt. eigenvalues --    0.83556   0.84087   0.85012   0.85610   0.86834
 Alpha virt. eigenvalues --    0.87039   0.88577   0.90103   0.91239   0.94220
 Alpha virt. eigenvalues --    0.94703   0.96784   0.97939   0.98059   1.00759
 Alpha virt. eigenvalues --    1.03736   1.04232   1.06100   1.08140   1.11065
 Alpha virt. eigenvalues --    1.14007   1.15193   1.17860   1.18847   1.20169
 Alpha virt. eigenvalues --    1.23107   1.26246   1.28278   1.30679   1.31082
 Alpha virt. eigenvalues --    1.32178   1.33631   1.35679   1.37222   1.38256
 Alpha virt. eigenvalues --    1.38993   1.39577   1.42983   1.45166   1.46822
 Alpha virt. eigenvalues --    1.49177   1.52519   1.56570   1.57437   1.59945
 Alpha virt. eigenvalues --    1.60981   1.62023   1.62157   1.67697   1.71286
 Alpha virt. eigenvalues --    1.73194   1.75371   1.76759   1.78888   1.79651
 Alpha virt. eigenvalues --    1.80481   1.83099   1.83143   1.84324   1.84945
 Alpha virt. eigenvalues --    1.85195   1.85916   1.86296   1.86604   1.87977
 Alpha virt. eigenvalues --    1.88221   1.88823   1.89605   1.90593   1.91474
 Alpha virt. eigenvalues --    1.92085   1.95198   1.95999   1.98876   2.01434
 Alpha virt. eigenvalues --    2.03246   2.03797   2.04390   2.05857   2.06980
 Alpha virt. eigenvalues --    2.07922   2.08022   2.09293   2.12923   2.13604
 Alpha virt. eigenvalues --    2.15659   2.16943   2.17990   2.19365   2.19937
 Alpha virt. eigenvalues --    2.23003   2.23275   2.24688   2.25184   2.27100
 Alpha virt. eigenvalues --    2.30015   2.31045   2.37380   2.38186   2.39536
 Alpha virt. eigenvalues --    2.39972   2.40621   2.41822   2.42750   2.43951
 Alpha virt. eigenvalues --    2.44353   2.46793   2.51655   2.52469   2.55006
 Alpha virt. eigenvalues --    2.59617   2.62430   2.63407   2.65825   2.70065
 Alpha virt. eigenvalues --    2.71800   2.73030   2.74386   2.75354   2.76366
 Alpha virt. eigenvalues --    2.77659   2.78681   2.81056   2.82938   2.83351
 Alpha virt. eigenvalues --    2.83818   2.87803   2.89146   2.93864   2.96928
 Alpha virt. eigenvalues --    2.98264   3.00006   3.03021   3.05257   3.05726
 Alpha virt. eigenvalues --    3.06156   3.08014   3.10130   3.20540   3.22534
 Alpha virt. eigenvalues --    3.23495   3.27472   3.29119   3.34728   3.41247
 Alpha virt. eigenvalues --    3.51319   3.54879   3.57705   3.64282   3.67214
 Alpha virt. eigenvalues --    3.70554   3.73681   3.77991   3.93214
          Condensed to atoms (all electrons):
               1          2          3          4          5          6
     1  C    5.736507   0.270264  -0.118207   0.457851   0.004085  -0.000743
     2  C    0.270264   4.583206   0.717841  -0.031574  -0.000025  -0.000036
     3  O   -0.118207   0.717841   7.783384   0.007891  -0.000245   0.000008
     4  C    0.457851  -0.031574   0.007891   4.970392   0.000407   0.000612
     5  C    0.004085  -0.000025  -0.000245   0.000407   4.484092   0.405906
     6  H   -0.000743  -0.000036   0.000008   0.000612   0.405906   0.618074
     7  H   -0.000135  -0.000025  -0.000006  -0.000996   0.403752  -0.023674
     8  H    0.002633   0.000334  -0.000004  -0.000806   0.404381  -0.023739
     9  N   -0.079003  -0.010498  -0.000748  -0.062934   0.316988  -0.014879
    10  H    0.004500   0.000664  -0.000285   0.000499  -0.020791  -0.010888
    11  H   -0.013304   0.004617   0.018875  -0.001323  -0.024349  -0.008455
    12  H   -0.019925   0.008738  -0.000019   0.405480   0.001235  -0.000433
    13  Br  -0.073872  -0.002810  -0.002461   0.272147   0.001328  -0.000107
    14  C    0.364180  -0.044678  -0.001545  -0.019824   0.000706   0.000107
    15  C   -0.117549  -0.003474  -0.000076   0.002287  -0.000832   0.000089
    16  C    0.016236   0.000173   0.000023  -0.000256  -0.000194  -0.000002
    17  C   -0.000689   0.000059  -0.000000   0.000131  -0.000000  -0.000001
    18  C    0.014771  -0.000197   0.000002   0.000183  -0.000006   0.000001
    19  C   -0.102266   0.003949  -0.000156  -0.011728   0.000234   0.000005
    20  H   -0.017780   0.006921   0.001124  -0.000926   0.000007  -0.000006
    21  H   -0.000361  -0.000012  -0.000000  -0.000005  -0.000003   0.000000
    22  H    0.000021  -0.000000  -0.000000   0.000001   0.000000  -0.000000
    23  H   -0.000373   0.000002  -0.000000  -0.000006   0.000000  -0.000000
    24  H   -0.014120  -0.000269  -0.000001   0.001540  -0.000007   0.000001
    25  N   -0.158119   0.362369  -0.099762   0.002103  -0.000004  -0.000000
    26  C    0.013838  -0.026461   0.004648  -0.000421   0.000000   0.000000
    27  H   -0.014575  -0.001550   0.003092   0.000119   0.000001  -0.000000
    28  H    0.001457  -0.006951   0.012880   0.000171   0.000000  -0.000000
    29  H    0.000312  -0.001830   0.000787  -0.000097   0.000000  -0.000000
    30  H   -0.000373   0.007085   0.000490   0.000030   0.000000  -0.000000
               7          8          9         10         11         12
     1  C   -0.000135   0.002633  -0.079003   0.004500  -0.013304  -0.019925
     2  C   -0.000025   0.000334  -0.010498   0.000664   0.004617   0.008738
     3  O   -0.000006  -0.000004  -0.000748  -0.000285   0.018875  -0.000019
     4  C   -0.000996  -0.000806  -0.062934   0.000499  -0.001323   0.405480
     5  C    0.403752   0.404381   0.316988  -0.020791  -0.024349   0.001235
     6  H   -0.023674  -0.023739  -0.014879  -0.010888  -0.008455  -0.000433
     7  H    0.600362  -0.018048  -0.025778  -0.004955   0.006624   0.003286
     8  H   -0.018048   0.587513  -0.026631   0.007577  -0.005031   0.000142
     9  N   -0.025778  -0.026631   6.559161   0.316427   0.330124  -0.045013
    10  H   -0.004955   0.007577   0.316427   0.562876  -0.012395   0.000656
    11  H    0.006624  -0.005031   0.330124  -0.012395   0.541181   0.003706
    12  H    0.003286   0.000142  -0.045013   0.000656   0.003706   0.620017
    13  Br   0.000049  -0.000038  -0.043963   0.008640   0.002492  -0.034925
    14  C   -0.000164   0.001629   0.004928  -0.000162  -0.003321  -0.011394
    15  C    0.000011   0.001350   0.002564  -0.000060   0.000338  -0.000042
    16  C    0.000004   0.000609  -0.000072   0.000001   0.000021  -0.000015
    17  C    0.000001   0.000045  -0.000009   0.000000   0.000001  -0.000009
    18  C    0.000003  -0.000130   0.000058  -0.000002   0.000001  -0.000367
    19  C   -0.000023  -0.000051  -0.000432   0.000030  -0.000081   0.005355
    20  H   -0.000004   0.000366   0.000043  -0.000002   0.000124  -0.000009
    21  H   -0.000000   0.000010   0.000001  -0.000000  -0.000001   0.000001
    22  H   -0.000000  -0.000001  -0.000000   0.000000  -0.000000  -0.000001
    23  H    0.000000   0.000001  -0.000001   0.000000  -0.000000   0.000027
    24  H   -0.000013  -0.000010   0.000239  -0.000005  -0.000012   0.001408
    25  N   -0.000000   0.000003  -0.000079   0.000001   0.000564  -0.000096
    26  C    0.000000  -0.000000   0.000006  -0.000000  -0.000026   0.000007
    27  H    0.000000   0.000000   0.000002   0.000000  -0.000030  -0.000031
    28  H    0.000000   0.000000  -0.000001   0.000000  -0.000018   0.000001
    29  H    0.000000   0.000000  -0.000001   0.000000   0.000005   0.000000
    30  H    0.000000   0.000000  -0.000000   0.000000  -0.000000  -0.000000
              13         14         15         16         17         18
     1  C   -0.073872   0.364180  -0.117549   0.016236  -0.000689   0.014771
     2  C   -0.002810  -0.044678  -0.003474   0.000173   0.000059  -0.000197
     3  O   -0.002461  -0.001545  -0.000076   0.000023  -0.000000   0.000002
     4  C    0.272147  -0.019824   0.002287  -0.000256   0.000131   0.000183
     5  C    0.001328   0.000706  -0.000832  -0.000194  -0.000000  -0.000006
     6  H   -0.000107   0.000107   0.000089  -0.000002  -0.000001   0.000001
     7  H    0.000049  -0.000164   0.000011   0.000004   0.000001   0.000003
     8  H   -0.000038   0.001629   0.001350   0.000609   0.000045  -0.000130
     9  N   -0.043963   0.004928   0.002564  -0.000072  -0.000009   0.000058
    10  H    0.008640  -0.000162  -0.000060   0.000001   0.000000  -0.000002
    11  H    0.002492  -0.003321   0.000338   0.000021   0.000001   0.000001
    12  H   -0.034925  -0.011394  -0.000042  -0.000015  -0.000009  -0.000367
    13  Br  34.945604   0.003060  -0.000101   0.000003  -0.000000   0.000000
    14  C    0.003060   5.147035   0.324799   0.076363  -0.140091   0.075677
    15  C   -0.000101   0.324799   5.140447   0.305808   0.066263  -0.122626
    16  C    0.000003   0.076363   0.305808   5.044989   0.305495   0.068447
    17  C   -0.000000  -0.140091   0.066263   0.305495   5.094955   0.303813
    18  C    0.000000   0.075677  -0.122626   0.068447   0.303813   5.047649
    19  C    0.000036   0.314428   0.034356  -0.123378   0.066736   0.307843
    20  H   -0.000007  -0.063058   0.448671  -0.063942   0.013136  -0.001910
    21  H   -0.000000   0.014263  -0.064698   0.448692  -0.068879   0.012976
    22  H    0.000000  -0.001510   0.012922  -0.065154   0.447821  -0.065198
    23  H   -0.000000   0.014056  -0.001740   0.012897  -0.068272   0.446520
    24  H   -0.000119  -0.066566   0.013803  -0.002083   0.013494  -0.064210
    25  N   -0.000117  -0.004841   0.004398  -0.000635   0.000033  -0.000060
    26  C   -0.000116  -0.000009  -0.000514   0.000001   0.000001   0.000000
    27  H    0.000051   0.005223   0.000949  -0.000300   0.000006  -0.000002
    28  H    0.000069   0.000079   0.000004  -0.000003   0.000000  -0.000000
    29  H    0.000006  -0.000107  -0.000006   0.000060  -0.000002  -0.000001
    30  H   -0.000000  -0.000005   0.000008  -0.000002   0.000000  -0.000000
              19         20         21         22         23         24
     1  C   -0.102266  -0.017780  -0.000361   0.000021  -0.000373  -0.014120
     2  C    0.003949   0.006921  -0.000012  -0.000000   0.000002  -0.000269
     3  O   -0.000156   0.001124  -0.000000  -0.000000  -0.000000  -0.000001
     4  C   -0.011728  -0.000926  -0.000005   0.000001  -0.000006   0.001540
     5  C    0.000234   0.000007  -0.000003   0.000000   0.000000  -0.000007
     6  H    0.000005  -0.000006   0.000000  -0.000000  -0.000000   0.000001
     7  H   -0.000023  -0.000004  -0.000000  -0.000000   0.000000  -0.000013
     8  H   -0.000051   0.000366   0.000010  -0.000001   0.000001  -0.000010
     9  N   -0.000432   0.000043   0.000001  -0.000000  -0.000001   0.000239
    10  H    0.000030  -0.000002  -0.000000   0.000000   0.000000  -0.000005
    11  H   -0.000081   0.000124  -0.000001  -0.000000  -0.000000  -0.000012
    12  H    0.005355  -0.000009   0.000001  -0.000001   0.000027   0.001408
    13  Br   0.000036  -0.000007  -0.000000   0.000000  -0.000000  -0.000119
    14  C    0.314428  -0.063058   0.014263  -0.001510   0.014056  -0.066566
    15  C    0.034356   0.448671  -0.064698   0.012922  -0.001740   0.013803
    16  C   -0.123378  -0.063942   0.448692  -0.065154   0.012897  -0.002083
    17  C    0.066736   0.013136  -0.068879   0.447821  -0.068272   0.013494
    18  C    0.307843  -0.001910   0.012976  -0.065198   0.446520  -0.064210
    19  C    5.139053   0.013434  -0.001764   0.012712  -0.063188   0.451899
    20  H    0.013434   0.662494  -0.011458  -0.000227   0.000025  -0.000150
    21  H   -0.001764  -0.011458   0.663340  -0.011422  -0.000224   0.000027
    22  H    0.012712  -0.000227  -0.011422   0.662159  -0.011422  -0.000227
    23  H   -0.063188   0.000025  -0.000224  -0.011422   0.663850  -0.011804
    24  H    0.451899  -0.000150   0.000027  -0.000227  -0.011804   0.668404
    25  N   -0.000651  -0.001609   0.000002   0.000000  -0.000000  -0.000029
    26  C    0.000020   0.000039   0.000001   0.000000   0.000000   0.000004
    27  H    0.000745   0.000024  -0.000003  -0.000001  -0.000003   0.000069
    28  H    0.000000  -0.000012   0.000000   0.000000   0.000000   0.000000
    29  H    0.000015   0.000191  -0.000001  -0.000000   0.000000  -0.000001
    30  H    0.000003  -0.000004   0.000000   0.000000   0.000000  -0.000000
              25         26         27         28         29         30
     1  C   -0.158119   0.013838  -0.014575   0.001457   0.000312  -0.000373
     2  C    0.362369  -0.026461  -0.001550  -0.006951  -0.001830   0.007085
     3  O   -0.099762   0.004648   0.003092   0.012880   0.000787   0.000490
     4  C    0.002103  -0.000421   0.000119   0.000171  -0.000097   0.000030
     5  C   -0.000004   0.000000   0.000001   0.000000   0.000000   0.000000
     6  H   -0.000000   0.000000  -0.000000  -0.000000  -0.000000  -0.000000
     7  H   -0.000000   0.000000   0.000000   0.000000   0.000000   0.000000
     8  H    0.000003  -0.000000   0.000000   0.000000   0.000000   0.000000
     9  N   -0.000079   0.000006   0.000002  -0.000001  -0.000001  -0.000000
    10  H    0.000001  -0.000000   0.000000   0.000000   0.000000   0.000000
    11  H    0.000564  -0.000026  -0.000030  -0.000018   0.000005  -0.000000
    12  H   -0.000096   0.000007  -0.000031   0.000001   0.000000  -0.000000
    13  Br  -0.000117  -0.000116   0.000051   0.000069   0.000006  -0.000000
    14  C   -0.004841  -0.000009   0.005223   0.000079  -0.000107  -0.000005
    15  C    0.004398  -0.000514   0.000949   0.000004  -0.000006   0.000008
    16  C   -0.000635   0.000001  -0.000300  -0.000003   0.000060  -0.000002
    17  C    0.000033   0.000001   0.000006   0.000000  -0.000002   0.000000
    18  C   -0.000060   0.000000  -0.000002  -0.000000  -0.000001  -0.000000
    19  C   -0.000651   0.000020   0.000745   0.000000   0.000015   0.000003
    20  H   -0.001609   0.000039   0.000024  -0.000012   0.000191  -0.000004
    21  H    0.000002   0.000001  -0.000003   0.000000  -0.000001   0.000000
    22  H    0.000000   0.000000  -0.000001   0.000000  -0.000000   0.000000
    23  H   -0.000000   0.000000  -0.000003   0.000000   0.000000   0.000000
    24  H   -0.000029   0.000004   0.000069   0.000000  -0.000001  -0.000000
    25  N    6.576228   0.302548   0.357794  -0.027290  -0.039575  -0.022661
    26  C    0.302548   4.447198  -0.025129   0.400526   0.408759   0.399793
    27  H    0.357794  -0.025129   0.524179   0.004825   0.001356  -0.008416
    28  H   -0.027290   0.400526   0.004825   0.605361  -0.028372  -0.017599
    29  H   -0.039575   0.408759   0.001356  -0.028372   0.647270  -0.026036
    30  H   -0.022661   0.399793  -0.008416  -0.017599  -0.026036   0.627110
 Mulliken charges:
               1
     1  C   -0.155259
     2  C    0.164165
     3  O   -0.327528
     4  C    0.009052
     5  C    0.023337
     6  H    0.058160
     7  H    0.059730
     8  H    0.067896
     9  N   -0.220500
    10  H    0.147672
    11  H    0.159675
    12  H    0.062221
    13  Br  -0.074850
    14  C    0.010741
    15  C   -0.047350
    16  C   -0.023788
    17  C   -0.034038
    18  C   -0.023238
    19  C   -0.047137
    20  H    0.014508
    21  H    0.019518
    22  H    0.019527
    23  H    0.019655
    24  H    0.008735
    25  N   -0.250518
    26  C    0.075288
    27  H    0.151604
    28  H    0.054872
    29  H    0.037270
    30  H    0.040578
 Sum of Mulliken charges =  -0.00000
 Mulliken charges with hydrogens summed into heavy atoms:
               1
     1  C   -0.155259
     2  C    0.164165
     3  O   -0.327528
     4  C    0.071272
     5  C    0.209123
     9  N    0.086847
    13  Br  -0.074850
    14  C    0.010741
    15  C   -0.032843
    16  C   -0.004270
    17  C   -0.014511
    18  C   -0.003583
    19  C   -0.038402
    25  N   -0.098914
    26  C    0.208008
 APT charges:
               1
     1  C   -0.079636
     2  C   -0.638573
     3  O    0.074384
     4  C   -0.268626
     5  C   -0.864008
     6  H    0.671683
     7  H    0.443380
     8  H    0.100859
     9  N   -0.982456
    10  H    0.607246
    11  H    0.267599
    12  H    0.379960
    13  Br  -0.026363
    14  C   -0.523509
    15  C   -0.447874
    16  C   -0.517291
    17  C   -0.623200
    18  C   -0.514967
    19  C   -0.459068
    20  H    0.227480
    21  H    0.738638
    22  H    1.005290
    23  H    0.743175
    24  H    0.234056
    25  N   -0.257756
    26  C   -0.872517
    27  H    0.324119
    28  H    0.343798
    29  H    0.312162
    30  H    0.602014
 Sum of APT charges =  -0.00000
 APT charges with hydrogens summed into heavy atoms:
               1
     1  C   -0.079636
     2  C   -0.638573
     3  O    0.074384
     4  C    0.111334
     5  C    0.351913
     9  N   -0.107611
    13  Br  -0.026363
    14  C   -0.523509
    15  C   -0.220393
    16  C    0.221347
    17  C    0.382090
    18  C    0.228208
    19  C   -0.225012
    25  N    0.066363
    26  C    0.385457
 Electronic spatial extent (au):  <R**2>=           4492.6776
 Charge=             -0.0000 electrons
 Dipole moment (field-independent basis, Debye):
    X=              1.3392    Y=             -3.5318    Z=              0.3866  Tot=              3.7968
 Quadrupole moment (field-independent basis, Debye-Ang):
   XX=           -101.8482   YY=            -87.4147   ZZ=            -98.2492
   XY=              7.3825   XZ=             -0.0514   YZ=             -8.7899
 Traceless Quadrupole moment (field-independent basis, Debye-Ang):
   XX=             -6.0108   YY=              8.4227   ZZ=             -2.4118
   XY=              7.3825   XZ=             -0.0514   YZ=             -8.7899
 Octapole moment (field-independent basis, Debye-Ang**2):
  XXX=            -81.9788  YYY=             -3.3254  ZZZ=            -11.7634  XYY=            -42.0703
  XXY=            -13.3838  XXZ=             -2.7862  XZZ=            -21.4170  YZZ=            -22.8153
  YYZ=              1.7467  XYZ=             16.1329
 Hexadecapole moment (field-independent basis, Debye-Ang**3):
 XXXX=          -2869.8967 YYYY=          -1587.4802 ZZZZ=           -715.7448 XXXY=             14.9335
 XXXZ=             66.9268 YYYX=             82.4379 YYYZ=            -51.7912 ZZZX=             47.5795
 ZZZY=            -22.5950 XXYY=           -824.0701 XXZZ=           -603.7055 YYZZ=           -399.4560
 XXYZ=              1.9741 YYXZ=              3.7176 ZZXY=             26.5176
 N-N= 1.347977484875D+03 E-N=-1.027160764672D+04  KE= 3.176998885425D+03
  Exact polarizability:       0.000       0.000       0.000       0.000       0.000       0.000
 Approx polarizability:     203.363       2.105     147.927      -3.953       7.576     166.843
   1 Symmetry operations used in ECPInt.
 ECPInt:  NShTT=   10011 NPrTT=   37668 LenC2=    9528 LenP2D=   25663.
 LDataN:  DoStor=T MaxTD1= 6 Len=  172
 D2PCM: PCM CHGder 2nd derivatives, FixD1E=F FixD2E=F DoIter=F DoCFld=F I1PDM=0
 Calling FoFJK, ICntrl=    100127 FMM=F ISym2X=0 I1Cent= 0 IOpClX= 0 NMat=1 NMatS=1 NMatT=0.
 ***** Axes restored to original set *****
 -------------------------------------------------------------------
 Center     Atomic                   Forces (Hartrees/Bohr)
 Number     Number              X              Y              Z
 -------------------------------------------------------------------
      1        6          -0.000829166    0.023707474   -0.011629158
      2        6           0.022829666   -0.010142602   -0.005930423
      3        8          -0.005448261    0.009358861   -0.003424563
      4        6           0.022602835   -0.007679479   -0.020163169
      5        6           0.005637031    0.002408037   -0.009401114
      6        1          -0.000253178   -0.002962592    0.004274437
      7        1           0.000932722   -0.002763789   -0.002379040
      8        1           0.003233767    0.001989407   -0.000427732
      9        7          -0.041614630   -0.017737946    0.050314747
     10        1           0.002194730   -0.000328008    0.000078076
     11        1           0.002104785    0.001734312   -0.008965034
     12        1           0.000681306    0.008096385   -0.009339548
     13       35          -0.000468944   -0.002689370    0.004386524
     14        6          -0.011412025    0.004439013   -0.002327208
     15        6           0.010383006   -0.001489334   -0.001821914
     16        6          -0.005881303    0.000898326   -0.002669287
     17        6           0.000984830   -0.000392347   -0.000027025
     18        6          -0.005107925   -0.000050452    0.004389028
     19        6           0.011291014   -0.003726960    0.000957451
     20        1          -0.003337876    0.001255535    0.001739022
     21        1           0.002398759    0.000699677    0.003060658
     22        1           0.003760333   -0.000435076   -0.000495261
     23        1           0.001297346   -0.000976183   -0.003624032
     24        1          -0.004120887    0.001060543   -0.001334063
     25        7          -0.015068423   -0.008885170    0.010074128
     26        6           0.007550305   -0.005985702   -0.002207971
     27        1          -0.002641460   -0.002816445   -0.000069114
     28        1          -0.002370818   -0.000201527    0.001085499
     29        1           0.001015949    0.008807156    0.006730424
     30        1          -0.000343491    0.004808255   -0.000854341
 -------------------------------------------------------------------
 Cartesian Forces:  Max     0.050314747 RMS     0.009860989
 FormGI is forming the generalized inverse of G from B-inverse, IUseBI=4.

 GradGradGradGradGradGradGradGradGradGradGradGradGradGradGradGradGradGrad
 Berny optimization.
 Internal  Forces:  Max     0.039644978 RMS     0.006055168
 Search for a saddle point.
 Step number   1 out of a maximum of   50
 All quantities printed in internal units (Hartrees-Bohrs-Radians)
 Swapping is turned off.
 Second derivative matrix not updated -- analytic derivatives used.
 ITU=  0
     Eigenvalues ---   -0.05329  -0.00043  -0.00023   0.00080   0.00151
     Eigenvalues ---    0.00280   0.00330   0.00689   0.00735   0.01270
     Eigenvalues ---    0.01703   0.01839   0.01886   0.01918   0.02374
     Eigenvalues ---    0.02501   0.02603   0.02680   0.02961   0.03035
     Eigenvalues ---    0.03083   0.04639   0.04778   0.04833   0.05175
     Eigenvalues ---    0.05769   0.05960   0.06097   0.06250   0.09180
     Eigenvalues ---    0.09715   0.10950   0.11296   0.11378   0.11459
     Eigenvalues ---    0.11607   0.12249   0.12485   0.12611   0.13409
     Eigenvalues ---    0.13702   0.16589   0.16885   0.17408   0.17623
     Eigenvalues ---    0.18207   0.18302   0.18907   0.19298   0.19356
     Eigenvalues ---    0.19582   0.20248   0.21423   0.22833   0.24024
     Eigenvalues ---    0.26028   0.29900   0.34444   0.35063   0.35163
     Eigenvalues ---    0.35212   0.35675   0.35918   0.36037   0.36064
     Eigenvalues ---    0.36230   0.37052   0.37335   0.37415   0.37422
     Eigenvalues ---    0.37538   0.37603   0.41641   0.42027   0.42754
     Eigenvalues ---    0.43238   0.43877   0.44719   0.48167   0.48648
     Eigenvalues ---    0.48987   0.52436   0.57881   0.82945
 Eigenvectors required to have negative eigenvalues:
                          R6        A19       A10       D10       A20
   1                    0.73709   0.36108  -0.18949  -0.18483  -0.18395
                          D7        D8        D5        A21       R2
   1                   -0.18220  -0.17713  -0.17450  -0.12714  -0.09866
 RFO step:  Lambda0=3.396279798D-04 Lambda=-3.34189912D-02.
 Linear search not attempted -- option 19 set.
 Maximum step size (   0.100) exceeded in Quadratic search.
    -- Step size scaled by   0.216
 Iteration  1 RMS(Cart)=  0.05877751 RMS(Int)=  0.00164365
 Iteration  2 RMS(Cart)=  0.00210111 RMS(Int)=  0.00012157
 Iteration  3 RMS(Cart)=  0.00000408 RMS(Int)=  0.00012154
 Iteration  4 RMS(Cart)=  0.00000000 RMS(Int)=  0.00012154
 Variable       Old X    -DE/DX   Delta X   Delta X   Delta X     New X
                                 (Linear)    (Quad)   (Total)
    R1        2.82654  -0.00395   0.00000  -0.00023  -0.00023   2.82631
    R2        2.57402   0.01572   0.00000  -0.00017  -0.00017   2.57385
    R3        2.79716   0.00026   0.00000  -0.00275  -0.00275   2.79441
    R4        2.31715   0.00100   0.00000   0.00205   0.00205   2.31920
    R5        2.60029  -0.01466   0.00000  -0.00959  -0.00959   2.59071
    R6        3.54278   0.03964   0.00000   0.05652   0.05652   3.59930
    R7        2.06894  -0.00187   0.00000  -0.00202  -0.00202   2.06692
    R8        3.62400  -0.00110   0.00000   0.00158   0.00158   3.62558
    R9        2.06672   0.00471   0.00000   0.00320   0.00320   2.06992
   R10        2.06617   0.00371   0.00000   0.00220   0.00220   2.06837
   R11        2.06594   0.00357   0.00000   0.00241   0.00241   2.06835
   R12        2.76908   0.00310   0.00000  -0.00584  -0.00584   2.76324
   R13        1.94107  -0.00191   0.00000  -0.00224  -0.00224   1.93884
   R14        1.95005  -0.00530   0.00000  -0.00243  -0.00243   1.94762
   R15        2.65033   0.00351   0.00000   0.00232   0.00232   2.65264
   R16        2.65126   0.00292   0.00000   0.00163   0.00163   2.65289
   R17        2.63895  -0.00126   0.00000  -0.00143  -0.00143   2.63752
   R18        2.05741   0.00309   0.00000   0.00182   0.00182   2.05923
   R19        2.63298   0.00168   0.00000   0.00089   0.00089   2.63387
   R20        2.05426   0.00395   0.00000   0.00211   0.00211   2.05638
   R21        2.63313   0.00162   0.00000   0.00074   0.00074   2.63387
   R22        2.05450   0.00381   0.00000   0.00183   0.00183   2.05633
   R23        2.63955  -0.00126   0.00000  -0.00148  -0.00148   2.63807
   R24        2.05434   0.00395   0.00000   0.00212   0.00212   2.05646
   R25        2.05595   0.00334   0.00000   0.00185   0.00185   2.05780
   R26        2.71889   0.00749   0.00000   0.00162   0.00162   2.72051
   R27        1.91205  -0.00142   0.00000  -0.00010  -0.00010   1.91195
   R28        2.06600   0.00256   0.00000   0.00095   0.00095   2.06696
   R29        2.06576   0.00730   0.00000   0.00387   0.00387   2.06963
   R30        2.06428   0.00372   0.00000   0.00234   0.00234   2.06662
    A1        2.08214   0.00522   0.00000  -0.00591  -0.00627   2.07587
    A2        2.09725  -0.00229   0.00000  -0.00312  -0.00348   2.09377
    A3        2.10005  -0.00314   0.00000   0.00495   0.00456   2.10461
    A4        2.13480   0.00619   0.00000  -0.00327  -0.00327   2.13153
    A5        1.98007   0.00903   0.00000   0.00799   0.00799   1.98806
    A6        2.16760  -0.01514   0.00000  -0.00465  -0.00465   2.16295
    A7        1.87033   0.01729   0.00000   0.00382   0.00376   1.87409
    A8        2.08981  -0.00437   0.00000  -0.00009  -0.00021   2.08960
    A9        2.13005   0.00045   0.00000  -0.00054  -0.00066   2.12939
   A10        1.51728   0.00837   0.00000   0.01975   0.01976   1.53703
   A11        1.79906  -0.01953   0.00000  -0.02716  -0.02720   1.77187
   A12        1.92029  -0.00013   0.00000   0.00404   0.00424   1.92452
   A13        1.89979  -0.00120   0.00000  -0.00154  -0.00155   1.89825
   A14        1.89834  -0.00038   0.00000  -0.00202  -0.00201   1.89633
   A15        1.92648   0.00378   0.00000   0.00800   0.00800   1.93448
   A16        1.89565   0.00009   0.00000  -0.00092  -0.00092   1.89473
   A17        1.91965   0.00001   0.00000  -0.00063  -0.00064   1.91901
   A18        1.92338  -0.00237   0.00000  -0.00304  -0.00304   1.92035
   A19        2.34714  -0.02463   0.00000  -0.05047  -0.05051   2.29663
   A20        1.79225   0.01005   0.00000   0.02629   0.02661   1.81886
   A21        1.74185   0.00140   0.00000  -0.00901  -0.00927   1.73258
   A22        1.86622   0.00668   0.00000   0.01517   0.01536   1.88158
   A23        1.86114   0.01203   0.00000   0.02169   0.02088   1.88202
   A24        1.78426  -0.00167   0.00000   0.00761   0.00743   1.79169
   A25        2.09531   0.00116   0.00000   0.00188   0.00187   2.09718
   A26        2.11457   0.00352   0.00000   0.00218   0.00218   2.11675
   A27        2.07299  -0.00466   0.00000  -0.00396  -0.00396   2.06903
   A28        2.10498   0.00240   0.00000   0.00182   0.00182   2.10680
   A29        2.10095  -0.00373   0.00000  -0.00356  -0.00356   2.09739
   A30        2.07719   0.00134   0.00000   0.00172   0.00172   2.07892
   A31        2.09515   0.00101   0.00000   0.00144   0.00144   2.09658
   A32        2.09268  -0.00057   0.00000  -0.00121  -0.00121   2.09147
   A33        2.09536  -0.00044   0.00000  -0.00023  -0.00023   2.09512
   A34        2.09361  -0.00229   0.00000  -0.00277  -0.00277   2.09085
   A35        2.09449   0.00118   0.00000   0.00145   0.00145   2.09594
   A36        2.09508   0.00111   0.00000   0.00132   0.00132   2.09640
   A37        2.09560   0.00106   0.00000   0.00144   0.00144   2.09704
   A38        2.09394  -0.00034   0.00000  -0.00002  -0.00002   2.09392
   A39        2.09364  -0.00072   0.00000  -0.00142  -0.00142   2.09222
   A40        2.10402   0.00249   0.00000   0.00202   0.00202   2.10604
   A41        2.10462  -0.00414   0.00000  -0.00423  -0.00423   2.10039
   A42        2.07453   0.00165   0.00000   0.00220   0.00220   2.07673
   A43        2.11769   0.00371   0.00000   0.00792   0.00792   2.12561
   A44        2.07560  -0.00461   0.00000  -0.00698  -0.00699   2.06862
   A45        2.07599   0.00094   0.00000  -0.00023  -0.00024   2.07576
   A46        1.92893  -0.00376   0.00000  -0.00819  -0.00818   1.92075
   A47        1.89468   0.01247   0.00000   0.01151   0.01149   1.90617
   A48        1.89510   0.00310   0.00000   0.00545   0.00543   1.90053
   A49        1.91039  -0.00452   0.00000  -0.00300  -0.00298   1.90741
   A50        1.91922  -0.00176   0.00000  -0.00145  -0.00144   1.91778
   A51        1.91529  -0.00535   0.00000  -0.00413  -0.00418   1.91111
    D1        0.85769  -0.00492   0.00000   0.00457   0.00468   0.86236
    D2       -2.32296  -0.00318   0.00000   0.00648   0.00658  -2.31638
    D3       -2.19138  -0.00222   0.00000   0.05460   0.05450  -2.13689
    D4        0.91115  -0.00047   0.00000   0.05651   0.05640   0.96756
    D5       -1.58311   0.01327   0.00000   0.07902   0.07905  -1.50407
    D6        3.01711  -0.00578   0.00000   0.05281   0.05282   3.06993
    D7        0.48003   0.00207   0.00000   0.04493   0.04494   0.52497
    D8        1.46580   0.01061   0.00000   0.02847   0.02847   1.49427
    D9       -0.21716  -0.00844   0.00000   0.00226   0.00224  -0.21492
   D10       -2.75424  -0.00059   0.00000  -0.00561  -0.00564  -2.75988
   D11        0.82996  -0.00307   0.00000  -0.07836  -0.07841   0.75155
   D12       -2.28432  -0.00378   0.00000  -0.08274  -0.08280  -2.36711
   D13       -2.21816  -0.00078   0.00000  -0.02723  -0.02717  -2.24532
   D14        0.95076  -0.00149   0.00000  -0.03161  -0.03156   0.91920
   D15       -3.05591   0.00038   0.00000   0.00523   0.00524  -3.05068
   D16       -0.09460   0.00074   0.00000   0.00971   0.00971  -0.08489
   D17        0.04577   0.00273   0.00000   0.00722   0.00723   0.05300
   D18        3.00708   0.00309   0.00000   0.01170   0.01170   3.01878
   D19       -1.32926  -0.00064   0.00000  -0.00294  -0.00322  -1.33248
   D20        2.68942   0.00003   0.00000  -0.01257  -0.01257   2.67685
   D21        0.85637  -0.00101   0.00000  -0.02435  -0.02407   0.83230
   D22        0.76899  -0.00047   0.00000   0.00385   0.00367   0.77266
   D23       -1.49552   0.00020   0.00000  -0.00577  -0.00567  -1.50119
   D24        2.95462  -0.00084   0.00000  -0.01756  -0.01718   2.93745
   D25        2.68627   0.00077   0.00000   0.01177   0.01138   2.69765
   D26        0.42177   0.00144   0.00000   0.00214   0.00204   0.42380
   D27       -1.41128   0.00041   0.00000  -0.00964  -0.00947  -1.42075
   D28        3.10918  -0.00196   0.00000  -0.02430  -0.02439   3.08479
   D29       -0.93361  -0.00238   0.00000  -0.01254  -0.01265  -0.94626
   D30        0.96507   0.00363   0.00000   0.01157   0.01177   0.97684
   D31       -1.07744  -0.00104   0.00000  -0.02152  -0.02161  -1.09905
   D32        1.16295  -0.00145   0.00000  -0.00976  -0.00987   1.15308
   D33        3.06163   0.00456   0.00000   0.01434   0.01455   3.07618
   D34        1.01203  -0.00240   0.00000  -0.02497  -0.02506   0.98697
   D35       -3.03076  -0.00281   0.00000  -0.01321  -0.01331  -3.04408
   D36       -1.13208   0.00320   0.00000   0.01090   0.01110  -1.12098
   D37       -3.12232  -0.00049   0.00000  -0.00340  -0.00339  -3.12571
   D38        0.03136  -0.00079   0.00000  -0.00235  -0.00235   0.02901
   D39       -0.00740   0.00033   0.00000   0.00097   0.00097  -0.00643
   D40       -3.13691   0.00003   0.00000   0.00202   0.00202  -3.13489
   D41        3.12171   0.00100   0.00000   0.00612   0.00611   3.12782
   D42       -0.01337   0.00096   0.00000   0.00739   0.00738  -0.00599
   D43        0.00710   0.00021   0.00000   0.00170   0.00170   0.00880
   D44       -3.12799   0.00017   0.00000   0.00297   0.00297  -3.12502
   D45        0.00372  -0.00056   0.00000  -0.00252  -0.00252   0.00120
   D46       -3.13478  -0.00026   0.00000  -0.00068  -0.00068  -3.13546
   D47        3.13339  -0.00030   0.00000  -0.00359  -0.00359   3.12980
   D48       -0.00511   0.00000   0.00000  -0.00175  -0.00175  -0.00686
   D49        0.00041   0.00026   0.00000   0.00141   0.00140   0.00181
   D50       -3.13981   0.00010   0.00000   0.00056   0.00056  -3.13926
   D51        3.13890  -0.00004   0.00000  -0.00044  -0.00044   3.13845
   D52       -0.00132  -0.00020   0.00000  -0.00129  -0.00129  -0.00261
   D53       -0.00071   0.00028   0.00000   0.00126   0.00126   0.00055
   D54        3.14062  -0.00032   0.00000  -0.00164  -0.00165   3.13897
   D55        3.13951   0.00044   0.00000   0.00210   0.00210  -3.14157
   D56       -0.00235  -0.00016   0.00000  -0.00080  -0.00080  -0.00315
   D57       -0.00311  -0.00053   0.00000  -0.00284  -0.00284  -0.00595
   D58        3.13208  -0.00051   0.00000  -0.00411  -0.00412   3.12797
   D59        3.13875   0.00007   0.00000   0.00006   0.00006   3.13881
   D60       -0.00924   0.00009   0.00000  -0.00121  -0.00122  -0.01046
   D61       -0.67731  -0.00085   0.00000   0.06684   0.06685  -0.61046
   D62        1.41803  -0.00085   0.00000   0.06542   0.06540   1.48342
   D63       -2.78378   0.00166   0.00000   0.07019   0.07022  -2.71356
   D64        2.64460  -0.00064   0.00000   0.06304   0.06304   2.70764
   D65       -1.54325  -0.00065   0.00000   0.06162   0.06158  -1.48166
   D66        0.53813   0.00186   0.00000   0.06638   0.06640   0.60454
         Item               Value     Threshold  Converged?
 Maximum Force            0.039645     0.000450     NO 
 RMS     Force            0.006055     0.000300     NO 
 Maximum Displacement     0.298883     0.001800     NO 
 RMS     Displacement     0.059287     0.001200     NO 
 Predicted change in Energy=-7.208223D-03
 GradGradGradGradGradGradGradGradGradGradGradGradGradGradGradGradGradGrad

                          Input orientation:                          
 ---------------------------------------------------------------------
 Center     Atomic      Atomic             Coordinates (Angstroms)
 Number     Number       Type             X           Y           Z
 ---------------------------------------------------------------------
      1          6           0        0.080951    0.159056   -0.104884
      2          6           0       -0.381508    1.431398    0.530851
      3          8           0       -1.106928    1.440332    1.520734
      4          6           0       -0.836065   -0.807273   -0.388434
      5          6           0       -0.204981   -2.903414    1.772834
      6          1           0       -0.628628   -3.256657    2.719168
      7          1           0       -0.118415   -3.752243    1.087272
      8          1           0        0.796968   -2.506657    1.964316
      9          7           0       -1.049048   -1.867104    1.179737
     10          1           0       -2.000281   -2.243628    1.102043
     11          1           0       -1.160202   -1.114429    1.874963
     12          1           0       -0.523456   -1.714121   -0.914012
     13         35           0       -2.658174   -0.385764   -0.816428
     14          6           0        1.527593   -0.110461   -0.250689
     15          6           0        2.407300    0.169995    0.806613
     16          6           0        3.777232   -0.062204    0.674723
     17          6           0        4.288147   -0.576523   -0.515688
     18          6           0        3.427013   -0.856407   -1.575287
     19          6           0        2.056895   -0.622102   -1.446035
     20          1           0        2.024260    0.562003    1.748449
     21          1           0        4.445562    0.155009    1.505570
     22          1           0        5.356033   -0.759370   -0.617098
     23          1           0        3.823142   -1.255743   -2.506877
     24          1           0        1.403056   -0.835511   -2.290279
     25          7           0        0.115226    2.562265   -0.064025
     26          6           0       -0.130431    3.873815    0.476378
     27          1           0        0.791480    2.458799   -0.809436
     28          1           0       -1.130831    3.916720    0.916522
     29          1           0        0.614487    4.090467    1.249442
     30          1           0       -0.046225    4.609760   -0.328155
 ---------------------------------------------------------------------
                    Distance matrix (angstroms):
                    1          2          3          4          5
     1  C    0.000000
     2  C    1.495620   0.000000
     3  O    2.386495   1.227266   0.000000
     4  C    1.362025   2.462388   2.961422   0.000000
     5  C    3.603652   4.512679   4.443557   3.076224   0.000000
     6  H    4.488415   5.179542   4.871008   3.962285   1.095357
     7  H    4.093806   5.220053   5.303573   3.371287   1.094532
[...]
 Alpha virt. eigenvalues --    0.49090   0.49747   0.49998   0.50343   0.53132
 Alpha virt. eigenvalues --    0.53405   0.54171   0.54777   0.55733   0.57217
 Alpha virt. eigenvalues --    0.57505   0.57762   0.58880   0.59385   0.59873
 Alpha virt. eigenvalues --    0.60791   0.62805   0.63858   0.64952   0.65109
 Alpha virt. eigenvalues --    0.65717   0.66396   0.67079   0.69356   0.69904
 Alpha virt. eigenvalues --    0.70425   0.71492   0.72587   0.72950   0.73469
 Alpha virt. eigenvalues --    0.73728   0.73890   0.74039   0.75067   0.75865
 Alpha virt. eigenvalues --    0.76046   0.76331   0.77006   0.77800   0.78134
 Alpha virt. eigenvalues --    0.78762   0.80267   0.81395   0.82634   0.82703
 Alpha virt. eigenvalues --    0.83625   0.83679   0.85192   0.86481   0.86940
 Alpha virt. eigenvalues --    0.87412   0.88840   0.90716   0.92134   0.93313
 Alpha virt. eigenvalues --    0.95421   0.96700   0.98422   1.00424   1.00910
 Alpha virt. eigenvalues --    1.03312   1.05026   1.07057   1.08056   1.13298
 Alpha virt. eigenvalues --    1.13905   1.15941   1.17630   1.19995   1.21670
 Alpha virt. eigenvalues --    1.23391   1.27865   1.29337   1.29752   1.30976
 Alpha virt. eigenvalues --    1.33163   1.33532   1.35547   1.36456   1.37290
 Alpha virt. eigenvalues --    1.38814   1.39978   1.41969   1.42785   1.45949
 Alpha virt. eigenvalues --    1.48879   1.52519   1.55628   1.57704   1.59918
 Alpha virt. eigenvalues --    1.61639   1.61690   1.62763   1.67607   1.70298
 Alpha virt. eigenvalues --    1.70857   1.74719   1.75089   1.78117   1.78984
 Alpha virt. eigenvalues --    1.80674   1.82141   1.83050   1.84350   1.84609
 Alpha virt. eigenvalues --    1.84849   1.85508   1.86471   1.86511   1.87362
 Alpha virt. eigenvalues --    1.88357   1.88806   1.89997   1.91362   1.92795
 Alpha virt. eigenvalues --    1.93107   1.95069   1.95445   1.97322   2.00462
 Alpha virt. eigenvalues --    2.03154   2.03681   2.04567   2.05272   2.05600
 Alpha virt. eigenvalues --    2.07508   2.08440   2.09503   2.12288   2.13007
 Alpha virt. eigenvalues --    2.15405   2.16610   2.17077   2.18917   2.21743
 Alpha virt. eigenvalues --    2.23172   2.23489   2.24825   2.25751   2.27199
 Alpha virt. eigenvalues --    2.27421   2.30796   2.33488   2.36947   2.38582
 Alpha virt. eigenvalues --    2.39668   2.39937   2.40229   2.43005   2.43556
 Alpha virt. eigenvalues --    2.44720   2.48650   2.51136   2.52230   2.52603
 Alpha virt. eigenvalues --    2.58151   2.61866   2.65189   2.66347   2.68171
 Alpha virt. eigenvalues --    2.69879   2.71949   2.72818   2.73971   2.74685
 Alpha virt. eigenvalues --    2.75106   2.77046   2.81012   2.81355   2.81942
 Alpha virt. eigenvalues --    2.83605   2.87314   2.89840   2.96436   2.96748
 Alpha virt. eigenvalues --    2.97203   2.97713   3.02256   3.02990   3.06491
 Alpha virt. eigenvalues --    3.07983   3.08578   3.08794   3.17751   3.21682
 Alpha virt. eigenvalues --    3.24909   3.26322   3.26874   3.34476   3.40291
 Alpha virt. eigenvalues --    3.49238   3.55549   3.58229   3.65174   3.68528
 Alpha virt. eigenvalues --    3.70950   3.72929   3.77861   3.92916
          Condensed to atoms (all electrons):
               1          2          3          4          5          6
     1  C    5.728507   0.241795  -0.129221   0.464751  -0.002471  -0.001231
     2  C    0.241795   4.612042   0.689767  -0.045776  -0.001028   0.000132
     3  O   -0.129221   0.689767   7.821723   0.007437   0.000066   0.000006
     4  C    0.464751  -0.045776   0.007437   4.968809  -0.022259   0.002387
     5  C   -0.002471  -0.001028   0.000066  -0.022259   4.492247   0.403395
     6  H   -0.001231   0.000132   0.000006   0.002387   0.403395   0.613846
     7  H   -0.000714  -0.000070  -0.000042   0.000064   0.403818  -0.024393
     8  H    0.019184   0.000383   0.001042  -0.011220   0.400971  -0.022949
     9  N   -0.060276  -0.008081  -0.016168   0.074471   0.328488  -0.018401
    10  H    0.004350   0.000331   0.000142  -0.006297  -0.020633  -0.003925
    11  H   -0.015154   0.000525   0.054990  -0.009612  -0.017748  -0.008183
    12  H   -0.017168   0.008183   0.000328   0.390458   0.001214  -0.000063
    13  Br  -0.076513  -0.003951  -0.001986   0.254804   0.002758  -0.000221
    14  C    0.340913  -0.025878   0.002225  -0.041433  -0.000325   0.000064
    15  C   -0.121334  -0.008645  -0.000221   0.007705  -0.000333   0.000049
    16  C    0.015542  -0.000528  -0.000003  -0.000075  -0.000130  -0.000000
    17  C   -0.000851   0.000058  -0.000000   0.000078  -0.000002  -0.000001
    18  C    0.013952  -0.000169   0.000001   0.000291   0.000010   0.000000
    19  C   -0.092814   0.006490  -0.000098  -0.012800  -0.000060   0.000014
    20  H   -0.024671   0.006800  -0.000565   0.000138  -0.000088   0.000004
    21  H   -0.000301   0.000003   0.000000  -0.000001  -0.000001   0.000000
    22  H    0.000019  -0.000000   0.000000   0.000000   0.000000  -0.000000
    23  H   -0.000303   0.000001  -0.000000  -0.000011   0.000000  -0.000000
    24  H   -0.017150  -0.000080  -0.000002   0.003539   0.000006   0.000001
    25  N   -0.147026   0.386804  -0.099389   0.004919  -0.000004   0.000002
    26  C    0.009424  -0.032836  -0.008657  -0.000265   0.000001   0.000000
    27  H   -0.015619  -0.001383   0.003350   0.000024   0.000001  -0.000000
    28  H    0.003616  -0.009182   0.026728  -0.000044  -0.000004  -0.000000
    29  H   -0.000058   0.004968   0.000372  -0.000011  -0.000001  -0.000000
    30  H   -0.000345   0.000758   0.000149   0.000059   0.000000   0.000000
               7          8          9         10         11         12
     1  C   -0.000714   0.019184  -0.060276   0.004350  -0.015154  -0.017168
     2  C   -0.000070   0.000383  -0.008081   0.000331   0.000525   0.008183
     3  O   -0.000042   0.001042  -0.016168   0.000142   0.054990   0.000328
     4  C    0.000064  -0.011220   0.074471  -0.006297  -0.009612   0.390458
     5  C    0.403818   0.400971   0.328488  -0.020633  -0.017748   0.001214
     6  H   -0.024393  -0.022949  -0.018401  -0.003925  -0.008183  -0.000063
     7  H    0.608298  -0.017557  -0.025247  -0.007530   0.005911   0.001499
     8  H   -0.017557   0.592625  -0.030228   0.007317  -0.002275  -0.000545
     9  N   -0.025247  -0.030228   6.384403   0.342028   0.330415  -0.011337
    10  H   -0.007530   0.007317   0.342028   0.532623  -0.012470  -0.000695
    11  H    0.005911  -0.002275   0.330415  -0.012470   0.498550   0.002272
    12  H    0.001499  -0.000545  -0.011337  -0.000695   0.002272   0.582008
    13  Br   0.000033   0.000536  -0.066620   0.008492   0.003824  -0.035549
    14  C    0.000210   0.001468   0.000836  -0.000092  -0.000665  -0.010940
    15  C    0.000004   0.000793   0.000346  -0.000017  -0.000013   0.000095
    16  C    0.000004   0.000327  -0.000009   0.000000   0.000002  -0.000056
    17  C    0.000000   0.000018  -0.000001   0.000000  -0.000000  -0.000024
    18  C    0.000003  -0.000101   0.000014  -0.000001   0.000001   0.000068
    19  C   -0.000054  -0.000354   0.000382  -0.000013  -0.000055   0.007792
    20  H   -0.000013   0.001050   0.000028   0.000000  -0.000053  -0.000009
    21  H   -0.000000   0.000010   0.000000  -0.000000   0.000000   0.000001
    22  H   -0.000000  -0.000001  -0.000000  -0.000000   0.000000  -0.000001
    23  H    0.000000   0.000000  -0.000000   0.000000  -0.000000   0.000019
    24  H   -0.000012  -0.000031   0.000142  -0.000004  -0.000009   0.001415
    25  N   -0.000003  -0.000253  -0.000101   0.000004   0.001197  -0.000098
    26  C   -0.000000  -0.000012   0.000004  -0.000000  -0.000018   0.000006
    27  H    0.000000   0.000020   0.000002   0.000000  -0.000064  -0.000022
    28  H    0.000000   0.000006   0.000004  -0.000000  -0.000047  -0.000000
    29  H    0.000000   0.000007  -0.000001   0.000000   0.000005  -0.000000
    30  H   -0.000000  -0.000001   0.000001  -0.000000  -0.000005  -0.000000
              13         14         15         16         17         18
     1  C   -0.076513   0.340913  -0.121334   0.015542  -0.000851   0.013952
     2  C   -0.003951  -0.025878  -0.008645  -0.000528   0.000058  -0.000169
     3  O   -0.001986   0.002225  -0.000221  -0.000003  -0.000000   0.000001
     4  C    0.254804  -0.041433   0.007705  -0.000075   0.000078   0.000291
     5  C    0.002758  -0.000325  -0.000333  -0.000130  -0.000002   0.000010
     6  H   -0.000221   0.000064   0.000049  -0.000000  -0.000001   0.000000
     7  H    0.000033   0.000210   0.000004   0.000004   0.000000   0.000003
     8  H    0.000536   0.001468   0.000793   0.000327   0.000018  -0.000101
     9  N   -0.066620   0.000836   0.000346  -0.000009  -0.000001   0.000014
    10  H    0.008492  -0.000092  -0.000017   0.000000   0.000000  -0.000001
    11  H    0.003824  -0.000665  -0.000013   0.000002  -0.000000   0.000001
    12  H   -0.035549  -0.010940   0.000095  -0.000056  -0.000024   0.000068
    13  Br  35.013546   0.002845  -0.000117   0.000003  -0.000000  -0.000008
    14  C    0.002845   5.180229   0.306270   0.072719  -0.135259   0.069362
    15  C   -0.000117   0.306270   5.150778   0.330929   0.061160  -0.123846
    16  C    0.000003   0.072719   0.330929   5.021693   0.309861   0.067073
    17  C   -0.000000  -0.135259   0.061160   0.309861   5.087525   0.312313
    18  C   -0.000008   0.069362  -0.123846   0.067073   0.312313   5.023873
    19  C   -0.000309   0.324837   0.040123  -0.123380   0.062052   0.327116
    20  H   -0.000011  -0.065734   0.449925  -0.061203   0.013137  -0.002021
    21  H   -0.000000   0.014156  -0.062501   0.446008  -0.068226   0.012721
    22  H    0.000000  -0.001474   0.012774  -0.064494   0.447465  -0.064333
    23  H   -0.000000   0.013847  -0.001568   0.012495  -0.067277   0.444831
    24  H    0.000359  -0.063680   0.013701  -0.001956   0.012918  -0.060397
    25  N   -0.000476  -0.010938   0.003933  -0.000302   0.000021  -0.000018
    26  C   -0.000040   0.000032  -0.000485  -0.000013  -0.000000  -0.000000
    27  H    0.000032   0.006185   0.004250  -0.000290  -0.000043  -0.000032
    28  H    0.000007  -0.000116  -0.000057  -0.000003   0.000000  -0.000000
    29  H    0.000001   0.000070   0.000163   0.000016  -0.000001  -0.000000
    30  H    0.000000  -0.000012   0.000030  -0.000002   0.000000  -0.000000
              19         20         21         22         23         24
     1  C   -0.092814  -0.024671  -0.000301   0.000019  -0.000303  -0.017150
     2  C    0.006490   0.006800   0.000003  -0.000000   0.000001  -0.000080
     3  O   -0.000098  -0.000565   0.000000   0.000000  -0.000000  -0.000002
     4  C   -0.012800   0.000138  -0.000001   0.000000  -0.000011   0.003539
     5  C   -0.000060  -0.000088  -0.000001   0.000000   0.000000   0.000006
     6  H    0.000014   0.000004   0.000000  -0.000000  -0.000000   0.000001
     7  H   -0.000054  -0.000013  -0.000000  -0.000000   0.000000  -0.000012
     8  H   -0.000354   0.001050   0.000010  -0.000001   0.000000  -0.000031
     9  N    0.000382   0.000028   0.000000  -0.000000  -0.000000   0.000142
    10  H   -0.000013   0.000000  -0.000000  -0.000000   0.000000  -0.000004
    11  H   -0.000055  -0.000053   0.000000   0.000000  -0.000000  -0.000009
    12  H    0.007792  -0.000009   0.000001  -0.000001   0.000019   0.001415
    13  Br  -0.000309  -0.000011  -0.000000   0.000000  -0.000000   0.000359
    14  C    0.324837  -0.065734   0.014156  -0.001474   0.013847  -0.063680
    15  C    0.040123   0.449925  -0.062501   0.012774  -0.001568   0.013701
    16  C   -0.123380  -0.061203   0.446008  -0.064494   0.012495  -0.001956
    17  C    0.062052   0.013137  -0.068226   0.447465  -0.067277   0.012918
    18  C    0.327116  -0.002021   0.012721  -0.064333   0.444831  -0.060397
    19  C    5.119714   0.014218  -0.001681   0.012423  -0.061454   0.445644
    20  H    0.014218   0.660053  -0.011829  -0.000204   0.000024  -0.000166
    21  H   -0.001681  -0.011829   0.659762  -0.010901  -0.000232   0.000025
    22  H    0.012423  -0.000204  -0.010901   0.655966  -0.010896  -0.000207
    23  H   -0.061454   0.000024  -0.000232  -0.010896   0.658116  -0.011785
    24  H    0.445644  -0.000166   0.000025  -0.000207  -0.011785   0.662790
    25  N   -0.000451   0.006943  -0.000015   0.000000  -0.000000  -0.000009
    26  C    0.000027  -0.000318   0.000002   0.000000   0.000000   0.000001
    27  H   -0.000625  -0.001169   0.000003  -0.000001  -0.000002  -0.000011
    28  H    0.000002  -0.000052   0.000000  -0.000000   0.000000  -0.000000
    29  H   -0.000001  -0.000275   0.000000  -0.000000   0.000000  -0.000000
    30  H    0.000001   0.000065  -0.000000   0.000000  -0.000000   0.000000
              25         26         27         28         29         30
     1  C   -0.147026   0.009424  -0.015619   0.003616  -0.000058  -0.000345
     2  C    0.386804  -0.032836  -0.001383  -0.009182   0.004968   0.000758
     3  O   -0.099389  -0.008657   0.003350   0.026728   0.000372   0.000149
     4  C    0.004919  -0.000265   0.000024  -0.000044  -0.000011   0.000059
     5  C   -0.000004   0.000001   0.000001  -0.000004  -0.000001   0.000000
     6  H    0.000002   0.000000  -0.000000  -0.000000  -0.000000   0.000000
     7  H   -0.000003  -0.000000   0.000000   0.000000   0.000000  -0.000000
     8  H   -0.000253  -0.000012   0.000020   0.000006   0.000007  -0.000001
     9  N   -0.000101   0.000004   0.000002   0.000004  -0.000001   0.000001
    10  H    0.000004  -0.000000   0.000000  -0.000000   0.000000  -0.000000
    11  H    0.001197  -0.000018  -0.000064  -0.000047   0.000005  -0.000005
    12  H   -0.000098   0.000006  -0.000022  -0.000000  -0.000000  -0.000000
    13  Br  -0.000476  -0.000040   0.000032   0.000007   0.000001   0.000000
    14  C   -0.010938   0.000032   0.006185  -0.000116   0.000070  -0.000012
    15  C    0.003933  -0.000485   0.004250  -0.000057   0.000163   0.000030
    16  C   -0.000302  -0.000013  -0.000290  -0.000003   0.000016  -0.000002
    17  C    0.000021  -0.000000  -0.000043   0.000000  -0.000001   0.000000
    18  C   -0.000018  -0.000000  -0.000032  -0.000000  -0.000000  -0.000000
    19  C   -0.000451   0.000027  -0.000625   0.000002  -0.000001   0.000001
    20  H    0.006943  -0.000318  -0.001169  -0.000052  -0.000275   0.000065
    21  H   -0.000015   0.000002   0.000003   0.000000   0.000000  -0.000000
    22  H    0.000000   0.000000  -0.000001  -0.000000  -0.000000   0.000000
    23  H   -0.000000   0.000000  -0.000002   0.000000   0.000000  -0.000000
    24  H   -0.000009   0.000001  -0.000011  -0.000000  -0.000000   0.000000
    25  N    6.508477   0.318386   0.354047  -0.027845  -0.030556  -0.029087
    26  C    0.318386   4.477587  -0.024683   0.394140   0.399689   0.409923
    27  H    0.354047  -0.024683   0.524657   0.006013  -0.002865  -0.004015
    28  H   -0.027845   0.394140   0.006013   0.584460  -0.016842  -0.020849
    29  H   -0.030556   0.399689  -0.002865  -0.016842   0.634061  -0.031180
    30  H   -0.029087   0.409923  -0.004015  -0.020849  -0.031180   0.625515
 Mulliken charges:
               1
     1  C   -0.118833
     2  C    0.178566
     3  O   -0.351974
     4  C   -0.030131
     5  C    0.032114
     6  H    0.059465
     7  H    0.055791
     8  H    0.059773
     9  N   -0.225093
    10  H    0.156390
    11  H    0.168680
    12  H    0.081151
    13  Br  -0.101440
    14  C    0.020280
    15  C   -0.063889
    16  C   -0.024228
    17  C   -0.034921
    18  C   -0.020703
    19  C   -0.066686
    20  H    0.015996
    21  H    0.022996
    22  H    0.023866
    23  H    0.024195
    24  H    0.014957
    25  N   -0.238164
    26  C    0.058105
    27  H    0.152239
    28  H    0.060064
    29  H    0.042438
    30  H    0.048996
 Sum of Mulliken charges =  -0.00000
 Mulliken charges with hydrogens summed into heavy atoms:
               1
     1  C   -0.118833
     2  C    0.178566
     3  O   -0.351974
     4  C    0.051020
     5  C    0.207144
     9  N    0.099977
    13  Br  -0.101440
    14  C    0.020280
    15  C   -0.047894
    16  C   -0.001232
    17  C   -0.011054
    18  C    0.003492
    19  C   -0.051729
    25  N   -0.085925
    26  C    0.209603
 Electronic spatial extent (au):  <R**2>=           4475.8019
 Charge=             -0.0000 electrons
 Dipole moment (field-independent basis, Debye):
    X=              1.6291    Y=             -1.2362    Z=              2.3369  Tot=              3.1054
 Quadrupole moment (field-independent basis, Debye-Ang):
   XX=           -101.0769   YY=            -93.8226   ZZ=            -94.4589
   XY=              7.1978   XZ=             -5.0646   YZ=             -5.1841
 Traceless Quadrupole moment (field-independent basis, Debye-Ang):
   XX=             -4.6241   YY=              2.6302   ZZ=              1.9939
   XY=              7.1978   XZ=             -5.0646   YZ=             -5.1841
 Octapole moment (field-independent basis, Debye-Ang**2):
  XXX=            -76.5323  YYY=              3.6805  ZZZ=              6.1886  XYY=            -18.3669
  XXY=            -14.9723  XXZ=              5.8934  XZZ=            -45.2275  YZZ=            -12.0631
  YYZ=            -15.3678  XYZ=             17.1618
 Hexadecapole moment (field-independent basis, Debye-Ang**3):
 XXXX=          -2900.6745 YYYY=          -1487.0637 ZZZZ=           -790.6227 XXXY=             61.1180
 XXXZ=             58.1351 YYYX=             94.7395 YYYZ=            -10.7902 ZZZX=             28.8419
 ZZZY=             -7.1387 XXYY=           -776.4907 XXZZ=           -640.0498 YYZZ=           -385.8096
 XXYZ=             17.1205 YYXZ=             -7.3432 ZZXY=             38.4672
 N-N= 1.351915570061D+03 E-N=-1.027925366846D+04  KE= 3.176722772309D+03
 Unable to Open any file for archive entry.
 1\1\GINC-NODE-004\FTS\RwB97XD\def2SVP\C11H15Br1N2O1\JP2658\18-Dec-2023
 \0\\# wb97xd def2svp scrf=(iefpcm,solvent=toluene) opt=(calcfc,ts,noei
 gen,maxcycles=50,maxstep=10)\\TS-325.out\\0,1\C,0.1527479043,0.0201179
 358,-0.2528167065\C,-0.4174821677,1.1948662909,0.4349652536\O,-1.45945
 36057,1.1211091154,1.0976956254\C,-0.6983993521,-1.0173060101,-0.57847
 85876\C,-0.3754732432,-2.2272411486,1.9839572863\H,-0.6802464275,-2.30
 04367698,3.039843034\H,-0.0270846442,-3.2128220267,1.6452743034\H,0.46
 46850378,-1.519374515,1.9145090589\N,-1.4385591442,-1.7502609383,1.123
 9101404\H,-2.2059915532,-2.4087667577,1.0016546733\H,-1.7960064353,-0.
 8310740337,1.4171734673\H,-0.2667307112,-1.937248095,-0.9772420934\Br,
 -2.4239207067,-0.7248756916,-1.4184985533\C,1.6139825508,-0.1711389504
 ,-0.4125631712\C,2.5313941005,0.2498955217,0.5709219606\C,3.8999054115
 ,0.0413961182,0.4219155133\C,4.3982231003,-0.6093523988,-0.7077368184\
 C,3.507727248,-1.0346956794,-1.6924104594\C,2.1399605148,-0.8059001254
 ,-1.5531638726\H,2.1605846264,0.7415349198,1.4735454988\H,4.5838370941
 ,0.3783408137,1.2047866631\H,5.4712949993,-0.7775319789,-0.8211870187\
 H,3.8816191386,-1.5333749794,-2.5899635312\H,1.4612939091,-1.106903750
 6,-2.3552771679\N,0.2690206769,2.3643358265,0.3270545372\C,-0.12733279
 82,3.5806273251,0.9888253184\H,1.064697888,2.3859934899,-0.2970559801\
 H,-0.9267293165,3.3360281672,1.698467047\H,0.7172907612,4.0260309465,1
 .5369290967\H,-0.5146848558,4.3280373786,0.2772554827\\Version=ES64L-G
 16RevC.01\State=1-A\HF=-3186.1669568\RMSD=7.671e-09\RMSF=1.521e-06\Dip
 ole=0.6764715,-0.7640432,0.6717934\Quadrupole=-4.3567501,5.7894199,-1.
 4326698,5.7549649,-1.1745104,-2.1947726\PG=C01 [X(C11H15Br1N2O1)]\\@
 The archive entry for this job was punched.


 IBM COMPATIBILITY IS LIKE PREGNANCY. YOU ARE OR
 OR YOU ARE NOT. -- ADAM OSBORNE
 Job cpu time:       0 days  7 hours 47 minutes 53.8 seconds.
 Elapsed time:       0 days  0 hours 39 minutes 55.5 seconds.
 File lengths (MBytes):  RWF=    446 Int=      0 D2E=      0 Chk=     16 Scr=      1
 Normal termination of Gaussian 16 at Mon Dec 18 21:09:54 2023.
