Unloading slurm/anatra/current
  ERROR: No such file or directory on
    '/cm/local/modulefiles/slurm/anatra/current'
environment: line 0: unalias: gv: not found
environment: line 0: unalias: sl: not found
 Entering Gaussian System, Link 0=g16
 Initial command:
 /apps/gaussian/g16/C.01/g16/l1.exe "/local/jobs/1153183/Gau-1517279.inp" -scrdir="/local/jobs/1153183/"
 Entering Link 1 = /apps/gaussian/g16/C.01/g16/l1.exe PID=   1517280.
  
 Copyright (c) 1988-2019, Gaussian, Inc.  All Rights Reserved.
  
 This is part of the Gaussian(R) 16 program.  It is based on
 the Gaussian(R) 09 system (copyright 2009, Gaussian, Inc.),
 the Gaussian(R) 03 system (copyright 2003, Gaussian, Inc.),
 the Gaussian(R) 98 system (copyright 1998, Gaussian, Inc.),
 the Gaussian(R) 94 system (copyright 1995, Gaussian, Inc.),
 the Gaussian 92(TM) system (copyright 1992, Gaussian, Inc.),
 the Gaussian 90(TM) system (copyright 1990, Gaussian, Inc.),
 the Gaussian 88(TM) system (copyright 1988, Gaussian, Inc.),
 the Gaussian 86(TM) system (copyright 1986, Carnegie Mellon
 University), and the Gaussian 82(TM) system (copyright 1983,
 Carnegie Mellon University). Gaussian is a federally registered
 trademark of Gaussian, Inc.
  
 This software contains proprietary and confidential information,
 including trade secrets, belonging to Gaussian, Inc.
  
 This software is provided under written license and may be
 used, copied, transmitted, or stored only in accord with that
 written license.
  
 The following legend is applicable only to US Government
 contracts under FAR:
  
                    RESTRICTED RIGHTS LEGEND
  
 Use, reproduction and disclosure by the US Government is
 subject to restrictions as set forth in subparagraphs (a)
 and (c) of the Commercial Computer Software - Restricted
 Rights clause in FAR 52.227-19.
  
 Gaussian, Inc.
 340 Quinnipiac St., Bldg. 40, Wallingford CT 06492
  
  
 ---------------------------------------------------------------
 Warning -- This program may not be used in any manner that
 competes with the business of Gaussian, Inc. or will provide
 assistance to any competitor of Gaussian, Inc.  The licensee
 of this program is prohibited from giving any competitor of
 Gaussian, Inc. access to this program.  By using this program,
 the user acknowledges that Gaussian, Inc. is engaged in the
 business of creating and licensing software in the field of
 computational chemistry and represents and warrants to the
 licensee that it is not a competitor of Gaussian, Inc. and that
 it will not use this program in any manner prohibited above.
 ---------------------------------------------------------------
  

 Cite this work as:
 Gaussian 16, Revision C.01,
 M. J. Frisch, G. W. Trucks, H. B. Schlegel, G. E. Scuseria, 
 M. A. Robb, J. R. Cheeseman, G. Scalmani, V. Barone, 
 G. A. Petersson, H. Nakatsuji, X. Li, M. Caricato, A. V. Marenich, 
 J. Bloino, B. G. Janesko, R. Gomperts, B. Mennucci, H. P. Hratchian, 
 J. V. Ortiz, A. F. Izmaylov, J. L. Sonnenberg, D. Williams-Young, 
 F. Ding, F. Lipparini, F. Egidi, J. Goings, B. Peng, A. Petrone, 
 T. Henderson, D. Ranasinghe, V. G. Zakrzewski, J. Gao, N. Rega, 
 G. Zheng, W. Liang, M. Hada, M. Ehara, K. Toyota, R. Fukuda, 
 J. Hasegawa, M. Ishida, T. Nakajima, Y. Honda, O. Kitao, H. Nakai, 
 T. Vreven, K. Throssell, J. A. Montgomery, Jr., J. E. Peralta, 
 F. Ogliaro, M. J. Bearpark, J. J. Heyd, E. N. Brothers, K. N. Kudin, 
 V. N. Staroverov, T. A. Keith, R. Kobayashi, J. Normand, 
 K. Raghavachari, A. P. Rendell, J. C. Burant, S. S. Iyengar, 
 J. Tomasi, M. Cossi, J. M. Millam, M. Klene, C. Adamo, R. Cammi, 
 J. W. Ochterski, R. L. Martin, K. Morokuma, O. Farkas, 
 J. B. Foresman, and D. J. Fox, Gaussian, Inc., Wallingford CT, 2019.
 
 ******************************************
 Gaussian 16:  ES64L-G16RevC.01  3-Jul-2019
                30-Dec-2023 
 ******************************************
 %chk=TS-325_opt_sqm_reopt_freq.chk
 %nprocshared=12
 Will use up to   12 processors via shared memory.
 %mem=48GB
 -----------------------------------------------------------
 # wb97xd def2svp scrf=(iefpcm,solvent=toluene) freq=noraman
 -----------------------------------------------------------
 1/10=4,30=1,38=1/1,3;
 2/12=2,17=6,18=5,40=1/2;
 3/5=43,7=101,11=2,25=1,30=1,70=2201,71=2,72=13,74=-58,140=1/1,2,3;
 4//1;
 5/5=2,38=5,53=13,98=1/2;
 8/6=4,10=90,11=11/1;
 11/6=1,8=1,9=11,15=111,16=1/1,2,10;
 10/6=1/2;
 6/7=2,8=2,9=2,10=2,28=1/1;
 7/8=1,10=1,25=1/1,2,3,16;
 1/10=4,30=1/3;
 99//99;
 ------------------------
 TS-325_opt_sqm_reopt.out
 ------------------------
 Symbolic Z-matrix:
 Charge =  0 Multiplicity = 1
 C                    -0.90912  -0.70553   0.18675 
 C                    -2.28931  -0.46052   0.15144 
 O                    -2.85664   0.64001   0.02844 
 C                     0.04988   0.41225   0.27098 
 C                    -0.80197   2.63711  -1.05717 
 H                    -0.19078   3.33552  -0.476 
 H                    -0.91449   3.01793  -2.08086 
 H                    -1.78387   2.48859  -0.59555 
 N                    -0.1413    1.31934  -1.10937 
 H                    -0.70386   0.67515  -1.67437 
 H                     0.77298   1.39691  -1.56214 
 C                     1.49455  -0.07379   0.16145 
 C                     1.83911  -0.97872  -0.85528 
 C                     3.15038  -1.41929  -1.01262 
 C                     4.14917  -0.96795  -0.14947 
 C                     3.82137  -0.0728    0.86551 
 C                     2.50777   0.37432   1.01604 
 H                     1.0586   -1.35363  -1.52188 
 H                     3.39175  -2.12628  -1.80944 
 H                     5.17774  -1.3158   -0.26667 
 H                     4.59286   0.28403   1.55142 
 H                     2.28156   1.07316   1.82159 
 C                    -0.18491   1.36885   1.43873 
 H                    -1.24386   1.64961   1.47135 
 H                     0.04553   0.82445   2.36394 
 H                     0.43664   2.27732   1.41011 
 H                    -0.54339  -1.72913   0.23806 
 O                    -3.05098  -1.59948   0.22236 
 C                    -4.43981  -1.42624   0.09871 
 H                    -4.88756  -2.4262    0.17327 
 H                    -4.8474   -0.78277   0.89452 
 H                    -4.71493  -0.97465  -0.86857 
 

 GradGradGradGradGradGradGradGradGradGradGradGradGradGradGradGradGradGrad
 Berny optimization.
 Initialization pass.
 Trust Radius=3.00D-01 FncErr=1.00D-07 GrdErr=1.00D-07 EigMax=2.50D+02 EigMin=1.00D-04
 Number of steps in this run=      2 maximum allowed number of steps=      2.
 GradGradGradGradGradGradGradGradGradGradGradGradGradGradGradGradGradGrad

                          Input orientation:                          
 ---------------------------------------------------------------------
 Center     Atomic      Atomic             Coordinates (Angstroms)
 Number     Number       Type             X           Y           Z
 ---------------------------------------------------------------------
      1          6           0       -0.909120   -0.705530    0.186750
      2          6           0       -2.289310   -0.460520    0.151440
      3          8           0       -2.856640    0.640010    0.028440
      4          6           0        0.049880    0.412250    0.270980
      5          6           0       -0.801970    2.637110   -1.057170
      6          1           0       -0.190780    3.335520   -0.476000
      7          1           0       -0.914490    3.017930   -2.080860
      8          1           0       -1.783870    2.488590   -0.595550
      9          7           0       -0.141300    1.319340   -1.109370
     10          1           0       -0.703860    0.675150   -1.674370
     11          1           0        0.772980    1.396910   -1.562140
     12          6           0        1.494550   -0.073790    0.161450
     13          6           0        1.839110   -0.978720   -0.855280
     14          6           0        3.150380   -1.419290   -1.012620
     15          6           0        4.149170   -0.967950   -0.149470
     16          6           0        3.821370   -0.072800    0.865510
     17          6           0        2.507770    0.374320    1.016040
     18          1           0        1.058600   -1.353630   -1.521880
     19          1           0        3.391750   -2.126280   -1.809440
     20          1           0        5.177740   -1.315800   -0.266670
     21          1           0        4.592860    0.284030    1.551420
     22          1           0        2.281560    1.073160    1.821590
     23          6           0       -0.184910    1.368850    1.438730
     24          1           0       -1.243860    1.649610    1.471350
     25          1           0        0.045530    0.824450    2.363940
     26          1           0        0.436640    2.277320    1.410110
     27          1           0       -0.543390   -1.729130    0.238060
     28          8           0       -3.050980   -1.599480    0.222360
     29          6           0       -4.439810   -1.426240    0.098710
     30          1           0       -4.887560   -2.426200    0.173270
     31          1           0       -4.847400   -0.782770    0.894520
     32          1           0       -4.714930   -0.974650   -0.868570
 ---------------------------------------------------------------------
                    Distance matrix (angstroms):
                    1          2          3          4          5
     1  C    0.000000
     2  C    1.402213   0.000000
     3  O    2.372419   1.244250   0.000000
     4  C    1.475198   2.499565   2.925501   0.000000
     5  C    3.568201   3.642558   3.064087   2.727569   0.000000
     6  H    4.157564   4.382628   3.824532   3.026781   1.095029
     7  H    4.359614   4.355790   3.724996   3.640155   1.098010
     8  H    3.402879   3.083944   2.226533   2.902534   1.095116
     9  N    2.523801   3.061289   3.021452   1.662747   1.475035
    10  H    2.326409   2.671513   2.745043   2.102767   2.059089
    11  H    3.210659   3.970393   4.034474   2.202898   2.067259
    12  C    2.485431   3.803585   4.411355   1.528170   3.756064
    13  C    2.951818   4.280872   5.044930   2.530732   4.482219
    14  C    4.292724   5.644865   6.434968   3.822992   5.663695
    15  C    5.076239   6.465451   7.190171   4.345792   6.191459
    16  C    4.820643   6.164465   6.767910   3.848750   5.693468
    17  C    3.678170   4.945348   5.461029   2.568614   4.513624
    18  H    2.685400   3.847876   4.659098   2.711124   4.427605
    19  H    4.949827   6.236525   7.076195   4.684056   6.390859
    20  H    6.134157   7.527493   8.274270   5.437846   7.211610
    21  H    5.754419   7.062476   7.611914   4.721719   6.437850
    22  H    4.002109   5.102394   5.459314   2.796710   4.499039
    23  C    2.528831   3.071190   3.107775   1.527694   2.866839
    24  H    2.703504   2.699588   2.387957   2.155391   2.750243
    25  H    2.827075   3.463781   3.729768   2.133169   3.963330
    26  H    3.493576   4.063351   3.928803   2.219389   2.784075
    27  H    1.088186   2.159887   3.317814   2.222287   4.561637
    28  O    2.321202   1.372006   2.256255   3.696587   4.964266
    29  C    3.604573   2.357975   2.603988   4.854589   5.575011
    30  H    4.334613   3.258109   3.680660   5.696021   6.621415
    31  H    4.002119   2.683251   2.595674   5.079392   5.645368
    32  H    3.958575   2.681116   2.620114   5.091707   5.328380
                    6          7          8          9         10
     6  H    0.000000
     7  H    1.788909   0.000000
     8  H    1.808181   1.800602   0.000000
     9  N    2.113903   2.104002   2.080671   0.000000
    10  H    2.962585   2.387094   2.370409   1.025027   0.000000
    11  H    2.422136   2.396733   2.943390   1.023194   1.647601
    12  C    3.856174   4.515547   4.229288   2.496357   2.960431
    13  C    4.782988   5.005754   5.021522   3.044284   3.142116
    14  C    5.836054   6.111729   6.308114   4.283061   4.436187
    15  C    6.120592   6.727418   6.880961   4.955929   5.345746
    16  C    5.432646   6.376682   6.333572   4.641224   5.242912
    17  C    4.275168   5.318959   5.048320   3.525337   4.200401
    18  H    4.964166   4.828673   4.868303   2.958833   2.691740
    19  H    6.666622   6.714184   7.039716   4.984460   4.963897
    20  H    7.106307   7.693359   7.940123   5.995523   6.367002
    21  H    6.025383   7.141328   7.080413   5.528466   6.214011
    22  H    4.063208   5.406106   4.936976   3.810693   4.614421
    23  C    2.744816   3.954651   2.819359   2.548954   3.231396
    24  H    2.782704   3.820861   2.295120   2.825745   3.337173
    25  H    3.798233   5.048687   3.856766   3.513361   4.109966
    26  H    2.251856   3.815878   2.999662   2.756723   3.658101
    27  H    5.126880   5.296195   4.474691   3.357144   3.076313
    28  O    5.746536   5.584791   4.357392   4.331195   3.778955
    29  C    6.407722   6.076928   4.781413   5.241646   4.638639
    30  H    7.461817   7.106683   5.863372   6.180713   5.525893
    31  H    6.365748   6.226234   4.723063   5.530083   5.088580
    32  H    6.260959   5.643907   4.545293   5.122350   4.411330
                   11         12         13         14         15
    11  H    0.000000
    12  C    2.377895   0.000000
    13  C    2.698129   1.404051   0.000000
    14  C    3.726256   2.435279   1.392224   0.000000
    15  C    4.357391   2.818368   2.415504   1.395105   0.000000
    16  C    4.164879   2.431007   2.776898   2.406374   1.392455
    17  C    3.271422   1.399193   2.404093   2.783064   2.419565
    18  H    2.765623   2.159084   1.092753   2.153880   3.403510
    19  H    4.396815   3.420013   2.153603   1.092253   2.161230
    20  H    5.332818   3.910469   3.406836   2.162716   1.092104
    21  H    5.052152   3.414612   3.869093   3.399463   2.158087
    22  H    3.718905   2.165859   3.401706   3.872971   3.396936
    23  C    3.150168   2.556020   3.856193   4.990691   5.173709
    24  H    3.651515   3.490678   4.671834   5.907419   6.209948
    25  H    4.033733   2.785221   4.102649   5.106429   5.135152
    26  H    3.118095   2.864619   4.207221   5.186418   5.171745
    27  H    3.840010   2.626636   2.726685   3.912050   4.769664
    28  O    5.175467   4.795131   5.045754   6.325702   7.237351
    29  C    6.156442   6.086845   6.366727   7.671120   8.604778
    30  H    7.047661   6.801860   6.957097   8.187105   9.159320
    31  H    6.509597   6.423424   6.914450   8.246625   9.058834
    32  H    6.018512   6.358469   6.554055   7.879185   8.893223
                   16         17         18         19         20
    16  C    0.000000
    17  C    1.395751   0.000000
    18  H    3.869503   3.395135   0.000000
    19  H    3.399516   3.875275   2.474524   0.000000
    20  H    2.160236   3.410365   4.306309   2.495351   0.000000
    21  H    1.092244   2.154619   4.961663   4.306697   2.491384
    22  H    2.144371   1.090165   4.308565   4.965211   4.296024
    23  C    4.296186   2.901428   4.209920   5.963140   6.234882
    24  H    5.384263   3.988533   4.824956   6.819810   7.283633
    25  H    4.160206   2.842899   4.568363   6.109099   6.151452
    26  H    4.156447   2.840120   4.708205   6.204020   6.180626
    27  H    4.710441   3.786731   2.409307   4.453685   5.758205
    28  O    7.069200   5.951934   4.471181   6.776024   8.248118
    29  C    8.406359   7.235494   5.732722   8.091009   9.625122
    30  H    9.047826   7.952615   6.275409   8.518689  10.135916
    31  H    8.697843   7.446620   6.406692   8.774965  10.106232
    32  H    8.757213   7.585438   5.822722   8.241951   9.916833
                   21         22         23         24         25
    21  H    0.000000
    22  H    2.457199   0.000000
    23  C    4.900675   2.513461   0.000000
    24  H    5.994875   3.589366   1.096023   0.000000
    25  H    4.650855   2.314267   1.097947   1.772042   0.000000
    26  H    4.611652   2.241215   1.101118   1.794951   1.781457
    27  H    5.670872   4.282609   3.341795   3.664362   3.374457
    28  O    7.983878   6.175478   4.301732   3.922020   4.477742
    29  C    9.307229   7.375102   5.264253   4.643177   5.505919
    30  H    9.956054   8.146089   6.174035   5.619056   6.300884
    31  H    9.523029   7.424689   5.163763   4.385739   5.355662
    32  H    9.699257   7.770544   5.597920   4.940677   6.028919
                   26         27         28         29         30
    26  H    0.000000
    27  H    4.287867   0.000000
    28  O    5.348254   2.510988   0.000000
    29  C    6.262259   3.910658   1.405045   0.000000
    30  H    7.211101   4.400218   2.014672   1.098162   0.000000
    31  H    6.127892   4.455450   2.084692   1.101588   1.795181
    32  H    6.504334   4.381280   2.085490   1.102386   1.795057
                   31         32
    31  H    0.000000
    32  H    1.778441   0.000000
 Stoichiometry    C12H17NO2
 Framework group  C1[X(C12H17NO2)]
 Deg. of freedom    90
 Full point group                 C1      NOp   1
 Largest Abelian subgroup         C1      NOp   1
 Largest concise Abelian subgroup C1      NOp   1
                         Standard orientation:                         
 ---------------------------------------------------------------------
 Center     Atomic      Atomic             Coordinates (Angstroms)
 Number     Number       Type             X           Y           Z
 ---------------------------------------------------------------------
      1          6           0       -0.909121   -0.705529    0.186750
      2          6           0       -2.289311   -0.460519    0.151440
      3          8           0       -2.856641    0.640011    0.028440
      4          6           0        0.049879    0.412250    0.270980
      5          6           0       -0.801970    2.637111   -1.057170
      6          1           0       -0.190780    3.335520   -0.476000
      7          1           0       -0.914490    3.017931   -2.080860
      8          1           0       -1.783870    2.488591   -0.595550
      9          7           0       -0.141301    1.319340   -1.109370
     10          1           0       -0.703861    0.675150   -1.674370
     11          1           0        0.772979    1.396910   -1.562140
     12          6           0        1.494549   -0.073790    0.161450
     13          6           0        1.839109   -0.978720   -0.855280
     14          6           0        3.150379   -1.419291   -1.012620
     15          6           0        4.149169   -0.967951   -0.149470
     16          6           0        3.821369   -0.072801    0.865510
     17          6           0        2.507769    0.374320    1.016040
     18          1           0        1.058599   -1.353630   -1.521880
     19          1           0        3.391748   -2.126281   -1.809440
     20          1           0        5.177739   -1.315801   -0.266670
     21          1           0        4.592859    0.284029    1.551420
     22          1           0        2.281559    1.073160    1.821590
     23          6           0       -0.184911    1.368850    1.438730
     24          1           0       -1.243861    1.649611    1.471350
     25          1           0        0.045529    0.824450    2.363940
     26          1           0        0.436640    2.277320    1.410110
     27          1           0       -0.543392   -1.729130    0.238060
     28          8           0       -3.050982   -1.599479    0.222360
     29          6           0       -4.439811   -1.426238    0.098710
     30          1           0       -4.887562   -2.426198    0.173270
     31          1           0       -4.847401   -0.782768    0.894520
     32          1           0       -4.714931   -0.974648   -0.868570
 ---------------------------------------------------------------------
 Rotational constants (GHZ):           1.1153842           0.3327565           0.2966593
 Standard basis: def2SVP (5D, 7F)
 There are   310 symmetry adapted cartesian basis functions of A   symmetry.
 There are   295 symmetry adapted basis functions of A   symmetry.
   295 basis functions,   494 primitive gaussians,   310 cartesian basis functions
    56 alpha electrons       56 beta electrons
       nuclear repulsion energy      1010.5183435073 Hartrees.
 NAtoms=   32 NActive=   32 NUniq=   32 SFac= 1.00D+00 NAtFMM=   60 NAOKFM=F Big=F
 Integral buffers will be    131072 words long.
 Raffenetti 2 integral format.
 Two-electron integral symmetry is turned on.
 Nuclear repulsion after empirical dispersion term =     1010.4945558121 Hartrees.
 Force inversion solution in PCM.
 ------------------------------------------------------------------------------
 Polarizable Continuum Model (PCM)
 =================================
 Model                : PCM.
 Atomic radii         : UFF (Universal Force Field).
 Polarization charges : Total charges.
 Charge compensation  : None.
 Solution method      : Matrix inversion.
 Cavity type          : Scaled VdW (van der Waals Surface) (Alpha=1.100).
 Cavity algorithm     : GePol (No added spheres)
                        Default sphere list used, NSphG=   32.
                        Lebedev-Laikov grids with approx.  5.0 points / Ang**2.
                        Smoothing algorithm: York/Karplus (Gamma=1.0000).
                        Polarization charges: spherical gaussians, with
                                              point-specific exponents (IZeta= 3).
                        Self-potential: point-specific (ISelfS= 7).
                        Self-field    : sphere-specific E.n sum rule (ISelfD= 2).
 1st derivatives      : Analytical E(r).r(x)/FMM algorithm (CHGder, D1EAlg=3).
                        Cavity 1st derivative terms included.
 2nd derivatives      : Analytical E(r).r(xy)/FMM algorithm (CHGder, D2EAlg=3).
                        Cavity 2nd derivative terms included.
 Solvent              : Toluene, Eps=   2.374100 Eps(inf)=   2.238315
 ------------------------------------------------------------------------------
 One-electron integrals computed using PRISM.
   1 Symmetry operations used in ECPInt.
 ECPInt:  NShTT=   10011 NPrTT=   35491 LenC2=    9437 LenP2D=   24602.
 LDataN:  DoStor=T MaxTD1= 4 Len=   56
 NBasis=   295 RedAO= T EigKep=  2.79D-04  NBF=   295
 NBsUse=   295 1.00D-06 EigRej= -1.00D+00 NBFU=   295
 ExpMin= 1.22D-01 ExpMax= 2.27D+03 ExpMxC= 3.41D+02 IAcc=3 IRadAn=         5 AccDes= 0.00D+00
 Harris functional with IExCor= 4639 and IRadAn=       5 diagonalized for initial guess.
 HarFok:  IExCor= 4639 AccDes= 0.00D+00 IRadAn=         5 IDoV= 1 UseB2=F ITyADJ=14
 ICtDFT=  3500011 ScaDFX=  1.000000  1.000000  1.000000  1.000000
 FoFCou: FMM=F IPFlag=           0 FMFlag=      100000 FMFlg1=           0
         NFxFlg=           0 DoJE=T BraDBF=F KetDBF=T FulRan=T
         wScrn=  0.000000 ICntrl=       500 IOpCl=  0 I1Cent=   200000004 NGrid=           0
         NMat0=    1 NMatS0=      1 NMatT0=    0 NMatD0=    1 NMtDS0=    0 NMtDT0=    0
 Petite list used in FoFCou.
 Requested convergence on RMS density matrix=1.00D-08 within 128 cycles.
 Requested convergence on MAX density matrix=1.00D-06.
 Requested convergence on             energy=1.00D-06.
 No special actions if energy rises.
 Inv3:  Mode=1 IEnd=    14665563.
 Iteration    1 A*A^-1 deviation from unit magnitude is 2.89D-15 for     43.
 Iteration    1 A*A^-1 deviation from orthogonality  is 2.02D-15 for   2204   2131.
 Iteration    1 A^-1*A deviation from unit magnitude is 2.66D-15 for    601.
 Iteration    1 A^-1*A deviation from orthogonality  is 4.32D-15 for   1948   1915.
 Error on total polarization charges =  0.00655
 SCF Done:  E(RwB97XD) =  -671.970647970     A.U. after   14 cycles
            NFock= 14  Conv=0.73D-08     -V/T= 2.0108
 DoSCS=F DFT=T ScalE2(SS,OS)=  1.000000  1.000000
 Range of M.O.s used for correlation:     1   295
 NBasis=   295 NAE=    56 NBE=    56 NFC=     0 NFV=     0
 NROrb=    295 NOA=    56 NOB=    56 NVA=   239 NVB=   239

 **** Warning!!: The largest alpha MO coefficient is  0.14178299D+02

   1 Symmetry operations used in ECPInt.
 ECPInt:  NShTT=   10011 NPrTT=   35491 LenC2=    9437 LenP2D=   24602.
 LDataN:  DoStor=T MaxTD1= 5 Len=  102
 Symmetrizing basis deriv contribution to polar:
 IMax=3 JMax=2 DiffMx= 0.00D+00
 G2DrvN: will do    33 centers at a time, making    1 passes.
 Calling FoFCou, ICntrl=  3107 FMM=F I1Cent=   0 AccDes= 0.00D+00.
 NEqPCM:  Using equilibrium solvation (IEInf=0, Eps=   2.3741, EpsInf=   2.2383)
 G2PCM: DoFxE=T DoFxN=T DoGrad=T DoDP/DQ/DG/TGxP=FFFF NFrqRd=   0 IEInf=0 SqF1=F DoCFld=F IF1Alg=4.
 End of G2Drv F.D. properties file   721 does not exist.
 End of G2Drv F.D. properties file   722 does not exist.
 End of G2Drv F.D. properties file   788 does not exist.
          IDoAtm=11111111111111111111111111111111
 NEqPCM:  Using equilibrium solvation (IEInf=0, Eps=   2.3741, EpsInf=   2.2383)
          Differentiating once with respect to electric field.
                with respect to dipole field.
          Differentiating once with respect to nuclear coordinates.
 Keep R1 ints in memory in canonical form, NReq=1934262512.
          There are    99 degrees of freedom in the 1st order CPHF.  IDoFFX=6 NUNeed=     3.
     96 vectors produced by pass  0 Test12= 1.35D-14 1.01D-09 XBig12= 8.30D+01 3.09D+00.
 AX will form    96 AO Fock derivatives at one time.
     96 vectors produced by pass  1 Test12= 1.35D-14 1.01D-09 XBig12= 6.23D+00 3.92D-01.
     96 vectors produced by pass  2 Test12= 1.35D-14 1.01D-09 XBig12= 1.08D-01 8.08D-02.
     96 vectors produced by pass  3 Test12= 1.35D-14 1.01D-09 XBig12= 1.34D-03 5.93D-03.
     96 vectors produced by pass  4 Test12= 1.35D-14 1.01D-09 XBig12= 9.84D-06 3.79D-04.
     96 vectors produced by pass  5 Test12= 1.35D-14 1.01D-09 XBig12= 5.13D-08 1.95D-05.
     86 vectors produced by pass  6 Test12= 1.35D-14 1.01D-09 XBig12= 2.63D-10 1.40D-06.
     21 vectors produced by pass  7 Test12= 1.35D-14 1.01D-09 XBig12= 1.12D-12 7.80D-08.
      3 vectors produced by pass  8 Test12= 1.35D-14 1.01D-09 XBig12= 4.52D-15 5.83D-09.
 InvSVY:  IOpt=1 It=  1 EMax= 5.33D-15
 Solved reduced A of dimension   686 with    99 vectors.
 Isotropic polarizability for W=    0.000000      162.80 Bohr**3.
 End of Minotr F.D. properties file   721 does not exist.
 End of Minotr F.D. properties file   722 does not exist.
 End of Minotr F.D. properties file   788 does not exist.

 **********************************************************************

            Population analysis using the SCF Density.

 **********************************************************************

 Orbital symmetries:
       Occupied  (A) (A) (A) (A) (A) (A) (A) (A) (A) (A) (A) (A)
                 (A) (A) (A) (A) (A) (A) (A) (A) (A) (A) (A) (A)
                 (A) (A) (A) (A) (A) (A) (A) (A) (A) (A) (A) (A)
                 (A) (A) (A) (A) (A) (A) (A) (A) (A) (A) (A) (A)
                 (A) (A) (A) (A) (A) (A) (A) (A)
       Virtual   (A) (A) (A) (A) (A) (A) (A) (A) (A) (A) (A) (A)
                 (A) (A) (A) (A) (A) (A) (A) (A) (A) (A) (A) (A)
                 (A) (A) (A) (A) (A) (A) (A) (A) (A) (A) (A) (A)
                 (A) (A) (A) (A) (A) (A) (A) (A) (A) (A) (A) (A)
                 (A) (A) (A) (A) (A) (A) (A) (A) (A) (A) (A) (A)
                 (A) (A) (A) (A) (A) (A) (A) (A) (A) (A) (A) (A)
                 (A) (A) (A) (A) (A) (A) (A) (A) (A) (A) (A) (A)
                 (A) (A) (A) (A) (A) (A) (A) (A) (A) (A) (A) (A)
                 (A) (A) (A) (A) (A) (A) (A) (A) (A) (A) (A) (A)
                 (A) (A) (A) (A) (A) (A) (A) (A) (A) (A) (A) (A)
                 (A) (A) (A) (A) (A) (A) (A) (A) (A) (A) (A) (A)
                 (A) (A) (A) (A) (A) (A) (A) (A) (A) (A) (A) (A)
                 (A) (A) (A) (A) (A) (A) (A) (A) (A) (A) (A) (A)
                 (A) (A) (A) (A) (A) (A) (A) (A) (A) (A) (A) (A)
                 (A) (A) (A) (A) (A) (A) (A) (A) (A) (A) (A) (A)
                 (A) (A) (A) (A) (A) (A) (A) (A) (A) (A) (A) (A)
                 (A) (A) (A) (A) (A) (A) (A) (A) (A) (A) (A) (A)
                 (A) (A) (A) (A) (A) (A) (A) (A) (A) (A) (A) (A)
                 (A) (A) (A) (A) (A) (A) (A) (A) (A) (A) (A) (A)
                 (A) (A) (A) (A) (A) (A) (A) (A) (A) (A) (A)
 The electronic state is 1-A.
 Alpha  occ. eigenvalues --  -19.24619 -19.17819 -14.54342 -10.36532 -10.36361
 Alpha  occ. eigenvalues --  -10.34730 -10.32111 -10.31934 -10.31140 -10.31126
 Alpha  occ. eigenvalues --  -10.31095 -10.31049 -10.31005 -10.28937 -10.22715
 Alpha  occ. eigenvalues --   -1.13992  -1.07636  -1.03755  -0.96408  -0.89826
 Alpha  occ. eigenvalues --   -0.84787  -0.83123  -0.80999  -0.79895  -0.75075
 Alpha  occ. eigenvalues --   -0.71462  -0.69854  -0.66556  -0.65822  -0.62400
 Alpha  occ. eigenvalues --   -0.60917  -0.58527  -0.57618  -0.55609  -0.54046
 Alpha  occ. eigenvalues --   -0.53586  -0.52956  -0.52139  -0.51676  -0.50916
 Alpha  occ. eigenvalues --   -0.49317  -0.48658  -0.46590  -0.46312  -0.46077
 Alpha  occ. eigenvalues --   -0.45526  -0.44040  -0.43310  -0.42337  -0.41806
 Alpha  occ. eigenvalues --   -0.39538  -0.34172  -0.34019  -0.33903  -0.30969
 Alpha  occ. eigenvalues --   -0.23593
 Alpha virt. eigenvalues --    0.04213   0.05020   0.11320   0.13420   0.14063
 Alpha virt. eigenvalues --    0.15163   0.16706   0.18041   0.18346   0.18437
 Alpha virt. eigenvalues --    0.19102   0.20534   0.21306   0.21871   0.22312
 Alpha virt. eigenvalues --    0.23272   0.23554   0.23786   0.24239   0.24664
 Alpha virt. eigenvalues --    0.25278   0.25614   0.27289   0.28473   0.30906
 Alpha virt. eigenvalues --    0.32671   0.35832   0.36513   0.36775   0.38714
 Alpha virt. eigenvalues --    0.39372   0.40551   0.42620   0.45105   0.45951
 Alpha virt. eigenvalues --    0.46308   0.48353   0.48750   0.50166   0.51843
 Alpha virt. eigenvalues --    0.52870   0.54649   0.55387   0.55926   0.56238
 Alpha virt. eigenvalues --    0.56777   0.57679   0.59205   0.60331   0.60557
 Alpha virt. eigenvalues --    0.62015   0.62723   0.64715   0.65043   0.66336
 Alpha virt. eigenvalues --    0.67604   0.69091   0.70172   0.71591   0.71771
 Alpha virt. eigenvalues --    0.72645   0.73054   0.73399   0.73704   0.74080
 Alpha virt. eigenvalues --    0.74716   0.75043   0.75673   0.75982   0.76203
 Alpha virt. eigenvalues --    0.76894   0.77494   0.77857   0.79161   0.79440
 Alpha virt. eigenvalues --    0.79612   0.80080   0.81710   0.82313   0.82835
 Alpha virt. eigenvalues --    0.83317   0.84170   0.85557   0.86694   0.87089
 Alpha virt. eigenvalues --    0.88661   0.90184   0.90795   0.91837   0.94246
 Alpha virt. eigenvalues --    0.96160   0.97003   1.02456   1.02927   1.04206
 Alpha virt. eigenvalues --    1.05936   1.10133   1.13334   1.14985   1.16669
 Alpha virt. eigenvalues --    1.18075   1.20151   1.21420   1.23532   1.27627
 Alpha virt. eigenvalues --    1.28820   1.30565   1.32048   1.32676   1.33406
 Alpha virt. eigenvalues --    1.35601   1.37006   1.37815   1.38449   1.39787
 Alpha virt. eigenvalues --    1.40973   1.43065   1.48323   1.50285   1.51399
 Alpha virt. eigenvalues --    1.53216   1.55316   1.57688   1.59921   1.61178
 Alpha virt. eigenvalues --    1.62879   1.63642   1.64137   1.68606   1.70845
 Alpha virt. eigenvalues --    1.72902   1.74534   1.76812   1.77563   1.78517
 Alpha virt. eigenvalues --    1.80175   1.80578   1.80980   1.82439   1.83380
 Alpha virt. eigenvalues --    1.83695   1.84281   1.84819   1.85229   1.86071
 Alpha virt. eigenvalues --    1.87638   1.88726   1.90316   1.90854   1.91739
 Alpha virt. eigenvalues --    1.93376   1.94378   1.95448   1.95718   1.98167
 Alpha virt. eigenvalues --    1.98679   1.98990   1.99545   2.00561   2.02192
 Alpha virt. eigenvalues --    2.03197   2.04936   2.05894   2.07367   2.08088
 Alpha virt. eigenvalues --    2.08718   2.09640   2.11900   2.12655   2.13011
 Alpha virt. eigenvalues --    2.15948   2.16478   2.19006   2.20271   2.21270
 Alpha virt. eigenvalues --    2.23362   2.24038   2.25513   2.28894   2.32134
 Alpha virt. eigenvalues --    2.35357   2.35464   2.37599   2.38759   2.39491
 Alpha virt. eigenvalues --    2.40509   2.41331   2.43101   2.43682   2.45023
 Alpha virt. eigenvalues --    2.46121   2.48520   2.50289   2.50528   2.52539
 Alpha virt. eigenvalues --    2.56568   2.59016   2.61862   2.62663   2.67332
 Alpha virt. eigenvalues --    2.70936   2.71546   2.73055   2.73982   2.76629
 Alpha virt. eigenvalues --    2.77526   2.78871   2.80005   2.81068   2.81840
 Alpha virt. eigenvalues --    2.82464   2.83820   2.87101   2.89980   2.91666
 Alpha virt. eigenvalues --    2.93258   2.96239   2.97176   2.99616   3.02718
 Alpha virt. eigenvalues --    3.03821   3.04187   3.05972   3.08714   3.09987
 Alpha virt. eigenvalues --    3.12356   3.13225   3.16288   3.20928   3.24448
 Alpha virt. eigenvalues --    3.28884   3.31406   3.32510   3.34469   3.47550
 Alpha virt. eigenvalues --    3.58546   3.71237   3.74154   3.82657
          Condensed to atoms (all electrons):
               1          2          3          4          5          6
     1  C    5.738215   0.353028  -0.141309   0.255297   0.002716  -0.000578
     2  C    0.353028   4.449350   0.636586  -0.016480  -0.000907   0.000199
     3  O   -0.141309   0.636586   7.928328   0.016860  -0.017154   0.000479
     4  C    0.255297  -0.016480   0.016860   5.474517  -0.031450  -0.012692
     5  C    0.002716  -0.000907  -0.017154  -0.031450   4.540259   0.395580
     6  H   -0.000578   0.000199   0.000479  -0.012692   0.395580   0.592389
     7  H   -0.000490   0.000014   0.000255   0.005247   0.397469  -0.021129
     8  H   -0.002439   0.000389   0.041335  -0.003702   0.385443  -0.012182
     9  N   -0.092076  -0.004918   0.001548   0.095518   0.303755  -0.015106
    10  H    0.001670   0.006785   0.002443   0.012816  -0.014502   0.005526
    11  H    0.006533  -0.000331  -0.000008  -0.004796  -0.015638  -0.006061
    12  C   -0.051529   0.010348   0.000818   0.166181   0.004268   0.000662
    13  C   -0.014891   0.000362  -0.000004  -0.097472   0.000064   0.000154
    14  C    0.000758  -0.000005  -0.000000   0.013080   0.000009  -0.000001
    15  C    0.000004   0.000000  -0.000000  -0.001744  -0.000001  -0.000000
    16  C   -0.000469   0.000007  -0.000000   0.021153  -0.000001  -0.000005
    17  C    0.007220  -0.000553  -0.000003  -0.089716   0.000139  -0.000152
    18  H    0.018670  -0.000762  -0.000036  -0.014646   0.000026  -0.000023
    19  H   -0.000018  -0.000001   0.000000  -0.000297  -0.000000  -0.000000
    20  H    0.000001   0.000000   0.000000   0.000020   0.000000   0.000000
    21  H    0.000005  -0.000000   0.000000  -0.000276  -0.000000  -0.000000
    22  H    0.000442  -0.000025   0.000004  -0.034901  -0.000089  -0.000080
    23  C   -0.043462  -0.016347  -0.016165   0.402127   0.020666   0.007128
    24  H   -0.024613   0.003022   0.024903   0.007930   0.004765  -0.002376
    25  H   -0.000222  -0.001286   0.000018  -0.009024  -0.000054   0.000111
    26  H    0.009571   0.000999   0.000052   0.004278  -0.002099   0.001064
    27  H    0.404045  -0.010857   0.004200  -0.062943  -0.000052   0.000004
    28  O   -0.131489   0.364729  -0.083519   0.005266  -0.000041   0.000001
    29  C    0.010640  -0.039270   0.001373  -0.000479   0.000006   0.000000
    30  H    0.000165   0.005688   0.001056   0.000001  -0.000000  -0.000000
    31  H    0.000780  -0.005483   0.009390   0.000055   0.000004  -0.000000
    32  H    0.001088  -0.003953   0.008334   0.000047  -0.000005  -0.000000
               7          8          9         10         11         12
     1  C   -0.000490  -0.002439  -0.092076   0.001670   0.006533  -0.051529
     2  C    0.000014   0.000389  -0.004918   0.006785  -0.000331   0.010348
     3  O    0.000255   0.041335   0.001548   0.002443  -0.000008   0.000818
     4  C    0.005247  -0.003702   0.095518   0.012816  -0.004796   0.166181
     5  C    0.397469   0.385443   0.303755  -0.014502  -0.015638   0.004268
     6  H   -0.021129  -0.012182  -0.015106   0.005526  -0.006061   0.000662
     7  H    0.588688  -0.014124  -0.016524  -0.006376  -0.005448  -0.000278
     8  H   -0.014124   0.520836  -0.016643  -0.004430   0.005267   0.000368
     9  N   -0.016524  -0.016643   6.305990   0.320783   0.332748  -0.025180
    10  H   -0.006376  -0.004430   0.320783   0.491647  -0.007053  -0.008735
    11  H   -0.005448   0.005267   0.332748  -0.007053   0.508999  -0.008665
    12  C   -0.000278   0.000368  -0.025180  -0.008735  -0.008665   5.496772
    13  C   -0.000073  -0.000020  -0.010229   0.005242   0.005570   0.273919
    14  C   -0.000001  -0.000001  -0.000342   0.000123  -0.000338   0.071194
    15  C    0.000000   0.000000   0.000046   0.000008  -0.000030  -0.142768
    16  C    0.000000  -0.000001  -0.000177   0.000003  -0.000307   0.065552
    17  C   -0.000005  -0.000017  -0.000180  -0.000370   0.002139   0.344466
    18  H   -0.000012   0.000008  -0.003162   0.002184   0.001868  -0.080222
    19  H    0.000000   0.000000   0.000003  -0.000006   0.000013   0.014307
    20  H   -0.000000   0.000000  -0.000000   0.000000  -0.000003  -0.001482
    21  H    0.000000   0.000000   0.000002  -0.000000   0.000002   0.014433
    22  H    0.000000   0.000011   0.000377  -0.000021   0.000106  -0.050052
    23  C   -0.000267  -0.001562  -0.060158   0.006043   0.002689  -0.069474
    24  H    0.000184  -0.001099  -0.010358   0.000259  -0.000160   0.007032
    25  H   -0.000018   0.000088   0.006000  -0.000250  -0.000241  -0.008940
    26  H    0.000314  -0.000663  -0.002473  -0.000740   0.000622  -0.016192
    27  H    0.000011  -0.000131   0.003456   0.000462  -0.000100  -0.004243
    28  O    0.000001   0.000299   0.000052  -0.000509   0.000003  -0.000017
    29  C    0.000000  -0.000037   0.000012  -0.000041  -0.000001   0.000005
    30  H   -0.000000   0.000001   0.000000  -0.000002   0.000000  -0.000001
    31  H    0.000000  -0.000046   0.000004  -0.000032  -0.000000   0.000001
    32  H   -0.000002   0.000043  -0.000027   0.000167   0.000001  -0.000004
              13         14         15         16         17         18
     1  C   -0.014891   0.000758   0.000004  -0.000469   0.007220   0.018670
     2  C    0.000362  -0.000005   0.000000   0.000007  -0.000553  -0.000762
     3  O   -0.000004  -0.000000  -0.000000  -0.000000  -0.000003  -0.000036
     4  C   -0.097472   0.013080  -0.001744   0.021153  -0.089716  -0.014646
     5  C    0.000064   0.000009  -0.000001  -0.000001   0.000139   0.000026
     6  H    0.000154  -0.000001  -0.000000  -0.000005  -0.000152  -0.000023
     7  H   -0.000073  -0.000001   0.000000   0.000000  -0.000005  -0.000012
     8  H   -0.000020  -0.000001   0.000000  -0.000001  -0.000017   0.000008
     9  N   -0.010229  -0.000342   0.000046  -0.000177  -0.000180  -0.003162
    10  H    0.005242   0.000123   0.000008   0.000003  -0.000370   0.002184
    11  H    0.005570  -0.000338  -0.000030  -0.000307   0.002139   0.001868
    12  C    0.273919   0.071194  -0.142768   0.065552   0.344466  -0.080222
    13  C    5.177334   0.323107   0.073162  -0.131978   0.031704   0.453622
    14  C    0.323107   5.021770   0.296289   0.075208  -0.122569  -0.055168
    15  C    0.073162   0.296289   5.076888   0.305238   0.068686   0.013101
    16  C   -0.131978   0.075208   0.305238   5.061504   0.301162  -0.002030
    17  C    0.031704  -0.122569   0.068686   0.301162   5.068338   0.012879
    18  H    0.453622  -0.055168   0.013101  -0.002030   0.012879   0.643047
    19  H   -0.063371   0.449287  -0.067074   0.012344  -0.001626  -0.011541
    20  H    0.012519  -0.064077   0.447532  -0.062607   0.012557  -0.000187
    21  H   -0.001599   0.012221  -0.067265   0.445037  -0.058968   0.000021
    22  H    0.013412  -0.001868   0.013115  -0.067822   0.448236  -0.000137
    23  C    0.014785  -0.000475   0.000143  -0.000907   0.009330   0.000965
    24  H   -0.000096   0.000006   0.000003  -0.000045   0.000707   0.000051
    25  H   -0.000133   0.000024  -0.000048   0.000671   0.000075  -0.000029
    26  H   -0.001273  -0.000002  -0.000050   0.000934   0.004107  -0.000095
    27  H   -0.003710   0.000733  -0.000098   0.000005   0.000464   0.000716
    28  O   -0.000021  -0.000000  -0.000000   0.000000   0.000000  -0.000018
    29  C    0.000000   0.000000  -0.000000   0.000000  -0.000000  -0.000005
    30  H    0.000000  -0.000000   0.000000  -0.000000   0.000000   0.000000
    31  H   -0.000000  -0.000000  -0.000000  -0.000000   0.000000  -0.000000
    32  H    0.000001   0.000000  -0.000000   0.000000  -0.000000   0.000000
              19         20         21         22         23         24
     1  C   -0.000018   0.000001   0.000005   0.000442  -0.043462  -0.024613
     2  C   -0.000001   0.000000  -0.000000  -0.000025  -0.016347   0.003022
     3  O    0.000000   0.000000   0.000000   0.000004  -0.016165   0.024903
     4  C   -0.000297   0.000020  -0.000276  -0.034901   0.402127   0.007930
     5  C   -0.000000   0.000000  -0.000000  -0.000089   0.020666   0.004765
     6  H   -0.000000   0.000000  -0.000000  -0.000080   0.007128  -0.002376
     7  H    0.000000  -0.000000   0.000000   0.000000  -0.000267   0.000184
     8  H    0.000000   0.000000   0.000000   0.000011  -0.001562  -0.001099
     9  N    0.000003  -0.000000   0.000002   0.000377  -0.060158  -0.010358
    10  H   -0.000006   0.000000  -0.000000  -0.000021   0.006043   0.000259
    11  H    0.000013  -0.000003   0.000002   0.000106   0.002689  -0.000160
    12  C    0.014307  -0.001482   0.014433  -0.050052  -0.069474   0.007032
    13  C   -0.063371   0.012519  -0.001599   0.013412   0.014785  -0.000096
    14  C    0.449287  -0.064077   0.012221  -0.001868  -0.000475   0.000006
    15  C   -0.067074   0.447532  -0.067265   0.013115   0.000143   0.000003
    16  C    0.012344  -0.062607   0.445037  -0.067822  -0.000907  -0.000045
    17  C   -0.001626   0.012557  -0.058968   0.448236   0.009330   0.000707
    18  H   -0.011541  -0.000187   0.000021  -0.000137   0.000965   0.000051
    19  H    0.647171  -0.010562  -0.000208   0.000023   0.000004  -0.000000
    20  H   -0.010562   0.644721  -0.010588  -0.000202   0.000000   0.000000
    21  H   -0.000208  -0.010588   0.649007  -0.011789  -0.000002  -0.000000
    22  H    0.000023  -0.000202  -0.011789   0.653582   0.019739   0.000023
    23  C    0.000004   0.000000  -0.000002   0.019739   4.543065   0.373666
    24  H   -0.000000   0.000000  -0.000000   0.000023   0.373666   0.594178
    25  H    0.000000  -0.000000   0.000011   0.000632   0.388101  -0.012010
    26  H    0.000000  -0.000000   0.000019  -0.001146   0.355331  -0.027064
    27  H    0.000040  -0.000001   0.000000   0.000011   0.002015   0.000048
    28  O    0.000000  -0.000000   0.000000   0.000000  -0.000166   0.000068
    29  C   -0.000000   0.000000  -0.000000  -0.000000   0.000009  -0.000067
    30  H   -0.000000  -0.000000   0.000000  -0.000000   0.000002  -0.000003
    31  H    0.000000  -0.000000  -0.000000  -0.000000  -0.000037   0.000159
    32  H   -0.000000  -0.000000   0.000000  -0.000000   0.000014  -0.000049
              25         26         27         28         29         30
     1  C   -0.000222   0.009571   0.404045  -0.131489   0.010640   0.000165
     2  C   -0.001286   0.000999  -0.010857   0.364729  -0.039270   0.005688
     3  O    0.000018   0.000052   0.004200  -0.083519   0.001373   0.001056
     4  C   -0.009024   0.004278  -0.062943   0.005266  -0.000479   0.000001
     5  C   -0.000054  -0.002099  -0.000052  -0.000041   0.000006  -0.000000
     6  H    0.000111   0.001064   0.000004   0.000001   0.000000  -0.000000
     7  H   -0.000018   0.000314   0.000011   0.000001   0.000000  -0.000000
     8  H    0.000088  -0.000663  -0.000131   0.000299  -0.000037   0.000001
     9  N    0.006000  -0.002473   0.003456   0.000052   0.000012   0.000000
    10  H   -0.000250  -0.000740   0.000462  -0.000509  -0.000041  -0.000002
    11  H   -0.000241   0.000622  -0.000100   0.000003  -0.000001   0.000000
    12  C   -0.008940  -0.016192  -0.004243  -0.000017   0.000005  -0.000001
    13  C   -0.000133  -0.001273  -0.003710  -0.000021   0.000000   0.000000
    14  C    0.000024  -0.000002   0.000733  -0.000000   0.000000  -0.000000
    15  C   -0.000048  -0.000050  -0.000098  -0.000000  -0.000000   0.000000
    16  C    0.000671   0.000934   0.000005   0.000000   0.000000  -0.000000
    17  C    0.000075   0.004107   0.000464   0.000000  -0.000000   0.000000
    18  H   -0.000029  -0.000095   0.000716  -0.000018  -0.000005   0.000000
    19  H    0.000000   0.000000   0.000040   0.000000  -0.000000  -0.000000
    20  H   -0.000000  -0.000000  -0.000001  -0.000000   0.000000  -0.000000
    21  H    0.000011   0.000019   0.000000   0.000000  -0.000000   0.000000
    22  H    0.000632  -0.001146   0.000011   0.000000  -0.000000  -0.000000
    23  C    0.388101   0.355331   0.002015  -0.000166   0.000009   0.000002
    24  H   -0.012010  -0.027064   0.000048   0.000068  -0.000067  -0.000003
    25  H    0.604335  -0.024926   0.000786  -0.000010  -0.000001  -0.000000
    26  H   -0.024926   0.682679  -0.000158  -0.000000   0.000000   0.000000
    27  H    0.000786  -0.000158   0.658667   0.006000  -0.000183  -0.000177
    28  O   -0.000010  -0.000000   0.006000   8.011965   0.289120  -0.025948
    29  C   -0.000001   0.000000  -0.000183   0.289120   4.392615   0.395433
    30  H   -0.000000   0.000000  -0.000177  -0.025948   0.395433   0.645796
    31  H    0.000001   0.000001   0.000027  -0.030505   0.401680  -0.027324
    32  H   -0.000000  -0.000001   0.000032  -0.031991   0.397284  -0.027672
              31         32
     1  C    0.000780   0.001088
     2  C   -0.005483  -0.003953
     3  O    0.009390   0.008334
     4  C    0.000055   0.000047
     5  C    0.000004  -0.000005
     6  H   -0.000000  -0.000000
     7  H    0.000000  -0.000002
     8  H   -0.000046   0.000043
     9  N    0.000004  -0.000027
    10  H   -0.000032   0.000167
    11  H   -0.000000   0.000001
    12  C    0.000001  -0.000004
    13  C   -0.000000   0.000001
    14  C   -0.000000   0.000000
    15  C   -0.000000  -0.000000
    16  C   -0.000000   0.000000
    17  C    0.000000  -0.000000
    18  H   -0.000000   0.000000
    19  H    0.000000  -0.000000
    20  H   -0.000000  -0.000000
    21  H   -0.000000   0.000000
    22  H   -0.000000  -0.000000
    23  C   -0.000037   0.000014
    24  H    0.000159  -0.000049
    25  H    0.000001  -0.000000
    26  H    0.000001  -0.000001
    27  H    0.000027   0.000032
    28  O   -0.030505  -0.031991
    29  C    0.401680   0.397284
    30  H   -0.027324  -0.027672
    31  H    0.663694  -0.038579
    32  H   -0.038579   0.676437
 Mulliken charges:
               1
     1  C   -0.307262
     2  C    0.269673
     3  O   -0.419787
     4  C   -0.099775
     5  C    0.026826
     6  H    0.067090
     7  H    0.072563
     8  H    0.103009
     9  N   -0.112742
    10  H    0.186906
    11  H    0.182620
    12  C   -0.002543
    13  C   -0.060088
    14  C   -0.018960
    15  C   -0.015138
    16  C   -0.022471
    17  C   -0.038048
    18  H    0.020914
    19  H    0.031513
    20  H    0.032358
    21  H    0.029939
    22  H    0.018419
    23  C    0.063200
    24  H    0.060938
    25  H    0.056342
    26  H    0.016909
    27  H    0.000928
    28  O   -0.373269
    29  C    0.151908
    30  H    0.032985
    31  H    0.026210
    32  H    0.018835
 Sum of Mulliken charges =  -0.00000
 Mulliken charges with hydrogens summed into heavy atoms:
               1
     1  C   -0.306334
     2  C    0.269673
     3  O   -0.419787
     4  C   -0.099775
     5  C    0.269487
     9  N    0.256783
    12  C   -0.002543
    13  C   -0.039174
    14  C    0.012553
    15  C    0.017220
    16  C    0.007468
    17  C   -0.019629
    23  C    0.197388
    28  O   -0.373269
    29  C    0.229938
 APT charges:
               1
     1  C   -1.046402
     2  C    1.704598
     3  O   -1.058102
     4  C    0.957608
     5  C    0.154784
     6  H    0.030749
     7  H    0.007592
     8  H    0.131332
     9  N   -0.591872
    10  H    0.221718
    11  H    0.208983
    12  C   -0.003038
    13  C   -0.106200
    14  C   -0.021523
    15  C   -0.049834
    16  C   -0.023071
    17  C   -0.083906
    18  H    0.074771
    19  H    0.035289
    20  H    0.038192
    21  H    0.033550
    22  H    0.065520
    23  C   -0.117692
    24  H    0.065835
    25  H    0.028679
    26  H   -0.028322
    27  H    0.042512
    28  O   -1.156256
    29  C    0.634894
    30  H   -0.037949
    31  H   -0.051406
    32  H   -0.061033
 Sum of APT charges =  -0.00000
 APT charges with hydrogens summed into heavy atoms:
               1
     1  C   -1.003891
     2  C    1.704598
     3  O   -1.058102
     4  C    0.957608
     5  C    0.324457
     9  N   -0.161171
    12  C   -0.003038
    13  C   -0.031429
    14  C    0.013766
    15  C   -0.011642
    16  C    0.010480
    17  C   -0.018385
    23  C   -0.051500
    28  O   -1.156256
    29  C    0.484507
 Electronic spatial extent (au):  <R**2>=           3887.7325
 Charge=             -0.0000 electrons
 Dipole moment (field-independent basis, Debye):
    X=              5.2352    Y=              4.0266    Z=             -3.3731  Tot=              7.4161
 Quadrupole moment (field-independent basis, Debye-Ang):
   XX=            -92.5030   YY=            -85.3928   ZZ=            -82.7114
   XY=              0.2260   XZ=              2.1478   YZ=             -1.0254
 Traceless Quadrupole moment (field-independent basis, Debye-Ang):
   XX=             -5.6340   YY=              1.4763   ZZ=              4.1577
   XY=              0.2260   XZ=              2.1478   YZ=             -1.0254
 Octapole moment (field-independent basis, Debye-Ang**2):
  XXX=             15.3177  YYY=             30.7248  ZZZ=            -14.9401  XYY=             -3.6771
  XXY=            -24.9893  XXZ=              2.0892  XZZ=             -6.2037  YZZ=             11.7471
  YYZ=            -16.7746  XYZ=             10.1312
 Hexadecapole moment (field-independent basis, Debye-Ang**3):
 XXXX=          -3435.1214 YYYY=           -913.3398 ZZZZ=           -450.4211 XXXY=             50.2831
 XXXZ=             24.7732 YYYX=             -2.7526 YYYZ=            -21.6965 ZZZX=              7.9297
 ZZZY=            -13.7783 XXYY=           -775.7814 XXZZ=           -683.5590 YYZZ=           -219.4617
 XXYZ=             29.7504 YYXZ=             -8.2198 ZZXY=             -1.2303
 N-N= 1.010494555812D+03 E-N=-3.583120740597D+03  KE= 6.648223028450D+02
  Exact polarizability:     214.962      -5.113     142.529       4.734      16.512     130.914
 Approx polarizability:     183.473      -7.312     145.871       5.595      18.326     138.906
   1 Symmetry operations used in ECPInt.
 ECPInt:  NShTT=   10011 NPrTT=   35491 LenC2=    9437 LenP2D=   24602.
 LDataN:  DoStor=T MaxTD1= 6 Len=  172
 D2PCM: PCM CHGder 2nd derivatives, FixD1E=F FixD2E=F DoIter=F DoCFld=F I1PDM=0
 Calling FoFJK, ICntrl=    100127 FMM=F ISym2X=0 I1Cent= 0 IOpClX= 0 NMat=1 NMatS=1 NMatT=0.
 Full mass-weighted force constant matrix:
 Low frequencies ---  -74.6096   -6.3223    0.0007    0.0007    0.0009    7.4430
 Low frequencies ---   12.3418   49.6836   73.3674
 ******    1 imaginary frequencies (negative Signs) ****** 
 Diagonal vibrational polarizability:
       89.8804106      53.6316095      64.7605868
 Harmonic frequencies (cm**-1), IR intensities (KM/Mole), Raman scattering
 activities (A**4/AMU), depolarization ratios for plane and unpolarized
 incident light, reduced masses (AMU), force constants (mDyne/A),
 and normal coordinates:
                      1                      2                      3
                      A                      A                      A
 Frequencies --    -74.5713                49.5502                73.3270
 Red. masses --      2.8233                 3.8071                 3.0740
 Frc consts  --      0.0093                 0.0055                 0.0097
 IR Inten    --      2.1212                 0.5094                 5.3228
  Atom  AN      X      Y      Z        X      Y      Z        X      Y      Z
     1   6    -0.01   0.06  -0.08    -0.02  -0.01   0.01    -0.02  -0.04  -0.16
     2   6    -0.03   0.04   0.03    -0.02   0.01   0.01    -0.02  -0.01  -0.09
     3   8    -0.09   0.02   0.20    -0.02   0.02   0.07     0.00   0.00  -0.05
     4   6     0.01   0.01  -0.01     0.00  -0.03   0.05    -0.01  -0.05  -0.06
     5   6    -0.13  -0.05  -0.09    -0.01  -0.02   0.07     0.07   0.03   0.05
     6   1    -0.37   0.04   0.05    -0.05  -0.01   0.10     0.08  -0.02   0.10
     7   1    -0.05  -0.01  -0.09     0.01   0.01   0.07     0.10   0.09   0.07
     8   1    -0.17  -0.28  -0.24    -0.01  -0.06   0.04     0.06   0.03   0.02
     9   7     0.16   0.09  -0.05     0.04   0.01   0.06     0.04   0.02  -0.01
    10   1     0.42   0.00  -0.21     0.09   0.00   0.01     0.04   0.06  -0.05
    11   1     0.24   0.31   0.16     0.06   0.05   0.10     0.05   0.02   0.01
    12   6     0.00  -0.03   0.01     0.00  -0.04   0.03    -0.00  -0.03  -0.02
    13   6     0.02  -0.01  -0.00    -0.04  -0.17   0.14     0.05  -0.04   0.01
    14   6     0.02  -0.01   0.01    -0.03  -0.14   0.10     0.07   0.00   0.04
    15   6     0.01  -0.02   0.02     0.02   0.04  -0.05     0.04   0.06   0.04
    16   6    -0.00  -0.04   0.03     0.06   0.19  -0.17    -0.01   0.08   0.01
    17   6    -0.01  -0.04   0.02     0.05   0.14  -0.12    -0.03   0.03  -0.02
    18   1     0.03   0.01  -0.03    -0.07  -0.29   0.24     0.07  -0.08   0.00
    19   1     0.03   0.00  -0.00    -0.06  -0.25   0.19     0.11  -0.01   0.06
    20   1     0.01  -0.02   0.03     0.03   0.07  -0.08     0.06   0.10   0.06
    21   1    -0.01  -0.05   0.05     0.10   0.33  -0.29    -0.03   0.13   0.02
    22   1    -0.01  -0.05   0.03     0.09   0.25  -0.21    -0.06   0.04  -0.04
    23   6     0.01   0.03  -0.04     0.01  -0.05   0.06    -0.06  -0.13  -0.01
    24   1     0.02   0.05  -0.06     0.00  -0.07   0.09    -0.07  -0.14  -0.02
    25   1    -0.01   0.04  -0.02     0.05  -0.06   0.05    -0.08  -0.18  -0.04
    26   1     0.03   0.01  -0.05    -0.02  -0.04   0.06    -0.08  -0.11   0.07
    27   1    -0.03   0.04  -0.27    -0.05  -0.02  -0.04    -0.04  -0.05  -0.13
    28   8     0.02  -0.00  -0.06    -0.03   0.01  -0.09    -0.04   0.01  -0.05
    29   6     0.01  -0.04   0.02    -0.02   0.02  -0.14    -0.07   0.07   0.26
    30   1     0.05  -0.07  -0.05    -0.03   0.02  -0.20    -0.08   0.06   0.16
    31   1     0.03  -0.13   0.10    -0.05  -0.00  -0.14     0.11  -0.08   0.47
    32   1    -0.06   0.04   0.08     0.02   0.06  -0.14    -0.25   0.27   0.41
                      4                      5                      6
                      A                      A                      A
 Frequencies --     84.7633               102.4237               118.4035
 Red. masses --      4.4206                 1.8561                 2.1306
 Frc consts  --      0.0187                 0.0115                 0.0176
 IR Inten    --      5.2175                 7.4833                 4.1022
  Atom  AN      X      Y      Z        X      Y      Z        X      Y      Z
     1   6    -0.04  -0.08   0.08     0.02  -0.01   0.05     0.00  -0.02  -0.09
     2   6    -0.04  -0.01   0.08     0.02  -0.01   0.03    -0.00  -0.01   0.04
     3   8     0.03   0.03   0.14     0.02  -0.00   0.12     0.00   0.00   0.16
     4   6    -0.02  -0.12   0.06    -0.01   0.00   0.01    -0.01  -0.02  -0.06
     5   6     0.10  -0.11  -0.12     0.07   0.06  -0.03     0.06   0.08   0.02
     6   1     0.13  -0.11  -0.16     0.21   0.02  -0.14     0.17   0.02  -0.02
     7   1     0.11  -0.15  -0.14    -0.02   0.03  -0.04    -0.00   0.11   0.04
     8   1     0.09  -0.02  -0.10     0.10   0.19   0.08     0.09   0.16   0.10
     9   7     0.02  -0.14  -0.04    -0.09  -0.01  -0.05    -0.05   0.03  -0.06
    10   1    -0.01  -0.15   0.00    -0.22   0.02   0.06    -0.15   0.08  -0.01
    11   1     0.03  -0.22  -0.05    -0.13  -0.14  -0.16    -0.08  -0.05  -0.14
    12   6    -0.01  -0.09   0.07    -0.00   0.03  -0.02    -0.00   0.01  -0.06
    13   6     0.04   0.01  -0.00    -0.01   0.01  -0.00     0.04  -0.01  -0.04
    14   6     0.08   0.16  -0.09    -0.02  -0.02   0.02     0.04  -0.03   0.04
    15   6     0.07   0.20  -0.09    -0.02  -0.04   0.04     0.01  -0.02   0.07
    16   6     0.01   0.06   0.01    -0.01  -0.01   0.01    -0.03   0.02   0.03
    17   6    -0.03  -0.08   0.08    -0.00   0.02  -0.01    -0.03   0.03  -0.04
    18   1     0.06  -0.01  -0.02    -0.01   0.02  -0.01     0.07  -0.01  -0.07
    19   1     0.13   0.25  -0.15    -0.02  -0.04   0.04     0.07  -0.05   0.07
    20   1     0.10   0.33  -0.16    -0.03  -0.07   0.06     0.01  -0.05   0.13
    21   1    -0.01   0.08   0.02    -0.01  -0.02   0.02    -0.05   0.03   0.05
    22   1    -0.07  -0.16   0.14    -0.00   0.04  -0.03    -0.05   0.05  -0.06
    23   6    -0.02  -0.03  -0.02     0.00   0.04  -0.03    -0.03  -0.05  -0.04
    24   1    -0.01  -0.01  -0.05    -0.00   0.03  -0.01    -0.03  -0.09  -0.02
    25   1    -0.04   0.03   0.02     0.03   0.08  -0.01    -0.00  -0.07  -0.06
    26   1     0.01  -0.05  -0.08    -0.01   0.05  -0.08    -0.05  -0.04  -0.02
    27   1    -0.08  -0.10  -0.07     0.03  -0.01  -0.08     0.00  -0.03  -0.21
    28   8    -0.11   0.04  -0.02     0.03  -0.03  -0.12    -0.01  -0.01   0.05
    29   6    -0.09   0.14  -0.08     0.02  -0.02   0.00     0.00  -0.01  -0.04
    30   1    -0.17   0.17  -0.13     0.06  -0.07  -0.42    -0.04   0.04   0.38
    31   1    -0.09   0.16  -0.10     0.02  -0.40   0.31     0.02   0.36  -0.34
    32   1    -0.00   0.18  -0.09    -0.03   0.40   0.22     0.04  -0.43  -0.26
                      7                      8                      9
                      A                      A                      A
 Frequencies --    137.3289               159.9014               215.2658
 Red. masses --      3.6248                 2.1907                 3.7239
 Frc consts  --      0.0403                 0.0330                 0.1017
 IR Inten    --      1.2495                 1.7779                19.0280
  Atom  AN      X      Y      Z        X      Y      Z        X      Y      Z
     1   6    -0.04   0.05   0.01    -0.02   0.00  -0.07     0.10  -0.11  -0.01
     2   6    -0.05   0.02   0.00    -0.02   0.02   0.04     0.11  -0.11   0.02
     3   8    -0.10  -0.02  -0.03    -0.02   0.01  -0.02     0.19  -0.08   0.01
     4   6    -0.02  -0.01   0.06    -0.00  -0.01  -0.05    -0.02  -0.06   0.07
     5   6     0.27   0.13  -0.06     0.01   0.02   0.03    -0.02   0.08  -0.12
     6   1     0.30   0.05   0.00    -0.00  -0.00   0.07    -0.20   0.06   0.09
     7   1     0.37   0.18  -0.05     0.02   0.06   0.04     0.21   0.17  -0.11
     8   1     0.22   0.24  -0.12     0.01  -0.01   0.01    -0.12   0.02  -0.34
     9   7     0.13   0.07  -0.03     0.02   0.02  -0.02     0.04   0.11  -0.04
    10   1     0.09   0.12  -0.04     0.03   0.04  -0.05     0.14   0.09  -0.12
    11   1     0.16  -0.04   0.02     0.03   0.05   0.00     0.09   0.15   0.08
    12   6    -0.04  -0.05   0.08     0.00  -0.01  -0.04    -0.03   0.03   0.05
    13   6    -0.08  -0.03   0.06     0.03  -0.02  -0.03    -0.08   0.04   0.02
    14   6    -0.07   0.02  -0.03     0.04  -0.00   0.00    -0.11  -0.00  -0.01
    15   6    -0.04   0.05  -0.09     0.02   0.01   0.02    -0.09  -0.03  -0.02
    16   6    -0.01   0.01  -0.04    -0.01   0.01   0.01    -0.03   0.00  -0.03
    17   6    -0.02  -0.04   0.05    -0.02  -0.00  -0.02    -0.02   0.04   0.01
    18   1    -0.10  -0.03   0.08     0.05  -0.03  -0.05    -0.11   0.07   0.04
    19   1    -0.10   0.04  -0.06     0.07  -0.01   0.01    -0.14  -0.01  -0.01
    20   1    -0.03   0.10  -0.17     0.03   0.01   0.05    -0.10  -0.06  -0.04
    21   1     0.02   0.02  -0.09    -0.03   0.02   0.03     0.00  -0.01  -0.06
    22   1    -0.01  -0.06   0.07    -0.04   0.00  -0.03    -0.00   0.05   0.01
    23   6    -0.05   0.04   0.00    -0.01  -0.05  -0.02    -0.15  -0.06   0.03
    24   1    -0.04   0.09  -0.07    -0.01  -0.05  -0.02    -0.17  -0.11  -0.06
    25   1    -0.12   0.07   0.04    -0.02  -0.09  -0.04    -0.18  -0.02   0.06
    26   1    -0.01   0.02   0.00    -0.01  -0.05   0.02    -0.19  -0.03   0.04
    27   1    -0.05   0.04  -0.09    -0.03  -0.00  -0.02     0.15  -0.09  -0.18
    28   8     0.03  -0.04   0.04    -0.03   0.03   0.23     0.03  -0.04   0.06
    29   6     0.02  -0.19   0.03    -0.00  -0.02  -0.09     0.05   0.15  -0.01
    30   1     0.12  -0.23   0.11     0.05  -0.09  -0.64    -0.09   0.21  -0.09
    31   1    -0.05  -0.17  -0.03    -0.29  -0.40   0.07     0.10   0.17  -0.01
    32   1    -0.03  -0.30  -0.01     0.24   0.37   0.02     0.19   0.24  -0.00
                     10                     11                     12
                      A                      A                      A
 Frequencies --    237.0037               265.3324               284.4661
 Red. masses --      3.4955                 1.3532                 3.5166
 Frc consts  --      0.1157                 0.0561                 0.1677
 IR Inten    --     36.9517                 1.2749                 1.3223
  Atom  AN      X      Y      Z        X      Y      Z        X      Y      Z
     1   6    -0.00  -0.02   0.11    -0.02  -0.01   0.08    -0.04  -0.02   0.05
     2   6    -0.02  -0.03   0.01    -0.03  -0.02   0.02    -0.08  -0.05   0.01
     3   8     0.01  -0.04  -0.09    -0.02  -0.03  -0.01    -0.10  -0.07  -0.03
     4   6    -0.00  -0.12   0.09    -0.01  -0.01   0.01     0.00  -0.04   0.09
     5   6    -0.12   0.17   0.01     0.02   0.03  -0.00     0.03   0.02  -0.09
     6   1    -0.03   0.21  -0.14    -0.22  -0.14   0.45     0.14   0.16  -0.36
     7   1    -0.38   0.16   0.03     0.54   0.29   0.04    -0.24  -0.16  -0.13
     8   1    -0.02   0.15   0.21    -0.19  -0.01  -0.46     0.13   0.08   0.15
     9   7    -0.07   0.19  -0.10    -0.03   0.00   0.00     0.06   0.05  -0.00
    10   1    -0.08   0.21  -0.10    -0.05   0.03  -0.01     0.12   0.01  -0.01
    11   1    -0.08   0.22  -0.11    -0.03  -0.02   0.01     0.09   0.05   0.06
    12   6    -0.00  -0.11   0.02     0.01   0.01  -0.04     0.07   0.08   0.03
    13   6     0.05  -0.12   0.04     0.04   0.02  -0.04     0.07   0.15  -0.04
    14   6     0.08  -0.03   0.02     0.04   0.00  -0.00     0.03   0.03  -0.02
    15   6     0.08   0.05  -0.02     0.02  -0.02   0.03     0.05  -0.14   0.04
    16   6     0.02  -0.00   0.01     0.01   0.01   0.00     0.12  -0.03  -0.03
    17   6    -0.01  -0.10   0.03     0.01   0.02  -0.04     0.15   0.10  -0.05
    18   1     0.07  -0.15   0.02     0.05   0.01  -0.06     0.06   0.22  -0.07
    19   1     0.11  -0.01   0.01     0.05  -0.00   0.01    -0.03   0.03  -0.04
    20   1     0.11   0.15  -0.06     0.02  -0.05   0.07     0.00  -0.30   0.12
    21   1    -0.00   0.04   0.01    -0.01   0.01   0.02     0.14  -0.06  -0.04
    22   1    -0.03  -0.13   0.05     0.01   0.03  -0.05     0.20   0.16  -0.08
    23   6     0.09   0.06  -0.05     0.05   0.02  -0.01    -0.05  -0.04   0.08
    24   1     0.10   0.09  -0.02     0.07   0.12  -0.04    -0.08  -0.17   0.13
    25   1     0.14   0.22   0.03    -0.03   0.01   0.01     0.09   0.01   0.08
    26   1     0.10   0.04  -0.26     0.13  -0.03   0.01    -0.16   0.04   0.01
    27   1    -0.02  -0.05  -0.26    -0.01  -0.01   0.05    -0.03  -0.02  -0.12
    28   8    -0.03  -0.01   0.00    -0.04  -0.02  -0.02    -0.12  -0.04   0.01
    29   6    -0.03   0.01   0.01    -0.04  -0.00   0.00    -0.13   0.01  -0.00
    30   1    -0.05   0.02   0.03    -0.06   0.01   0.01    -0.16   0.03  -0.01
    31   1    -0.01   0.03   0.01    -0.02   0.01   0.00    -0.11   0.02  -0.01
    32   1    -0.03   0.01   0.01    -0.05  -0.00   0.00    -0.10   0.02  -0.01
                     13                     14                     15
                      A                      A                      A
 Frequencies --    298.5021               320.2462               357.1565
 Red. masses --      3.2189                 3.7029                 3.0824
 Frc consts  --      0.1690                 0.2238                 0.2317
 IR Inten    --     21.7590                12.2894                36.0022
  Atom  AN      X      Y      Z        X      Y      Z        X      Y      Z
     1   6     0.01  -0.02   0.06    -0.01  -0.02   0.15     0.01   0.03  -0.15
     2   6     0.00  -0.11   0.02     0.01   0.06   0.03    -0.01  -0.07  -0.03
     3   8    -0.01  -0.12   0.00     0.09   0.09  -0.04    -0.08  -0.10   0.02
     4   6    -0.00   0.02  -0.05    -0.01  -0.08   0.08     0.00   0.08  -0.03
     5   6     0.08  -0.05   0.17     0.02  -0.01  -0.10     0.01   0.07  -0.15
     6   1     0.16  -0.03   0.05     0.02   0.08  -0.20     0.01   0.16  -0.26
     7   1    -0.15  -0.04   0.20    -0.06  -0.12  -0.13     0.08  -0.15  -0.24
     8   1     0.18  -0.13   0.35     0.05   0.01  -0.03    -0.02   0.19  -0.17
     9   7     0.15  -0.00   0.01     0.07   0.02   0.02    -0.04   0.02   0.09
    10   1     0.26   0.05  -0.16     0.17   0.00  -0.06    -0.07  -0.03   0.17
    11   1     0.21   0.12   0.14     0.12   0.06   0.14    -0.05  -0.06   0.04
    12   6    -0.04  -0.00  -0.04    -0.06  -0.06  -0.09    -0.01   0.02  -0.02
    13   6    -0.03   0.02  -0.06    -0.02  -0.00  -0.13    -0.03  -0.03   0.02
    14   6    -0.03   0.02  -0.01     0.01   0.03  -0.02    -0.02  -0.01   0.03
    15   6    -0.07   0.01   0.04    -0.08   0.00   0.10    -0.01   0.06  -0.01
    16   6    -0.08   0.04   0.01    -0.13   0.07   0.02    -0.03   0.01   0.02
    17   6    -0.08   0.04  -0.04    -0.13   0.05  -0.10    -0.03  -0.03   0.03
    18   1    -0.02   0.02  -0.08     0.03   0.00  -0.20    -0.04  -0.06   0.05
    19   1     0.01   0.02   0.00     0.10   0.04  -0.01    -0.01  -0.03   0.05
    20   1    -0.07  -0.01   0.09    -0.08  -0.04   0.22    -0.00   0.11  -0.05
    21   1    -0.10   0.05   0.02    -0.18   0.11   0.05    -0.04   0.01   0.03
    22   1    -0.10   0.06  -0.07    -0.18   0.09  -0.16    -0.02  -0.06   0.06
    23   6     0.09   0.13  -0.11     0.12  -0.12   0.13     0.21  -0.03   0.12
    24   1     0.10   0.15  -0.05     0.10  -0.22   0.31     0.25   0.10   0.28
    25   1     0.14   0.23  -0.07     0.34  -0.12   0.08     0.26  -0.17   0.02
    26   1     0.10   0.12  -0.25     0.01  -0.05   0.04     0.32  -0.10   0.14
    27   1     0.08   0.00   0.08    -0.04  -0.04  -0.07     0.06   0.06   0.11
    28   8    -0.04  -0.09  -0.00     0.03   0.06  -0.03    -0.01  -0.08   0.03
    29   6    -0.03   0.10  -0.01     0.02  -0.09   0.02     0.01   0.08  -0.01
    30   1    -0.17   0.16  -0.03     0.13  -0.14   0.06    -0.12   0.14  -0.05
    31   1     0.06   0.15  -0.01    -0.03  -0.12   0.02     0.07   0.13  -0.01
    32   1     0.05   0.16  -0.01    -0.08  -0.15   0.01     0.10   0.15  -0.00
                     16                     17                     18
                      A                      A                      A
 Frequencies --    374.6571               393.1844               403.6840
 Red. masses --      3.8753                 2.1494                 1.3012
 Frc consts  --      0.3205                 0.1958                 0.1249
 IR Inten    --     19.0995                10.8088                 5.8946
  Atom  AN      X      Y      Z        X      Y      Z        X      Y      Z
     1   6     0.01  -0.10  -0.15     0.01  -0.03  -0.01     0.00  -0.00  -0.03
     2   6     0.00  -0.04  -0.05     0.01  -0.04   0.01     0.00  -0.02  -0.01
     3   8     0.20   0.06   0.02     0.11   0.02   0.03     0.03   0.00   0.02
     4   6    -0.01  -0.05  -0.02    -0.02   0.06  -0.00    -0.01   0.05  -0.02
     5   6    -0.02  -0.01   0.02    -0.01   0.05  -0.04     0.01   0.02  -0.01
     6   1    -0.05  -0.04   0.09     0.02   0.19  -0.23    -0.05   0.03   0.04
     7   1     0.00   0.06   0.05    -0.05  -0.21  -0.13     0.14  -0.01  -0.03
     8   1    -0.02  -0.06  -0.00     0.01   0.15   0.01    -0.04   0.04  -0.11
     9   7    -0.00  -0.00  -0.04     0.01   0.03   0.17    -0.00   0.00   0.07
    10   1    -0.01   0.00  -0.04     0.10   0.02   0.09     0.02   0.01   0.04
    11   1    -0.01   0.01  -0.04     0.05   0.05   0.25     0.01   0.00   0.09
    12   6     0.01   0.05   0.09    -0.01  -0.02  -0.05    -0.00  -0.00  -0.02
    13   6    -0.05   0.09   0.07     0.04  -0.03  -0.05     0.01  -0.05   0.02
    14   6    -0.09   0.03   0.03     0.05  -0.03  -0.00     0.03   0.01  -0.02
    15   6    -0.06  -0.00  -0.00     0.04  -0.00  -0.00     0.03   0.01  -0.02
    16   6     0.03   0.02   0.01    -0.00  -0.00  -0.02    -0.00  -0.05   0.02
    17   6     0.04   0.05   0.08    -0.02  -0.04  -0.05     0.00  -0.01  -0.02
    18   1    -0.10   0.14   0.10     0.06  -0.06  -0.06     0.00  -0.10   0.05
    19   1    -0.14   0.03   0.02     0.07  -0.05   0.02     0.04   0.04  -0.04
    20   1    -0.07  -0.05  -0.04     0.05   0.01   0.03     0.04   0.05  -0.03
    21   1     0.08  -0.00  -0.04    -0.03   0.02  -0.00    -0.02  -0.08   0.06
    22   1     0.11   0.04   0.10    -0.05  -0.06  -0.04     0.00   0.03  -0.05
    23   6     0.18   0.02  -0.06    -0.08   0.08  -0.01    -0.04   0.04  -0.01
    24   1     0.23   0.18   0.09    -0.02   0.33  -0.32    -0.14  -0.39   0.25
    25   1     0.26   0.06  -0.05    -0.49   0.03   0.06     0.48   0.25  -0.02
    26   1     0.31  -0.08  -0.23     0.15  -0.06   0.15    -0.42   0.30  -0.28
    27   1     0.03  -0.09  -0.14     0.07   0.01   0.25     0.03   0.02   0.12
    28   8    -0.13   0.03   0.01    -0.06  -0.01  -0.01    -0.02  -0.00   0.00
    29   6    -0.16  -0.15   0.00    -0.07  -0.06  -0.00    -0.03  -0.02  -0.00
    30   1    -0.00  -0.22   0.01    -0.03  -0.08   0.00    -0.02  -0.02  -0.00
    31   1    -0.28  -0.22   0.00    -0.10  -0.08   0.00    -0.04  -0.03  -0.00
    32   1    -0.23  -0.22  -0.01    -0.10  -0.08  -0.00    -0.03  -0.02  -0.00
                     19                     20                     21
                      A                      A                      A
 Frequencies --    426.1009               460.8544               545.4253
 Red. masses --      2.6096                 2.9887                 2.8883
 Frc consts  --      0.2792                 0.3740                 0.5062
 IR Inten    --      0.1308                 8.5076                20.8346
  Atom  AN      X      Y      Z        X      Y      Z        X      Y      Z
     1   6    -0.00  -0.01  -0.01     0.02   0.04   0.16     0.04   0.08  -0.08
     2   6     0.00   0.00  -0.00     0.01  -0.03   0.07     0.01  -0.04  -0.05
     3   8    -0.00  -0.00   0.00     0.05  -0.02   0.00     0.06  -0.02  -0.00
     4   6     0.00  -0.02   0.01     0.02   0.13  -0.13    -0.03   0.11   0.10
     5   6    -0.01   0.00   0.00     0.01   0.01  -0.01     0.02  -0.08   0.02
     6   1     0.01   0.01  -0.02     0.04  -0.03   0.01     0.02  -0.17   0.12
     7   1    -0.05   0.00   0.00    -0.10   0.09   0.03    -0.06   0.11   0.10
     8   1     0.01   0.00   0.03     0.06  -0.08   0.07     0.05  -0.19   0.06
     9   7    -0.00   0.01  -0.02     0.05   0.03  -0.14     0.01  -0.02  -0.12
    10   1    -0.00   0.00  -0.01     0.09   0.06  -0.21    -0.09  -0.11   0.08
    11   1    -0.00   0.00  -0.02     0.07   0.10  -0.09    -0.04  -0.11  -0.24
    12   6     0.00  -0.01   0.01     0.03   0.13  -0.09    -0.06  -0.02  -0.01
    13   6    -0.04  -0.14   0.12    -0.01  -0.02   0.04     0.01  -0.03  -0.01
    14   6     0.02   0.15  -0.12    -0.02  -0.05   0.04     0.04   0.00   0.01
    15   6    -0.01  -0.01   0.01     0.02   0.09  -0.08     0.06  -0.02   0.01
    16   6    -0.03  -0.13   0.11    -0.01  -0.06   0.05    -0.02  -0.02  -0.03
    17   6     0.04   0.16  -0.12     0.00  -0.02   0.03    -0.03  -0.04  -0.07
    18   1    -0.09  -0.29   0.26    -0.05  -0.12   0.14     0.09  -0.05  -0.09
    19   1     0.07   0.33  -0.26    -0.05  -0.15   0.12     0.05   0.03  -0.02
    20   1    -0.02  -0.02   0.02     0.04   0.17  -0.15     0.07   0.01   0.02
    21   1    -0.07  -0.30   0.24    -0.03  -0.17   0.13    -0.07   0.04  -0.01
    22   1     0.09   0.35  -0.27    -0.01  -0.11   0.10    -0.03  -0.01  -0.09
    23   6     0.02  -0.01  -0.00    -0.01  -0.09   0.04    -0.04   0.16   0.22
    24   1     0.07   0.18  -0.12    -0.03  -0.16   0.11    -0.03   0.18   0.25
    25   1    -0.19  -0.09   0.01    -0.02  -0.40  -0.14    -0.05   0.08   0.18
    26   1     0.18  -0.12   0.10    -0.04  -0.06   0.36    -0.02   0.14   0.29
    27   1    -0.02  -0.01   0.02     0.12   0.08   0.33     0.15   0.10  -0.55
    28   8     0.00  -0.00  -0.00    -0.07  -0.02  -0.03    -0.03  -0.02   0.03
    29   6     0.01   0.00  -0.00    -0.09  -0.03  -0.01    -0.05  -0.01   0.00
    30   1     0.00   0.00  -0.00    -0.07  -0.04   0.01    -0.05  -0.01  -0.01
    31   1     0.01   0.00  -0.00    -0.09  -0.04   0.00    -0.06  -0.01  -0.00
    32   1     0.01   0.00   0.00    -0.13  -0.05  -0.01    -0.03  -0.01  -0.00
                     22                     23                     24
                      A                      A                      A
 Frequencies --    567.5664               604.3677               623.3824
 Red. masses --      1.8446                 3.1865                 2.0245
 Frc consts  --      0.3501                 0.6857                 0.4635
 IR Inten    --     13.3852                29.5652               126.2003
  Atom  AN      X      Y      Z        X      Y      Z        X      Y      Z
     1   6    -0.01   0.02  -0.03     0.11   0.04  -0.07    -0.04  -0.08  -0.10
     2   6    -0.00  -0.01   0.02     0.04   0.00  -0.00    -0.02   0.01  -0.02
     3   8     0.03   0.00   0.02    -0.05  -0.05   0.01    -0.01   0.02   0.02
     4   6    -0.02   0.05  -0.05     0.21  -0.03   0.10    -0.06  -0.10   0.12
     5   6    -0.02   0.03  -0.01    -0.02   0.00  -0.00     0.01  -0.01   0.00
     6   1     0.00  -0.01   0.02    -0.08   0.02   0.04     0.05  -0.07   0.03
     7   1    -0.05   0.10   0.02    -0.04   0.04   0.02    -0.05   0.10   0.05
     8   1     0.01  -0.01   0.03    -0.02  -0.07  -0.03     0.04  -0.02   0.05
     9   7    -0.00   0.02  -0.08     0.03   0.03  -0.03    -0.00   0.01  -0.07
    10   1    -0.00   0.03  -0.09    -0.18  -0.07   0.29     0.10  -0.02  -0.13
    11   1     0.00   0.03  -0.07    -0.12  -0.09  -0.33     0.06   0.04   0.07
    12   6    -0.05  -0.12   0.10     0.14  -0.07  -0.04    -0.02   0.07  -0.06
    13   6    -0.00  -0.01   0.02    -0.04  -0.08  -0.11    -0.00   0.04  -0.04
    14   6     0.02   0.07  -0.03    -0.04  -0.04  -0.07    -0.01  -0.02   0.06
    15   6     0.01  -0.09   0.07    -0.15   0.06   0.03     0.05   0.05  -0.04
    16   6     0.03   0.06  -0.06     0.01   0.07   0.08     0.01  -0.05   0.03
    17   6    -0.01  -0.05   0.01     0.02   0.03   0.05     0.01   0.01  -0.06
    18   1     0.03   0.10  -0.08    -0.13  -0.01  -0.04    -0.02  -0.08   0.05
    19   1     0.05   0.23  -0.17     0.12  -0.05  -0.01    -0.05  -0.18   0.19
    20   1     0.00  -0.12   0.09    -0.15   0.06   0.03     0.04   0.01  -0.03
    21   1     0.05   0.25  -0.19     0.08   0.01   0.03    -0.07  -0.18   0.18
    22   1     0.04   0.07  -0.08    -0.14   0.03   0.00    -0.01  -0.11   0.03
    23   6    -0.00  -0.01   0.02    -0.00   0.02   0.03    -0.01   0.04   0.06
    24   1    -0.01  -0.03   0.10    -0.07  -0.16  -0.26     0.02   0.13   0.08
    25   1     0.05  -0.13  -0.07    -0.16   0.16   0.15     0.01   0.18   0.14
    26   1    -0.01   0.01   0.12    -0.17   0.14   0.08     0.06  -0.01  -0.10
    27   1     0.02   0.07   0.78     0.07   0.04   0.41    -0.11  -0.07   0.75
    28   8    -0.00  -0.02  -0.02    -0.04   0.05  -0.01     0.03   0.01  -0.01
    29   6    -0.00  -0.00  -0.00    -0.09  -0.01  -0.01     0.04   0.01   0.00
    30   1    -0.02   0.01  -0.01    -0.00  -0.05   0.00     0.04   0.01  -0.00
    31   1     0.01   0.01  -0.00    -0.14  -0.04  -0.00     0.05   0.01  -0.00
    32   1     0.01   0.01  -0.00    -0.13  -0.05  -0.01     0.05   0.01   0.00
                     25                     26                     27
                      A                      A                      A
 Frequencies --    636.1850               726.7186               730.7613
 Red. masses --      6.0245                 4.7218                 1.6528
 Frc consts  --      1.4366                 1.4692                 0.5200
 IR Inten    --      3.2004                 7.9388                39.8606
  Atom  AN      X      Y      Z        X      Y      Z        X      Y      Z
     1   6    -0.01   0.01   0.02     0.19  -0.09   0.00    -0.03   0.02  -0.01
     2   6    -0.00  -0.01   0.00     0.14  -0.01   0.03    -0.02   0.00   0.01
     3   8     0.02   0.01  -0.00    -0.13  -0.18   0.01     0.02   0.03  -0.01
     4   6    -0.01   0.03  -0.03     0.03  -0.00   0.00     0.00  -0.00  -0.00
     5   6     0.00  -0.00   0.00     0.01   0.00  -0.00    -0.00   0.00  -0.00
     6   1     0.00   0.00  -0.01    -0.02   0.03  -0.01    -0.02   0.01   0.00
     7   1     0.02  -0.03  -0.01     0.01  -0.03  -0.01    -0.01  -0.00  -0.00
     8   1    -0.00   0.01  -0.01     0.00  -0.02  -0.01    -0.00  -0.01  -0.00
     9   7    -0.00  -0.01   0.02     0.01   0.01   0.02     0.00   0.00   0.00
    10   1     0.00   0.01  -0.00    -0.03  -0.00   0.07    -0.03   0.01   0.03
    11   1     0.00   0.01   0.03    -0.01  -0.03  -0.03    -0.01  -0.01  -0.03
    12   6    -0.04  -0.08  -0.09    -0.11   0.01   0.02    -0.01  -0.07   0.05
    13   6    -0.27  -0.04  -0.12    -0.01   0.07   0.08     0.02   0.05  -0.05
    14   6    -0.17   0.21   0.21    -0.02   0.05   0.12    -0.02  -0.11   0.07
    15   6     0.04   0.07   0.10     0.12  -0.04  -0.01    -0.00   0.04  -0.03
    16   6     0.30   0.05   0.15    -0.08  -0.08  -0.06    -0.02  -0.10   0.09
    17   6     0.16  -0.19  -0.18    -0.07  -0.05  -0.09     0.02   0.05  -0.03
    18   1    -0.15  -0.11  -0.23     0.10   0.15  -0.10     0.09   0.36  -0.31
    19   1    -0.02   0.23   0.24    -0.14   0.19  -0.04     0.05   0.13  -0.12
    20   1    -0.07  -0.15  -0.23     0.16   0.15  -0.16     0.10   0.46  -0.37
    21   1     0.20   0.16   0.21    -0.17   0.15  -0.09     0.05   0.15  -0.12
    22   1    -0.00  -0.17  -0.24     0.05   0.09  -0.18     0.10   0.40  -0.31
    23   6    -0.01  -0.02  -0.04     0.02  -0.03  -0.03     0.00  -0.00  -0.00
    24   1    -0.02  -0.04  -0.03     0.02  -0.03  -0.05     0.00   0.00  -0.02
    25   1    -0.01  -0.05  -0.06     0.00  -0.03  -0.03    -0.01  -0.01  -0.00
    26   1    -0.02  -0.01  -0.01     0.02  -0.04  -0.04    -0.00  -0.00   0.01
    27   1    -0.00   0.01  -0.24     0.26  -0.06   0.09    -0.03   0.02   0.04
    28   8    -0.00  -0.02   0.00    -0.01   0.28  -0.03     0.00  -0.04  -0.00
    29   6     0.00  -0.00   0.00    -0.05   0.02  -0.01     0.01  -0.00   0.00
    30   1    -0.02   0.01  -0.00     0.35  -0.16   0.04    -0.05   0.02  -0.01
    31   1     0.01   0.01   0.00    -0.27  -0.14   0.01     0.04   0.02  -0.00
    32   1     0.01   0.01   0.00    -0.26  -0.15  -0.02     0.03   0.02   0.00
                     28                     29                     30
                      A                      A                      A
 Frequencies --    755.8799               789.6539               808.3643
 Red. masses --      2.0662                 7.1621                 2.2006
 Frc consts  --      0.6955                 2.6313                 0.8472
 IR Inten    --     61.0109                25.0968                 7.6818
  Atom  AN      X      Y      Z        X      Y      Z        X      Y      Z
[...]
 00905,-0.00003997,0.00011638,-0.00013790,-0.00002147,-0.00011596,-0.00
 024963,0.00002407,-0.00163383,-0.00181751,0.00034205,-0.00025525,-0.00
 009983,0.00003684,0.00032352,-0.00025656,0.00035221,-0.00012735,-0.001
 81125,0.00023270,-0.00146418,-0.00058908,0.00090359,0.00006367,0.00001
 139,0.00003043,-0.00001983,0.00000219,-0.00013555,-0.00011787,0.000081
 41,0.00010121,0.00037746,0.00003387,0.00011163,-0.00072147,-0.00017194
 ,0.00051385,-0.00000513,-0.00006674,0.00005429,0.00001290,0.00000964,-
 0.00000658,0.00000995,0.00001094,-0.00000170,0.00003493,-0.00001982,0.
 00005102,-0.00143328,-0.00094634,0.00011233,-0.00012141,-0.00015466,-0
 .00011672,0.00002743,0.00000296,-0.00011904,0.00007877,-0.00027784,-0.
 00055514,0.09230903,0.09808667,-0.31888451,0.01495457,-0.00298557,-0.0
 0339123,0.00024894,0.00063052,0.00161715,0.00007897,0.00738224,-0.0127
 4187,0.00059864,-0.00010947,0.00017686,0.00033733,0.00000303,-0.000000
 85,-0.00004458,0.00004304,-0.00013330,-0.00000035,-0.00004297,0.000023
 87,-0.00001698,-0.00075103,-0.00092211,-0.00067167,-0.00007660,-0.0001
 1820,-0.00031539,0.00020481,-0.00022515,0.00016401,0.00190545,0.000116
 84,-0.00001270,0.00060471,0.00038258,-0.00084205,-0.00049691,0.0003584
 8,-0.00000439,0.00021224,0.00019999,0.00047060,0.00040992,-0.00031639,
 -0.00022471,-0.00081083,0.00018085,-0.00028185,0.00017980,0.00007706,0
 .00056218,-0.00001833,0.00002648,-0.00003989,0.00001972,-0.00001639,0.
 00004648,-0.00001808,-0.00000812,0.00002029,0.00006851,0.00001142,0.00
 004332,-0.00142552,-0.00088727,0.00085107,0.00001903,0.00014280,0.0001
 5133,-0.00000449,-0.00002593,-0.00018813,0.00000803,-0.00039100,-0.000
 61860,-0.10211835,0.33457408,-0.00127448,0.01999913,-0.00442432,-0.001
 29713,0.00022918,-0.00416969,-0.00045121,-0.00066525,0.00709366,-0.004
 03849,-0.01156354,0.00135944,0.00013345,-0.00020940,-0.00105634,0.0000
 1860,-0.00001928,-0.00003131,-0.00024677,0.00044542,-0.00001147,0.0000
 7044,0.00010337,0.00002301,0.00220149,0.00666342,-0.00618473,0.0002433
 2,0.00146232,0.00080951,-0.00014131,0.00070364,-0.00068540,-0.00073454
 ,0.00030788,-0.00048875,0.00105294,0.00058980,0.00033624,-0.00041219,-
 0.00025312,-0.00029242,0.00012823,0.00013136,0.00012896,-0.00006405,-0
 .00021455,-0.00021742,-0.00012516,0.00001475,-0.00012702,0.00101742,-0
 .00009043,-0.00114407,0.00000597,-0.00001589,0.00002022,-0.00004640,0.
 00000003,-0.00004071,-0.00000723,-0.00000172,-0.00000813,-0.00001681,-
 0.00002193,-0.00006776,-0.00136425,-0.00251495,0.00030745,0.00013675,0
 .00014687,0.00026404,-0.00007929,0.00028386,-0.00012551,-0.00013817,-0
 .00063410,-0.00094537,0.00525740,-0.01517463,0.01259980,-0.05543494,-0
 .04874805,0.00313169,-0.15836322,-0.06311557,0.00112615,0.02701350,-0.
 00682137,0.00060037,-0.00014342,0.01403870,-0.00408547,-0.00098183,0.0
 0075538,0.00121001,0.00000095,-0.00021585,-0.00010950,0.00023411,-0.00
 068817,0.00011801,-0.00003836,0.00052538,-0.00025457,-0.00104899,-0.00
 687837,0.00411049,0.00010882,0.00148114,-0.00198399,0.00033841,-0.0004
 8313,0.00034361,0.00120812,-0.00211542,-0.00079814,-0.00078460,0.00023
 455,0.00051340,-0.00000430,-0.00010272,-0.00045823,-0.00048897,0.00018
 041,0.00004299,-0.00006188,0.00006830,-0.00020686,-0.00099791,0.000609
 79,0.00044748,0.00036812,-0.00055518,-0.00047150,-0.00012804,0.0001097
 6,0.00011442,-0.00016326,-0.00001678,0.00002637,-0.00022696,-0.0000021
 9,-0.00005547,0.00018989,-0.00010401,0.00004564,-0.00096584,-0.0016561
 6,0.00120442,0.00015598,0.00023594,0.00031365,-0.00017957,0.00003122,0
 .00016208,-0.00031863,-0.00150502,-0.00075869,-0.00030516,-0.00114421,
 0.00040568,0.52479090,-0.02936815,-0.00171543,0.00253007,-0.02592448,-
 0.17998039,0.00924477,-0.01756594,-0.09637232,0.01100670,0.00695267,0.
 00905914,-0.00324341,-0.00093949,-0.00077528,0.00076051,-0.00041736,-0
 .00016096,0.00008998,-0.00012178,-0.00037909,0.00025421,0.00070049,0.0
 0249036,-0.00057376,-0.00090784,-0.00490314,0.00291610,0.00049649,0.00
 065036,-0.00175211,0.00022337,-0.00043962,0.00019601,0.00129642,0.0000
 4222,-0.00040725,-0.00066019,0.00019928,0.00038588,-0.00002379,-0.0000
 5565,-0.00033348,-0.00032578,0.00014581,0.00001843,-0.00001037,0.00003
 209,0.00001107,-0.00037714,0.00020402,0.00017954,0.00023843,-0.0004839
 0,-0.00034082,-0.00010335,0.00005976,0.00009188,-0.00011113,-0.0000204
 5,0.00002220,-0.00011601,-0.00001340,-0.00003093,0.00016172,-0.0000212
 7,0.00006850,-0.00100263,-0.00189291,0.00009308,0.00041241,0.00063223,
 0.00111546,-0.00037817,0.00009445,0.00006383,-0.00034545,-0.00091190,-
 0.00041875,-0.00050596,-0.00011805,0.00050997,0.05551046,0.36331213,0.
 00278756,0.00017479,0.01384809,-0.00259169,0.00928164,-0.06319453,0.00
 071611,0.01003403,0.02174123,-0.00108338,-0.00137005,0.00425780,-0.000
 39660,0.00014518,-0.00016927,-0.00003177,0.00001658,0.00005229,0.00008
 270,0.00009711,-0.00006634,0.00016958,0.00012162,0.00015037,-0.0006323
 3,-0.00031814,-0.00007981,0.00011537,0.00003549,-0.00009964,-0.0000833
 6,-0.00011881,-0.00000323,-0.00033414,0.00006846,-0.00022458,-0.000047
 26,-0.00006906,-0.00007831,0.00000717,-0.00004803,0.00005566,0.0000279
 1,-0.00001804,-0.00001371,-0.00003673,-0.00002735,-0.00001343,-0.00000
 726,0.00004567,0.00004022,0.00005437,0.00002024,-0.00007344,-0.0000061
 3,-0.00000079,-0.00000347,0.00000674,0.00001082,-0.00001108,0.00000542
 ,0.00000997,0.00000133,-0.00000960,0.00001836,-0.00001380,0.00050773,0
 .00069575,0.00004217,0.00001094,-0.00013767,-0.00023055,0.00000025,-0.
 00002184,-0.00000135,0.00027873,0.00016066,0.00009881,-0.00000225,-0.0
 0007511,-0.00180861,0.02290847,-0.02785281,0.07690827,0.01068433,0.001
 09919,-0.00086591,-0.05567759,-0.03503917,0.00033374,-0.00274865,0.017
 01647,-0.00148752,-0.00260400,-0.00489568,0.00236441,0.00053844,-0.000
 04917,-0.00051589,0.00008777,0.00010318,0.00001279,-0.00003476,0.00028
 098,-0.00010785,-0.00015382,-0.00077238,0.00021317,0.00048134,0.003106
 07,-0.00194599,-0.00023230,-0.00060392,0.00097013,-0.00014370,0.000211
 41,-0.00012757,-0.00070465,0.00026575,0.00020166,0.00030430,-0.0000999
 9,-0.00029065,-0.00000729,0.00008196,0.00020284,0.00018890,-0.00006552
 ,-0.00000551,0.00002153,-0.00001849,0.00001988,0.00026348,-0.00015409,
 -0.00012116,-0.00016906,0.00021797,0.00025731,0.00003859,-0.00004654,-
 0.00004209,0.00007186,0.00000272,-0.00000500,0.00008005,0.00000418,0.0
 0002922,-0.00008293,0.00001908,-0.00001548,0.00050568,0.00093935,-0.00
 033075,-0.00015944,-0.00033637,-0.00037687,0.00009517,-0.00004287,-0.0
 0008480,0.00018355,0.00061182,0.00026977,0.00019086,0.00027731,-0.0003
 5898,-0.24115822,0.01873808,-0.01473892,0.50563115,-0.00044084,-0.0047
 9550,0.00041916,-0.04162019,0.00866776,-0.00404803,-0.00176190,-0.0021
 1781,-0.00050108,-0.00131090,0.00052223,0.00045819,-0.00002748,0.00008
 653,0.00000880,0.00000950,-0.00000735,0.00000098,-0.00000406,-0.000022
 30,0.00000272,-0.00001573,-0.00001663,-0.00000513,-0.00001988,0.000022
 27,-0.00007181,-0.00001442,0.00003197,-0.00009959,-0.00000441,-0.00001
 734,0.00000090,-0.00017067,-0.00036222,-0.00006284,-0.00002439,-0.0000
 2283,-0.00001256,0.00000222,-0.00000192,0.00000615,-0.00001192,-0.0000
 0558,0.00000002,-0.00001412,0.00000894,-0.00003311,-0.00008651,0.00006
 472,0.00005314,0.00000809,0.00000658,-0.00000799,-0.00000196,0.0000054
 1,-0.00000146,-0.00000120,0.00000300,-0.00000080,-0.00001352,0.0000037
 4,-0.00000129,0.00000104,-0.00000891,-0.00000063,0.00005026,0.00009180
 ,0.00008482,-0.00001368,-0.00000865,0.00000081,-0.00000512,0.00000765,
 -0.00000061,-0.00002182,-0.00001959,-0.00002029,-0.00022678,0.00025131
 ,-0.00021020,0.04243777,-0.09968468,0.00709871,0.02447081,0.62067099,0
 .00065880,0.00078123,0.00228447,0.00047034,-0.00357110,-0.00165196,0.0
 0035815,0.00135690,-0.00476301,0.00046219,0.00006551,0.00215413,0.0000
 2550,0.00000648,0.00001423,-0.00001417,0.00000749,-0.00000044,0.000046
 04,0.00003445,-0.00003480,-0.00001610,-0.00006228,0.00005894,-0.000294
 84,-0.00021081,0.00017035,-0.00001941,-0.00017653,0.00010092,0.0000155
 5,-0.00003343,0.00008615,-0.00018206,0.00016569,-0.00011575,0.00002058
 ,-0.00001303,-0.00007674,0.00000757,-0.00001736,0.00003535,0.00002545,
 -0.00002012,-0.00002002,-0.00003235,-0.00001585,0.00000521,0.00004733,
 0.00000433,0.00001378,0.00001393,0.00002140,0.00001391,0.00000985,-0.0
 0000839,-0.00000330,0.00000476,0.00000344,-0.00000399,0.00000227,0.000
 00174,0.00000183,-0.00001044,0.00000049,-0.00000729,0.00017731,0.00015
 132,-0.00010123,-0.00001360,-0.00008275,0.00000261,-0.00004710,-0.0000
 0245,0.00000649,0.00004427,0.00006048,0.00005697,0.00001455,-0.0000039
 5,-0.00098965,-0.01706200,0.00514683,-0.06705546,-0.00994951,-0.001437
 58,0.58200104,-0.00128926,-0.00187318,0.00006583,-0.00320809,0.0069824
 3,-0.00106592,0.00259137,-0.00080239,0.00022337,-0.00020857,0.00080991
 ,-0.00016770,-0.00006203,0.00003608,0.00006380,-0.00000204,-0.00001222
 ,-0.00000565,0.00001253,-0.00003576,0.00000726,0.00001301,0.00004888,-
 0.00001998,-0.00004061,-0.00033980,0.00020439,0.00002774,0.00008745,-0
 .00011556,0.00002079,-0.00002452,0.00001220,0.00004763,-0.00016113,-0.
 00005171,-0.00005146,0.00001230,0.00002766,0.00000456,-0.00000451,-0.0
 0002643,-0.00003221,0.00001007,0.00000075,-0.00000606,0.00000792,-0.00
 001528,-0.00006643,0.00004175,0.00003219,0.00002582,-0.00003301,-0.000
 02764,-0.00000942,0.00000617,0.00000837,-0.00000991,-0.00000136,0.0000
 0197,-0.00001455,0.,-0.00000291,0.00001144,-0.00000768,0.00000404,-0.0
 0002892,-0.00006145,0.00007307,0.00001908,0.00002586,0.00002105,-0.000
 00600,0.00000049,0.00000769,-0.00002008,-0.00007971,-0.00003652,0.0000
 2087,0.00002465,-0.00000476,-0.03246923,-0.03689097,0.00164759,-0.0819
 3729,-0.08921103,0.00733281,0.10726703,-0.00082566,0.00020161,0.000008
 32,0.00388138,-0.00040488,0.00017287,-0.00276776,0.00022817,-0.0001175
 1,0.00028740,0.00042008,-0.00014799,-0.00002951,-0.00000655,0.00003049
 ,-0.00001655,-0.00000796,-0.00000158,0.00000413,-0.00001645,0.00001107
 ,0.00002861,0.00008860,-0.00001639,-0.00002482,-0.00022728,0.00014980,
 0.00004939,0.00003425,-0.00008322,0.00001944,-0.00001419,0.00000208,0.
 00007569,-0.00001763,-0.00002875,-0.00003812,0.00000833,0.00002272,0.0
 0000050,-0.00000571,-0.00001811,-0.00001961,0.00000783,0.00000015,-0.0
 0000160,0.00000306,-0.00000053,-0.00002936,0.00001611,0.00001456,0.000
 01870,-0.00002424,-0.00002222,-0.00000541,0.00000420,0.00000580,-0.000
 00785,-0.00000056,0.00000128,-0.00000832,-0.00000107,-0.00000259,0.000
 01113,-0.00000111,0.00000476,-0.00003808,-0.00007574,0.00000861,0.0000
 2293,0.00004677,0.00005130,-0.00001501,0.00000297,0.00000271,-0.000020
 01,-0.00004774,-0.00001632,-0.00005443,0.00001362,0.00001501,0.0030253
 9,0.00852360,-0.00057193,-0.09997599,-0.28850808,0.01805886,0.10627479
 ,0.30042605,-0.00004406,-0.00013761,0.00012870,-0.00059867,0.00051674,
 0.00023720,0.00032429,-0.00005271,0.00078088,-0.00004229,0.00002557,0.
 00006334,-0.00000446,0.00000301,0.00000372,0.00000414,-0.00000161,0.00
 000052,-0.00000449,-0.00000479,0.00000307,-0.00000404,-0.00000374,-0.0
 0000881,0.00001050,-0.00000823,-0.00000458,-0.00001559,0.00000732,-0.0
 0000888,-0.00000035,0.00000229,-0.00000093,-0.00001909,-0.00000455,-0.
 00000959,0.00000302,-0.00000032,-0.00000079,-0.00000016,-0.00000055,0.
 00000111,0.00000026,-0.00000117,-0.00000144,-0.00000289,-0.00000005,-0
 .00000176,-0.00000197,0.00000071,0.00000283,0.00000284,0.00000344,-0.0
 0000235,0.00000129,-0.00000031,-0.00000009,-0.00000018,0.00000014,0.,-
 0.00000099,-0.00000027,-0.00000006,0.00000006,-0.00000105,-0.00000094,
 0.00001039,-0.00000181,0.00001284,0.00000704,-0.00000344,-0.00000974,0
 .00000420,-0.00000009,0.00000043,-0.00000269,-0.00000005,-0.00000156,0
 .00000939,-0.00000059,-0.00001961,-0.00280460,-0.00356642,0.00098058,0
 .00862873,0.01890810,-0.05355176,-0.00687520,-0.01964450,0.04700716,-0
 .00195601,-0.00104477,-0.00031781,0.00415782,0.00971727,0.00040123,0.0
 0176991,-0.00325074,-0.00052615,0.00028144,0.00084083,-0.00070436,-0.0
 0007386,0.00004013,0.00008499,0.00000037,-0.00001651,-0.00000729,0.000
 01729,-0.00004773,0.00000490,0.00001231,0.00003222,-0.00001657,-0.0000
 2363,-0.00047627,0.00027457,0.00001307,0.00015056,-0.00011128,0.000020
 01,-0.00002289,0.00001799,0.00014810,-0.00007367,-0.00003705,-0.000035
 47,0.00002196,0.00006378,-0.00000023,-0.00000921,-0.00004271,-0.000032
 63,0.00001428,0.00000452,0.00000078,0.00000388,-0.00001085,-0.00005028
 ,0.00002147,0.00001932,0.00002279,-0.00003727,-0.00004085,-0.00000566,
 0.00000638,0.00000669,-0.00001106,-0.00000258,0.00000179,-0.00001311,-
 0.00000134,-0.00000384,0.00000850,-0.00000799,0.00000050,-0.00011849,-
 0.00018657,0.00008031,-0.00000095,0.00002523,0.00004046,-0.00002066,0.
 00000483,0.00000952,-0.00001759,-0.00011479,-0.00007305,0.00018522,-0.
 00004157,0.00032855,-0.03289382,0.01868560,0.02487248,-0.07496383,0.04
 786055,0.05984604,0.00557009,-0.00625103,-0.00958121,0.09390552,0.0004
 9024,0.00008524,-0.00024090,-0.00248146,-0.00148169,0.00096489,-0.0007
 7515,0.00036837,0.00006203,-0.00019763,-0.00025930,0.00008738,0.000047
 84,-0.00000259,-0.00001504,0.00001961,0.00000616,-0.00000480,-0.000002
 98,0.00000842,-0.00000681,-0.00003509,-0.00010737,0.00001425,0.0001068
 4,0.00016512,-0.00009997,-0.00005358,-0.00002319,0.00008960,-0.0000083
 0,0.00002563,-0.00001182,-0.00003770,0.00003846,0.00002528,0.00001953,
 -0.00000374,-0.00002183,0.00000157,0.00000685,0.00001280,0.00001263,-0
 .00000433,0.00000072,0.00000481,-0.00000316,0.00000542,0.00002258,-0.0
 0001959,-0.00001335,-0.00001007,0.00001368,0.00002101,0.00000192,-0.00
 000286,-0.00000321,0.00000582,-0.00000009,-0.00000040,0.00000782,0.000
 00081,0.00000201,-0.00000644,0.00000446,-0.00000276,0.00002462,0.00005
 122,-0.00000941,-0.00002243,-0.00001254,-0.00004400,0.00002959,-0.0000
 0291,-0.00000272,0.00000071,0.00003908,0.00002086,0.00004402,0.0000197
 3,-0.00011269,0.00815975,0.00159709,0.00052875,0.05211702,-0.14142964,
 -0.11743665,0.00916016,-0.01257024,-0.02084481,-0.06191729,0.14576032,
 -0.00007282,0.00049479,-0.00036034,-0.00025854,-0.00385582,0.00112534,
 -0.00265706,0.00099674,0.00057382,0.00000570,-0.00007004,-0.00005544,0
 .00002894,-0.00003077,-0.00001044,-0.00000359,0.00000185,0.00000271,-0
 .00001286,-0.00000179,0.00000799,0.00000745,0.00001784,-0.00001588,0.0
 0006864,0.00006633,-0.00002588,-0.00002826,-0.00004144,-0.00000735,-0.
 00000163,0.00001173,-0.00001477,0.00001052,0.00000814,0.00000957,-0.00
 001349,-0.00000383,-0.00000736,0.00000417,0.00000456,0.00000429,-0.000
 00143,0.00000055,-0.00000022,0.00000242,0.00000227,0.00000420,0.000001
 40,-0.00000272,-0.00000349,-0.00000206,-0.00000024,0.00000322,-0.00000
 297,0.00000047,0.00000030,0.00000112,-0.00000031,0.00000059,0.00000170
 ,-0.00000011,0.00000102,0.00000213,0.00000162,0.00000285,0.00000403,-0
 .00000518,-0.00001982,0.00000395,0.00001617,0.00001668,-0.00000218,0.0
 0000206,-0.00000253,-0.00000975,0.00000967,0.00000692,-0.00005298,0.00
 004252,-0.00003903,0.00262632,0.00577122,0.00992461,0.06460721,-0.1161
 2736,-0.19820724,-0.00199491,0.00376016,0.00361535,-0.07063983,0.12608
 775,0.20232783,-0.00212293,-0.00090217,0.00075675,0.00447294,0.0089187
 5,-0.00211696,0.00043669,-0.00297214,0.00073678,0.00047150,0.00107677,
 -0.00008508,-0.00008509,0.00003894,0.00010628,0.00000264,-0.00001448,-
 0.00000304,0.00001729,-0.00005959,0.00000826,0.00000551,0.00006189,-0.
 00003417,-0.00016047,-0.00069506,0.00045370,-0.00003894,0.00008133,-0.
 00018230,0.00001569,-0.00004872,0.00004742,0.00010310,-0.00003836,-0.0
 0006365,-0.00006609,0.00000449,0.00003563,0.00000516,-0.00001239,-0.00
 002775,-0.00003005,0.00000939,-0.00000083,-0.00000685,0.00000125,-0.00
 000482,-0.00004411,0.00002707,0.00003008,0.00003161,-0.00003483,-0.000
 04550,-0.00000802,0.00000778,0.00000622,-0.00001019,-0.00000056,0.0000
 0069,-0.00001256,0.00000060,-0.00000391,0.00001220,-0.00000252,0.00000
 082,-0.00002109,-0.00010995,0.00007097,0.00000909,-0.00000446,0.000003
 97,-0.00001095,0.00000058,0.00002468,-0.00000954,-0.00010217,-0.000041
 14,0.00015791,-0.00003573,-0.00019903,-0.02725166,0.01267984,-0.034197
 66,-0.05858949,0.02018231,-0.04194169,0.00383021,-0.00357035,0.0109967
 9,0.00410406,-0.00472897,0.00837867,0.07479243,0.00049484,0.00005477,0
 .00010816,-0.00224820,-0.00056724,-0.00095868,0.00016856,-0.00022925,0
 .00010208,-0.00011724,-0.00023475,0.00005447,0.00001390,0.00002108,-0.
 00002202,0.00001304,0.00000693,0.00000036,0.00000730,0.00001952,-0.000
 01337,-0.00002420,-0.00007096,0.00001791,-0.00000948,0.00014346,-0.000
 07679,-0.00001744,-0.00002232,0.00008800,-0.00001067,0.00000675,0.0000
 0583,-0.00004640,0.00003456,0.00000923,0.00003864,0.00000164,-0.000011
 19,-0.00000700,0.00000507,0.00000829,0.00001566,-0.00000248,0.00000190
 ,0.00000289,-0.00000459,-0.00000152,0.00002071,-0.00001608,-0.00001571
 ,-0.00001158,0.00001414,0.00001842,0.00000589,-0.00000458,-0.00000300,
 0.00000433,-0.00000049,-0.00000022,0.00000558,-0.00000014,0.00000148,-
 0.00000840,-0.00000076,-0.00000309,0.00004581,0.00006768,-0.00000762,-
 0.00001978,-0.00006280,-0.00006327,0.00000584,-0.00000845,0.00000257,0
 .00003555,0.00003044,0.00001604,0.00002838,0.00000727,0.00009568,0.006
 74826,0.00088588,0.00206580,0.02253683,-0.09341587,0.09722563,0.006009
 82,-0.00809584,0.02481135,-0.00392294,0.00773262,-0.01715685,-0.029758
 53,0.09370476,-0.00065572,-0.00081348,-0.00024193,0.00151387,0.0056490
 2,0.00034554,0.00220929,-0.00151468,0.00093449,0.00009786,0.00044134,-
 0.00023982,-0.00003130,0.00002836,0.00005228,0.00001236,-0.00000635,-0
 .00000551,-0.00000127,-0.00003377,0.00001162,-0.00002028,0.00000061,-0
 .00002432,-0.00001001,-0.00024694,0.00016502,-0.00005084,0.00003844,-0
 .00006627,0.00000987,-0.00001040,0.00001147,0.00004188,-0.00004479,0.0
 0000297,-0.00002264,0.00000243,0.00001489,0.00000249,-0.00000552,-0.00
 001018,-0.00001231,0.00000310,0.00000095,-0.00000006,0.00000125,0.0000
 0018,-0.00001829,0.00000931,0.00001047,0.00001137,-0.00001077,-0.00001
 754,-0.00000337,0.00000490,0.00000150,-0.00000394,0.00000067,-0.000000
 17,-0.00000434,0.00000087,-0.00000238,0.00000632,0.00000162,-0.0000005
 0,-0.00003413,-0.00006006,0.00006503,0.00000521,0.00002262,-0.00001777
 ,0.00002742,0.00000297,0.00001509,-0.00002809,-0.00004907,-0.00001985,
 0.00008015,-0.00005469,-0.00006502,-0.01040223,-0.00195649,0.00503919,
 -0.04674042,0.09559987,-0.26042372,0.00067614,-0.00164892,0.00078518,-
 0.00394480,0.01094844,-0.01885750,0.05728980,-0.10629988,0.27253661\\-
 0.00001026,0.00001342,0.00000430,0.00000714,-0.00000475,-0.00000329,0.
 00000425,0.00000688,0.00000262,-0.00000148,0.00001047,0.00000116,0.000
 00107,-0.00000605,-0.00000100,0.00000727,0.00000013,0.00000823,-0.0000
 0091,0.00000113,0.00000511,-0.00000344,0.00000289,0.00000335,-0.000003
 73,0.00000020,0.00001421,-0.00000444,-0.00000107,-0.00000346,0.0000124
 7,0.00001035,-0.00000410,-0.00000608,-0.00001947,-0.00002703,-0.000012
 70,0.00000914,0.00000698,0.00000978,-0.00000444,-0.00000773,-0.0000009
 9,-0.00001167,-0.00001114,-0.00000580,0.00000529,0.00000212,0.00001429
 ,-0.00000602,0.00000779,-0.00000103,-0.00000444,0.00000070,-0.00000427
 ,0.00000270,-0.00000522,-0.00000366,-0.00000413,-0.00000192,0.00000093
 ,-0.00000555,-0.00000470,-0.00000339,-0.00000066,0.00000440,-0.0000069
 1,-0.00000642,-0.00000510,0.00000844,-0.00000377,0.00000521,0.00000047
 ,-0.00000474,0.00000146,0.00001036,0.00000793,0.00000052,-0.00000040,-
 0.00000453,-0.00000260,0.00000056,0.00000234,0.00000450,-0.00000325,-0
 .00000700,-0.00000347,-0.00000172,0.00001161,-0.00000055,-0.00000152,0
 .00000512,0.00000770,-0.00000107,0.00000511,0.00000094\\\@
 The archive entry for this job was punched.


 RESEARCH IS WHAT I AM DOING WHEN I DON'T KNOW WHAT I AM DOING.
     -- WERNER VON BRAUN
 Job cpu time:       0 days  0 hours 49 minutes 35.2 seconds.
 Elapsed time:       0 days  0 hours  4 minutes 14.0 seconds.
 File lengths (MBytes):  RWF=    400 Int=      0 D2E=      0 Chk=     14 Scr=      1
 Normal termination of Gaussian 16 at Sat Dec 30 21:04:43 2023.
