Unloading slurm/anatra/current
  ERROR: No such file or directory on
    '/cm/local/modulefiles/slurm/anatra/current'
environment: line 0: unalias: gv: not found
environment: line 0: unalias: sl: not found
 Entering Gaussian System, Link 0=g16
 Initial command:
 /apps/gaussian/g16/C.01/g16/l1.exe "/local/jobs/1153180/Gau-1740002.inp" -scrdir="/local/jobs/1153180/"
 Entering Link 1 = /apps/gaussian/g16/C.01/g16/l1.exe PID=   1740003.
  
 Copyright (c) 1988-2019, Gaussian, Inc.  All Rights Reserved.
  
 This is part of the Gaussian(R) 16 program.  It is based on
 the Gaussian(R) 09 system (copyright 2009, Gaussian, Inc.),
 the Gaussian(R) 03 system (copyright 2003, Gaussian, Inc.),
 the Gaussian(R) 98 system (copyright 1998, Gaussian, Inc.),
 the Gaussian(R) 94 system (copyright 1995, Gaussian, Inc.),
 the Gaussian 92(TM) system (copyright 1992, Gaussian, Inc.),
 the Gaussian 90(TM) system (copyright 1990, Gaussian, Inc.),
 the Gaussian 88(TM) system (copyright 1988, Gaussian, Inc.),
 the Gaussian 86(TM) system (copyright 1986, Carnegie Mellon
 University), and the Gaussian 82(TM) system (copyright 1983,
 Carnegie Mellon University). Gaussian is a federally registered
 trademark of Gaussian, Inc.
  
 This software contains proprietary and confidential information,
 including trade secrets, belonging to Gaussian, Inc.
  
 This software is provided under written license and may be
 used, copied, transmitted, or stored only in accord with that
 written license.
  
 The following legend is applicable only to US Government
 contracts under FAR:
  
                    RESTRICTED RIGHTS LEGEND
  
 Use, reproduction and disclosure by the US Government is
 subject to restrictions as set forth in subparagraphs (a)
 and (c) of the Commercial Computer Software - Restricted
 Rights clause in FAR 52.227-19.
  
 Gaussian, Inc.
 340 Quinnipiac St., Bldg. 40, Wallingford CT 06492
  
  
 ---------------------------------------------------------------
 Warning -- This program may not be used in any manner that
 competes with the business of Gaussian, Inc. or will provide
 assistance to any competitor of Gaussian, Inc.  The licensee
 of this program is prohibited from giving any competitor of
 Gaussian, Inc. access to this program.  By using this program,
 the user acknowledges that Gaussian, Inc. is engaged in the
 business of creating and licensing software in the field of
 computational chemistry and represents and warrants to the
 licensee that it is not a competitor of Gaussian, Inc. and that
 it will not use this program in any manner prohibited above.
 ---------------------------------------------------------------
  

 Cite this work as:
 Gaussian 16, Revision C.01,
 M. J. Frisch, G. W. Trucks, H. B. Schlegel, G. E. Scuseria, 
 M. A. Robb, J. R. Cheeseman, G. Scalmani, V. Barone, 
 G. A. Petersson, H. Nakatsuji, X. Li, M. Caricato, A. V. Marenich, 
 J. Bloino, B. G. Janesko, R. Gomperts, B. Mennucci, H. P. Hratchian, 
 J. V. Ortiz, A. F. Izmaylov, J. L. Sonnenberg, D. Williams-Young, 
 F. Ding, F. Lipparini, F. Egidi, J. Goings, B. Peng, A. Petrone, 
 T. Henderson, D. Ranasinghe, V. G. Zakrzewski, J. Gao, N. Rega, 
 G. Zheng, W. Liang, M. Hada, M. Ehara, K. Toyota, R. Fukuda, 
 J. Hasegawa, M. Ishida, T. Nakajima, Y. Honda, O. Kitao, H. Nakai, 
 T. Vreven, K. Throssell, J. A. Montgomery, Jr., J. E. Peralta, 
 F. Ogliaro, M. J. Bearpark, J. J. Heyd, E. N. Brothers, K. N. Kudin, 
 V. N. Staroverov, T. A. Keith, R. Kobayashi, J. Normand, 
 K. Raghavachari, A. P. Rendell, J. C. Burant, S. S. Iyengar, 
 J. Tomasi, M. Cossi, J. M. Millam, M. Klene, C. Adamo, R. Cammi, 
 J. W. Ochterski, R. L. Martin, K. Morokuma, O. Farkas, 
 J. B. Foresman, and D. J. Fox, Gaussian, Inc., Wallingford CT, 2019.
 
 ******************************************
 Gaussian 16:  ES64L-G16RevC.01  3-Jul-2019
                30-Dec-2023 
 ******************************************
 %chk=TS-325_opt_dft_freq.chk
 %nprocshared=12
 Will use up to   12 processors via shared memory.
 %mem=48GB
 -----------------------------------------------------------
 # wb97xd def2svp scrf=(iefpcm,solvent=toluene) freq=noraman
 -----------------------------------------------------------
 1/10=4,30=1,38=1/1,3;
 2/12=2,17=6,18=5,40=1/2;
 3/5=43,7=101,11=2,25=1,30=1,70=2201,71=2,72=13,74=-58,140=1/1,2,3;
 4//1;
 5/5=2,38=5,53=13,98=1/2;
 8/6=4,10=90,11=11/1;
 11/6=1,8=1,9=11,15=111,16=1/1,2,10;
 10/6=1/2;
 6/7=2,8=2,9=2,10=2,28=1/1;
 7/8=1,10=1,25=1/1,2,3,16;
 1/10=4,30=1/3;
 99//99;
 ------------------
 TS-325_opt_dft.out
 ------------------
 Symbolic Z-matrix:
 Charge =  0 Multiplicity = 1
 C                     0.10077   0.10034  -0.11019 
 C                    -0.33411   1.50253   0.04147 
 O                    -1.34541   1.80618   0.686 
 C                    -0.84987  -0.89193   0.02555 
 C                    -0.50737  -0.97992   2.85561 
 H                    -0.76597  -0.58732   3.85167 
 H                    -0.26042  -2.04674   2.94702 
 H                     0.38538  -0.44666   2.4945 
 N                    -1.56648  -0.79341   1.88564 
 H                    -2.39191  -1.36686   2.05098 
 H                    -1.83025   0.19551   1.78008 
 H                    -0.51738  -1.93165   0.03449 
 Br                   -2.58293  -0.80066  -0.84437 
 C                     1.53116  -0.2801   -0.19127 
 C                     2.52727   0.41345   0.5249 
 C                     3.86443   0.03071   0.46155 
 C                     4.25081  -1.06827  -0.30713 
 C                     3.28105  -1.76883  -1.02287 
 C                     1.94588  -1.37169  -0.97674 
 H                     2.24338   1.26318   1.15044 
 H                     4.61139   0.5889    1.03133 
 H                     5.29906  -1.37127  -0.35179 
 H                     3.56766  -2.62319  -1.64093 
 H                     1.20628  -1.90558  -1.57884 
 N                     0.44295   2.45434  -0.54234 
 C                     0.18338   3.86681  -0.43305 
 H                     1.20657   2.14295  -1.12799 
 H                    -0.59871   4.01084   0.32198 
 H                     1.08813   4.41244  -0.12335 
 H                    -0.17316   4.29383  -1.38464 
 

 GradGradGradGradGradGradGradGradGradGradGradGradGradGradGradGradGradGrad
 Berny optimization.
 Initialization pass.
 Trust Radius=3.00D-01 FncErr=1.00D-07 GrdErr=1.00D-07 EigMax=2.50D+02 EigMin=1.00D-04
 Number of steps in this run=      2 maximum allowed number of steps=      2.
 GradGradGradGradGradGradGradGradGradGradGradGradGradGradGradGradGradGrad

                          Input orientation:                          
 ---------------------------------------------------------------------
 Center     Atomic      Atomic             Coordinates (Angstroms)
 Number     Number       Type             X           Y           Z
 ---------------------------------------------------------------------
      1          6           0        0.100770    0.100340   -0.110190
      2          6           0       -0.334110    1.502530    0.041470
      3          8           0       -1.345410    1.806180    0.686000
      4          6           0       -0.849870   -0.891930    0.025550
      5          6           0       -0.507370   -0.979920    2.855610
      6          1           0       -0.765970   -0.587320    3.851670
      7          1           0       -0.260420   -2.046740    2.947020
      8          1           0        0.385380   -0.446660    2.494500
      9          7           0       -1.566480   -0.793410    1.885640
     10          1           0       -2.391910   -1.366860    2.050980
     11          1           0       -1.830250    0.195510    1.780080
     12          1           0       -0.517380   -1.931650    0.034490
     13         35           0       -2.582930   -0.800660   -0.844370
     14          6           0        1.531160   -0.280100   -0.191270
     15          6           0        2.527270    0.413450    0.524900
     16          6           0        3.864430    0.030710    0.461550
     17          6           0        4.250810   -1.068270   -0.307130
     18          6           0        3.281050   -1.768830   -1.022870
     19          6           0        1.945880   -1.371690   -0.976740
     20          1           0        2.243380    1.263180    1.150440
     21          1           0        4.611390    0.588900    1.031330
     22          1           0        5.299060   -1.371270   -0.351790
     23          1           0        3.567660   -2.623190   -1.640930
     24          1           0        1.206280   -1.905580   -1.578840
     25          7           0        0.442950    2.454340   -0.542340
     26          6           0        0.183380    3.866810   -0.433050
     27          1           0        1.206570    2.142950   -1.127990
     28          1           0       -0.598710    4.010840    0.321980
     29          1           0        1.088130    4.412440   -0.123350
     30          1           0       -0.173160    4.293830   -1.384640
 ---------------------------------------------------------------------
                    Distance matrix (angstroms):
                    1          2          3          4          5
     1  C    0.000000
     2  C    1.475892   0.000000
     3  O    2.373867   1.237073   0.000000
     4  C    1.380848   2.449429   2.821622   0.000000
     5  C    3.214462   3.756589   3.629307   2.852067   0.000000
     6  H    4.113447   4.367104   4.010743   3.839143   1.101428
     7  H    3.753258   4.587480   4.597217   3.196252   1.098838
     8  H    2.676681   3.214711   3.367728   2.796394   1.100804
     9  N    2.749882   3.192341   2.871563   1.995788   1.448220
    10  H    3.610649   4.062766   3.609226   2.589558   2.085340
    11  H    2.703889   2.639981   2.006574   2.285180   2.070848
    12  H    2.128855   3.439074   3.883487   1.091626   2.977349
    13  Br   2.924563   3.338651   3.266359   1.941285   4.246167
    14  C    1.482337   2.590593   3.660167   2.467924   3.732135
    15  C    2.527702   3.099564   4.118653   3.654920   4.072190
    16  C    3.807476   4.468832   5.508639   4.823483   5.085817
    17  C    4.315932   5.268019   6.369180   5.114558   5.714106
    18  C    3.800127   4.990391   6.091393   4.351165   5.478787
    19  C    2.514401   3.807394   4.867869   3.008483   4.567146
    20  H    2.744479   2.816125   3.659230   3.934218   3.937731
    21  H    4.678403   5.125672   6.089704   5.747157   5.656050
    22  H    5.407978   6.336086   7.437888   6.179117   6.644938
    23  H    4.666916   5.922486   7.012288   5.028816   6.286897
    24  H    2.720809   4.075956   5.041605   2.798090   4.843324
    25  N    2.417676   1.360367   2.264324   3.631997   4.923750
    26  C    3.781185   2.466330   2.799226   4.891168   5.897729
    27  H    2.535935   2.037515   3.149059   3.843188   5.344060
    28  H    3.996005   2.537778   2.355971   4.918140   5.597795
    29  H    4.423716   3.243071   3.656468   5.649279   6.363754
    30  H    4.391426   3.138638   3.442401   5.416519   6.775238
                    6          7          8          9         10
     6  H    0.000000
     7  H    1.789938   0.000000
     8  H    1.785302   1.783841   0.000000
     9  N    2.132736   2.098370   2.073814   0.000000
    10  H    2.548303   2.410057   2.959192   1.018586   0.000000
    11  H    2.457031   2.975534   2.414911   1.028922   1.682215
    12  H    4.054613   2.926108   3.011946   2.413080   2.810531
    13  Br   5.039806   4.617511   4.481544   2.913104   2.956370
    14  C    4.660102   4.022392   2.924708   3.764627   4.647495
    15  C    4.786896   4.437388   3.034272   4.479611   5.449473
    16  C    5.771956   5.244783   4.057654   5.674680   6.604641
    17  C    6.534142   5.647840   4.814258   6.222913   7.055180
    18  C    6.444802   5.327220   4.743936   5.736673   6.464720
    19  C    5.593113   4.551851   3.916676   4.567746   5.289946
    20  H    4.447154   4.522420   2.860457   4.391482   5.404997
    21  H    6.184967   5.860973   4.590470   6.388013   7.342404
    22  H    7.420798   6.499710   5.753305   7.244008   8.057564
    23  H    7.286547   6.002981   5.653846   6.491855   7.122151
    24  H    5.926046   4.759679   4.403910   4.574685   5.139337
    25  N    5.479097   5.738474   4.200180   4.525569   5.418792
    26  C    6.252949   6.825826   5.217028   5.491446   6.339860
    27  H    6.011847   6.025883   4.528009   5.039244   5.947577
    28  H    5.799117   6.610564   5.055451   5.144165   5.926606
    29  H    6.651020   7.277827   5.563978   6.179310   7.087926
    30  H    7.183035   7.679435   6.150767   6.206133   6.983534
                   11         12         13         14         15
    11  H    0.000000
    12  H    3.048856   0.000000
    13  Br   2.906307   2.513569   0.000000
    14  C    3.925749   2.641042   4.198007   0.000000
    15  C    4.539929   3.874260   5.427993   1.409307   0.000000
    16  C    5.847654   4.820114   6.630615   2.442729   1.392300
    17  C    6.552318   4.857753   6.860047   2.833925   2.420405
    18  C    6.151467   3.946212   5.946047   2.443356   2.779590
    19  C    4.931058   2.720991   4.566587   1.407311   2.404093
    20  H    4.258031   4.367388   5.615334   2.165446   1.092673
    21  H    6.496931   5.800961   7.563555   3.426037   2.151932
    22  H    7.604389   5.856126   7.917954   3.926002   3.411251
    23  H    6.984684   4.469095   6.464200   3.426210   3.872262
    24  H    4.991737   2.361042   4.014774   2.161731   3.398329
    25  N    3.957700   4.526795   4.454458   2.963885   3.106223
    26  C    4.736148   5.859334   5.441225   4.367131   4.282194
    27  H    4.633753   4.574465   4.806827   2.618010   2.732666
    28  H    4.266086   5.949996   5.333670   4.817877   4.770130
    29  H    5.470145   6.545995   6.416616   4.713897   4.299218
    30  H    5.436693   6.394452   5.661511   5.024905   5.098629
                   16         17         18         19         20
    16  C    0.000000
    17  C    1.395677   0.000000
    18  C    2.404616   1.394096   0.000000
    19  C    2.777812   2.419327   1.393746   0.000000
    20  H    2.149734   3.404401   3.872095   3.399403   0.000000
    21  H    1.092783   2.160487   3.398299   3.870556   2.465018
    22  H    2.164540   1.092077   2.163508   3.410921   4.305137
    23  H    3.398776   2.159512   1.092737   2.153502   4.964810
    24  H    3.870164   3.404041   2.152318   1.092964   4.308780
    25  N    4.311415   5.192678   5.110860   4.133522   2.743340
    26  C    5.391299   6.396472   6.457855   5.553727   3.678305
    27  H    3.748655   4.500349   4.429056   3.594739   2.653340
    28  H    5.981683   7.050602   7.089834   6.093705   4.038992
    29  H    5.220106   6.330442   6.620131   5.909329   3.588173
    30  H    6.155058   7.034533   6.987009   6.062576   4.631537
                   21         22         23         24         25
    21  H    0.000000
    22  H    2.495632   0.000000
    23  H    4.306724   2.495382   0.000000
    24  H    4.962881   4.306041   2.468792   0.000000
    25  N    4.830341   6.184934   6.062345   4.545977   0.000000
    26  C    5.700559   7.322176   7.418384   5.973244   1.440275
    27  H    4.320941   5.449835   5.343589   4.073556   1.011467
    28  H    6.273595   8.012788   8.076014   6.471100   2.062716
    29  H    5.325984   7.157892   7.612569   6.484581   2.103798
    30  H    6.515776   7.943886   7.867947   6.353995   2.114896
                   26         27         28         29         30
    26  C    0.000000
    27  H    2.121686   0.000000
    28  H    1.096576   2.974973   0.000000
    29  H    1.100999   2.484736   1.790260   0.000000
    30  H    1.102266   2.568231   1.781496   1.787673   0.000000
 Stoichiometry    C11H15BrN2O
 Framework group  C1[X(C11H15BrN2O)]
 Deg. of freedom    84
 Full point group                 C1      NOp   1
 Largest Abelian subgroup         C1      NOp   1
 Largest concise Abelian subgroup C1      NOp   1
                         Standard orientation:                         
 ---------------------------------------------------------------------
 Center     Atomic      Atomic             Coordinates (Angstroms)
 Number     Number       Type             X           Y           Z
 ---------------------------------------------------------------------
      1          6           0        0.100771    0.100341   -0.110191
      2          6           0       -0.334106    1.502532    0.041469
      3          8           0       -1.345405    1.806184    0.685999
      4          6           0       -0.849871   -0.891927    0.025549
      5          6           0       -0.507371   -0.979918    2.855609
      6          1           0       -0.765971   -0.587317    3.851669
      7          1           0       -0.260424   -2.046738    2.947019
      8          1           0        0.385380   -0.446660    2.494499
      9          7           0       -1.566481   -0.793405    1.885639
     10          1           0       -2.391912   -1.366854    2.050979
     11          1           0       -1.830249    0.195515    1.780079
     12          1           0       -0.517384   -1.931648    0.034489
     13         35           0       -2.582931   -0.800653   -0.844371
     14          6           0        1.531160   -0.280102   -0.191271
     15          6           0        2.527272    0.413446    0.524899
     16          6           0        3.864431    0.030703    0.461549
     17          6           0        4.250808   -1.068278   -0.307131
     18          6           0        3.281047   -1.768836   -1.022871
     19          6           0        1.945878   -1.371693   -0.976741
     20          1           0        2.243383    1.263176    1.150439
     21          1           0        4.611392    0.588891    1.031329
     22          1           0        5.299058   -1.371280   -0.351791
     23          1           0        3.567655   -2.623197   -1.640931
     24          1           0        1.206276   -1.905581   -1.578841
     25          7           0        0.442956    2.454340   -0.542341
     26          6           0        0.183389    3.866811   -0.433051
     27          1           0        1.206575    2.142949   -1.127991
     28          1           0       -0.598701    4.010843    0.321979
     29          1           0        1.088140    4.412439   -0.123351
     30          1           0       -0.173150    4.293832   -1.384641
 ---------------------------------------------------------------------
 Rotational constants (GHZ):           0.5748135           0.3051881           0.2598681
 Standard basis: def2SVP (5D, 7F)
 There are   320 symmetry adapted cartesian basis functions of A   symmetry.
 There are   303 symmetry adapted basis functions of A   symmetry.
   303 basis functions,   535 primitive gaussians,   320 cartesian basis functions
    69 alpha electrons       69 beta electrons
       nuclear repulsion energy      1351.9375304968 Hartrees.
 NAtoms=   30 NActive=   30 NUniq=   30 SFac= 1.00D+00 NAtFMM=   60 NAOKFM=F Big=F
 Integral buffers will be    131072 words long.
 Raffenetti 2 integral format.
 Two-electron integral symmetry is turned on.
 Nuclear repulsion after empirical dispersion term =     1351.9153258020 Hartrees.
 Force inversion solution in PCM.
 ------------------------------------------------------------------------------
 Polarizable Continuum Model (PCM)
 =================================
 Model                : PCM.
 Atomic radii         : UFF (Universal Force Field).
 Polarization charges : Total charges.
 Charge compensation  : None.
 Solution method      : Matrix inversion.
 Cavity type          : Scaled VdW (van der Waals Surface) (Alpha=1.100).
 Cavity algorithm     : GePol (No added spheres)
                        Default sphere list used, NSphG=   30.
                        Lebedev-Laikov grids with approx.  5.0 points / Ang**2.
                        Smoothing algorithm: York/Karplus (Gamma=1.0000).
                        Polarization charges: spherical gaussians, with
                                              point-specific exponents (IZeta= 3).
                        Self-potential: point-specific (ISelfS= 7).
                        Self-field    : sphere-specific E.n sum rule (ISelfD= 2).
 1st derivatives      : Analytical E(r).r(x)/FMM algorithm (CHGder, D1EAlg=3).
                        Cavity 1st derivative terms included.
 2nd derivatives      : Analytical E(r).r(xy)/FMM algorithm (CHGder, D2EAlg=3).
                        Cavity 2nd derivative terms included.
 Solvent              : Toluene, Eps=   2.374100 Eps(inf)=   2.238315
 ------------------------------------------------------------------------------
 One-electron integrals computed using PRISM.
   1 Symmetry operations used in ECPInt.
 ECPInt:  NShTT=   10011 NPrTT=   37668 LenC2=    9556 LenP2D=   25808.
 LDataN:  DoStor=T MaxTD1= 4 Len=   56
 NBasis=   303 RedAO= T EigKep=  2.89D-04  NBF=   303
 NBsUse=   303 1.00D-06 EigRej= -1.00D+00 NBFU=   303
 ExpMin= 1.22D-01 ExpMax= 1.13D+05 ExpMxC= 1.70D+04 IAcc=3 IRadAn=         5 AccDes= 0.00D+00
 Harris functional with IExCor= 4639 and IRadAn=       5 diagonalized for initial guess.
 HarFok:  IExCor= 4639 AccDes= 0.00D+00 IRadAn=         5 IDoV= 1 UseB2=F ITyADJ=14
 ICtDFT=  3500011 ScaDFX=  1.000000  1.000000  1.000000  1.000000
 FoFCou: FMM=F IPFlag=           0 FMFlag=      100000 FMFlg1=           0
         NFxFlg=           0 DoJE=T BraDBF=F KetDBF=T FulRan=T
         wScrn=  0.000000 ICntrl=       500 IOpCl=  0 I1Cent=   200000004 NGrid=           0
         NMat0=    1 NMatS0=      1 NMatT0=    0 NMatD0=    1 NMtDS0=    0 NMtDT0=    0
 Petite list used in FoFCou.
 Requested convergence on RMS density matrix=1.00D-08 within 128 cycles.
 Requested convergence on MAX density matrix=1.00D-06.
 Requested convergence on             energy=1.00D-06.
 No special actions if energy rises.
 Inv3:  Mode=1 IEnd=    16202928.
 Iteration    1 A*A^-1 deviation from unit magnitude is 4.11D-15 for    973.
 Iteration    1 A*A^-1 deviation from orthogonality  is 2.11D-15 for   2002   1042.
 Iteration    1 A^-1*A deviation from unit magnitude is 4.00D-15 for    973.
 Iteration    1 A^-1*A deviation from orthogonality  is 1.38D-15 for   1347      2.
 Error on total polarization charges =  0.00657
 SCF Done:  E(RwB97XD) =  -3186.16695679     A.U. after   15 cycles
            NFock= 15  Conv=0.61D-08     -V/T= 2.0030
 DoSCS=F DFT=T ScalE2(SS,OS)=  1.000000  1.000000
 Range of M.O.s used for correlation:     1   303
 NBasis=   303 NAE=    69 NBE=    69 NFC=     0 NFV=     0
 NROrb=    303 NOA=    69 NOB=    69 NVA=   234 NVB=   234

 **** Warning!!: The largest alpha MO coefficient is  0.12499741D+02

   1 Symmetry operations used in ECPInt.
 ECPInt:  NShTT=   10011 NPrTT=   37668 LenC2=    9556 LenP2D=   25808.
 LDataN:  DoStor=T MaxTD1= 5 Len=  102
 Symmetrizing basis deriv contribution to polar:
 IMax=3 JMax=2 DiffMx= 0.00D+00
 G2DrvN: will do    31 centers at a time, making    1 passes.
 Calling FoFCou, ICntrl=  3107 FMM=F I1Cent=   0 AccDes= 0.00D+00.
 NEqPCM:  Using equilibrium solvation (IEInf=0, Eps=   2.3741, EpsInf=   2.2383)
 G2PCM: DoFxE=T DoFxN=T DoGrad=T DoDP/DQ/DG/TGxP=FFFF NFrqRd=   0 IEInf=0 SqF1=F DoCFld=F IF1Alg=4.
 End of G2Drv F.D. properties file   721 does not exist.
 End of G2Drv F.D. properties file   722 does not exist.
 End of G2Drv F.D. properties file   788 does not exist.
          IDoAtm=111111111111111111111111111111
 NEqPCM:  Using equilibrium solvation (IEInf=0, Eps=   2.3741, EpsInf=   2.2383)
          Differentiating once with respect to electric field.
                with respect to dipole field.
          Differentiating once with respect to nuclear coordinates.
 Keep R1 ints in memory in canonical form, NReq=2151801606.
          There are    93 degrees of freedom in the 1st order CPHF.  IDoFFX=6 NUNeed=     3.
     90 vectors produced by pass  0 Test12= 1.74D-14 1.08D-09 XBig12= 1.05D+02 5.09D+00.
 AX will form    90 AO Fock derivatives at one time.
     90 vectors produced by pass  1 Test12= 1.74D-14 1.08D-09 XBig12= 8.23D+00 3.58D-01.
     90 vectors produced by pass  2 Test12= 1.74D-14 1.08D-09 XBig12= 1.81D-01 7.10D-02.
     90 vectors produced by pass  3 Test12= 1.74D-14 1.08D-09 XBig12= 2.94D-03 6.37D-03.
     90 vectors produced by pass  4 Test12= 1.74D-14 1.08D-09 XBig12= 2.80D-05 4.46D-04.
     90 vectors produced by pass  5 Test12= 1.74D-14 1.08D-09 XBig12= 1.55D-07 2.80D-05.
     83 vectors produced by pass  6 Test12= 1.74D-14 1.08D-09 XBig12= 7.56D-10 2.38D-06.
     22 vectors produced by pass  7 Test12= 1.74D-14 1.08D-09 XBig12= 3.44D-12 1.47D-07.
      3 vectors produced by pass  8 Test12= 1.74D-14 1.08D-09 XBig12= 1.47D-14 1.15D-08.
 InvSVY:  IOpt=1 It=  1 EMax= 7.11D-15
 Solved reduced A of dimension   648 with    93 vectors.
 Isotropic polarizability for W=    0.000000      184.25 Bohr**3.
 End of Minotr F.D. properties file   721 does not exist.
 End of Minotr F.D. properties file   722 does not exist.
 End of Minotr F.D. properties file   788 does not exist.

 **********************************************************************

            Population analysis using the SCF Density.

 **********************************************************************

 Orbital symmetries:
       Occupied  (A) (A) (A) (A) (A) (A) (A) (A) (A) (A) (A) (A)
                 (A) (A) (A) (A) (A) (A) (A) (A) (A) (A) (A) (A)
                 (A) (A) (A) (A) (A) (A) (A) (A) (A) (A) (A) (A)
                 (A) (A) (A) (A) (A) (A) (A) (A) (A) (A) (A) (A)
                 (A) (A) (A) (A) (A) (A) (A) (A) (A) (A) (A) (A)
                 (A) (A) (A) (A) (A) (A) (A) (A) (A)
       Virtual   (A) (A) (A) (A) (A) (A) (A) (A) (A) (A) (A) (A)
                 (A) (A) (A) (A) (A) (A) (A) (A) (A) (A) (A) (A)
                 (A) (A) (A) (A) (A) (A) (A) (A) (A) (A) (A) (A)
                 (A) (A) (A) (A) (A) (A) (A) (A) (A) (A) (A) (A)
                 (A) (A) (A) (A) (A) (A) (A) (A) (A) (A) (A) (A)
                 (A) (A) (A) (A) (A) (A) (A) (A) (A) (A) (A) (A)
                 (A) (A) (A) (A) (A) (A) (A) (A) (A) (A) (A) (A)
                 (A) (A) (A) (A) (A) (A) (A) (A) (A) (A) (A) (A)
                 (A) (A) (A) (A) (A) (A) (A) (A) (A) (A) (A) (A)
                 (A) (A) (A) (A) (A) (A) (A) (A) (A) (A) (A) (A)
                 (A) (A) (A) (A) (A) (A) (A) (A) (A) (A) (A) (A)
                 (A) (A) (A) (A) (A) (A) (A) (A) (A) (A) (A) (A)
                 (A) (A) (A) (A) (A) (A) (A) (A) (A) (A) (A) (A)
                 (A) (A) (A) (A) (A) (A) (A) (A) (A) (A) (A) (A)
                 (A) (A) (A) (A) (A) (A) (A) (A) (A) (A) (A) (A)
                 (A) (A) (A) (A) (A) (A) (A) (A) (A) (A) (A) (A)
                 (A) (A) (A) (A) (A) (A) (A) (A) (A) (A) (A) (A)
                 (A) (A) (A) (A) (A) (A) (A) (A) (A) (A) (A) (A)
                 (A) (A) (A) (A) (A) (A) (A) (A) (A) (A) (A) (A)
                 (A) (A) (A) (A) (A) (A)
 The electronic state is 1-A.
 Alpha  occ. eigenvalues -- -483.04785 -62.63004 -56.43768 -56.43420 -56.43406
 Alpha  occ. eigenvalues --  -19.20960 -14.47867 -14.45732 -10.38803 -10.38364
 Alpha  occ. eigenvalues --  -10.33229 -10.32139 -10.31340 -10.30154 -10.30110
 Alpha  occ. eigenvalues --  -10.29790 -10.29783 -10.29715 -10.27648  -8.79954
 Alpha  occ. eigenvalues --   -6.62483  -6.61215  -6.61161  -2.72853  -2.72503
 Alpha  occ. eigenvalues --   -2.72460  -2.71449  -2.71449  -1.11372  -1.01256
 Alpha  occ. eigenvalues --   -1.00013  -0.95255  -0.91156  -0.86406  -0.83516
 Alpha  occ. eigenvalues --   -0.80887  -0.78679  -0.77157  -0.70537  -0.68885
 Alpha  occ. eigenvalues --   -0.67614  -0.65516  -0.62060  -0.61068  -0.57572
 Alpha  occ. eigenvalues --   -0.56101  -0.55344  -0.54619  -0.53138  -0.52658
 Alpha  occ. eigenvalues --   -0.52079  -0.51269  -0.50127  -0.49336  -0.47283
 Alpha  occ. eigenvalues --   -0.47065  -0.46397  -0.45494  -0.45388  -0.43311
 Alpha  occ. eigenvalues --   -0.42609  -0.42032  -0.36308  -0.35493  -0.34891
 Alpha  occ. eigenvalues --   -0.33312  -0.32761  -0.32415  -0.25609
 Alpha virt. eigenvalues --    0.03936   0.05959   0.07250   0.08661   0.13568
 Alpha virt. eigenvalues --    0.14816   0.15748   0.17416   0.17706   0.18014
 Alpha virt. eigenvalues --    0.18936   0.20124   0.20235   0.21062   0.21762
 Alpha virt. eigenvalues --    0.22363   0.22976   0.24165   0.24785   0.25513
 Alpha virt. eigenvalues --    0.26063   0.28422   0.29337   0.33168   0.34097
 Alpha virt. eigenvalues --    0.35436   0.37072   0.37572   0.39261   0.41635
 Alpha virt. eigenvalues --    0.41857   0.43053   0.44470   0.46091   0.47122
 Alpha virt. eigenvalues --    0.49090   0.49747   0.49998   0.50343   0.53132
 Alpha virt. eigenvalues --    0.53405   0.54171   0.54777   0.55733   0.57217
 Alpha virt. eigenvalues --    0.57505   0.57762   0.58880   0.59385   0.59873
 Alpha virt. eigenvalues --    0.60791   0.62805   0.63858   0.64952   0.65109
 Alpha virt. eigenvalues --    0.65716   0.66396   0.67079   0.69356   0.69904
 Alpha virt. eigenvalues --    0.70425   0.71492   0.72587   0.72950   0.73469
 Alpha virt. eigenvalues --    0.73728   0.73890   0.74039   0.75067   0.75865
 Alpha virt. eigenvalues --    0.76046   0.76332   0.77006   0.77800   0.78134
 Alpha virt. eigenvalues --    0.78762   0.80267   0.81395   0.82634   0.82703
 Alpha virt. eigenvalues --    0.83625   0.83679   0.85192   0.86481   0.86940
 Alpha virt. eigenvalues --    0.87412   0.88840   0.90716   0.92134   0.93313
 Alpha virt. eigenvalues --    0.95421   0.96700   0.98422   1.00424   1.00910
 Alpha virt. eigenvalues --    1.03312   1.05026   1.07057   1.08056   1.13298
 Alpha virt. eigenvalues --    1.13905   1.15941   1.17630   1.19995   1.21670
 Alpha virt. eigenvalues --    1.23391   1.27865   1.29337   1.29752   1.30976
 Alpha virt. eigenvalues --    1.33163   1.33532   1.35547   1.36456   1.37290
 Alpha virt. eigenvalues --    1.38813   1.39978   1.41969   1.42785   1.45949
 Alpha virt. eigenvalues --    1.48879   1.52519   1.55628   1.57704   1.59918
 Alpha virt. eigenvalues --    1.61639   1.61690   1.62763   1.67607   1.70298
 Alpha virt. eigenvalues --    1.70857   1.74719   1.75089   1.78117   1.78984
 Alpha virt. eigenvalues --    1.80674   1.82141   1.83050   1.84350   1.84609
 Alpha virt. eigenvalues --    1.84849   1.85508   1.86471   1.86511   1.87362
 Alpha virt. eigenvalues --    1.88357   1.88806   1.89997   1.91361   1.92796
 Alpha virt. eigenvalues --    1.93107   1.95069   1.95445   1.97322   2.00462
 Alpha virt. eigenvalues --    2.03154   2.03681   2.04567   2.05272   2.05600
 Alpha virt. eigenvalues --    2.07508   2.08440   2.09503   2.12288   2.13006
 Alpha virt. eigenvalues --    2.15405   2.16610   2.17077   2.18917   2.21743
 Alpha virt. eigenvalues --    2.23173   2.23489   2.24825   2.25751   2.27199
 Alpha virt. eigenvalues --    2.27421   2.30796   2.33488   2.36947   2.38582
 Alpha virt. eigenvalues --    2.39667   2.39937   2.40230   2.43005   2.43556
 Alpha virt. eigenvalues --    2.44719   2.48650   2.51136   2.52230   2.52603
 Alpha virt. eigenvalues --    2.58151   2.61866   2.65189   2.66347   2.68171
 Alpha virt. eigenvalues --    2.69879   2.71949   2.72818   2.73971   2.74685
 Alpha virt. eigenvalues --    2.75106   2.77046   2.81012   2.81355   2.81943
 Alpha virt. eigenvalues --    2.83606   2.87315   2.89840   2.96436   2.96748
 Alpha virt. eigenvalues --    2.97203   2.97713   3.02255   3.02990   3.06491
 Alpha virt. eigenvalues --    3.07983   3.08578   3.08794   3.17751   3.21682
 Alpha virt. eigenvalues --    3.24909   3.26323   3.26875   3.34477   3.40291
 Alpha virt. eigenvalues --    3.49238   3.55549   3.58229   3.65174   3.68528
 Alpha virt. eigenvalues --    3.70950   3.72929   3.77861   3.92916
          Condensed to atoms (all electrons):
               1          2          3          4          5          6
     1  C    5.728498   0.241800  -0.129222   0.464754  -0.002471  -0.001231
     2  C    0.241800   4.612038   0.689766  -0.045775  -0.001028   0.000132
     3  O   -0.129222   0.689766   7.821718   0.007437   0.000066   0.000006
     4  C    0.464754  -0.045775   0.007437   4.968810  -0.022259   0.002387
     5  C   -0.002471  -0.001028   0.000066  -0.022259   4.492250   0.403395
     6  H   -0.001231   0.000132   0.000006   0.002387   0.403395   0.613846
     7  H   -0.000714  -0.000070  -0.000042   0.000064   0.403818  -0.024393
     8  H    0.019184   0.000383   0.001042  -0.011221   0.400971  -0.022949
     9  N   -0.060276  -0.008081  -0.016168   0.074469   0.328488  -0.018401
    10  H    0.004350   0.000331   0.000142  -0.006297  -0.020633  -0.003925
    11  H   -0.015153   0.000525   0.054990  -0.009612  -0.017749  -0.008183
    12  H   -0.017167   0.008183   0.000328   0.390458   0.001214  -0.000063
    13  Br  -0.076513  -0.003950  -0.001986   0.254804   0.002758  -0.000221
    14  C    0.340913  -0.025879   0.002225  -0.041433  -0.000325   0.000064
    15  C   -0.121334  -0.008645  -0.000221   0.007705  -0.000333   0.000049
    16  C    0.015542  -0.000528  -0.000003  -0.000075  -0.000130  -0.000000
    17  C   -0.000851   0.000058  -0.000000   0.000078  -0.000002  -0.000001
    18  C    0.013952  -0.000169   0.000001   0.000291   0.000010   0.000000
    19  C   -0.092813   0.006490  -0.000098  -0.012800  -0.000060   0.000014
    20  H   -0.024671   0.006800  -0.000565   0.000138  -0.000088   0.000004
    21  H   -0.000301   0.000003   0.000000  -0.000001  -0.000001   0.000000
    22  H    0.000019  -0.000000   0.000000   0.000000   0.000000  -0.000000
    23  H   -0.000303   0.000001  -0.000000  -0.000011   0.000000  -0.000000
    24  H   -0.017151  -0.000080  -0.000002   0.003539   0.000006   0.000001
    25  N   -0.147024   0.386803  -0.099386   0.004919  -0.000004   0.000002
    26  C    0.009424  -0.032836  -0.008657  -0.000265   0.000001   0.000000
    27  H   -0.015619  -0.001383   0.003350   0.000024   0.000001  -0.000000
    28  H    0.003616  -0.009182   0.026728  -0.000044  -0.000004  -0.000000
    29  H   -0.000058   0.004968   0.000372  -0.000011  -0.000001  -0.000000
    30  H   -0.000345   0.000758   0.000149   0.000059   0.000000   0.000000
               7          8          9         10         11         12
     1  C   -0.000714   0.019184  -0.060276   0.004350  -0.015153  -0.017167
     2  C   -0.000070   0.000383  -0.008081   0.000331   0.000525   0.008183
     3  O   -0.000042   0.001042  -0.016168   0.000142   0.054990   0.000328
     4  C    0.000064  -0.011221   0.074469  -0.006297  -0.009612   0.390458
     5  C    0.403818   0.400971   0.328488  -0.020633  -0.017749   0.001214
     6  H   -0.024393  -0.022949  -0.018401  -0.003925  -0.008183  -0.000063
     7  H    0.608299  -0.017557  -0.025247  -0.007530   0.005911   0.001499
     8  H   -0.017557   0.592625  -0.030228   0.007317  -0.002275  -0.000545
     9  N   -0.025247  -0.030228   6.384402   0.342028   0.330415  -0.011338
    10  H   -0.007530   0.007317   0.342028   0.532624  -0.012470  -0.000695
    11  H    0.005911  -0.002275   0.330415  -0.012470   0.498550   0.002272
    12  H    0.001499  -0.000545  -0.011338  -0.000695   0.002272   0.582008
    13  Br   0.000033   0.000536  -0.066621   0.008492   0.003824  -0.035550
    14  C    0.000210   0.001468   0.000836  -0.000092  -0.000665  -0.010940
    15  C    0.000004   0.000793   0.000346  -0.000017  -0.000013   0.000095
    16  C    0.000004   0.000327  -0.000009   0.000000   0.000002  -0.000056
    17  C    0.000000   0.000018  -0.000001   0.000000  -0.000000  -0.000024
    18  C    0.000003  -0.000101   0.000014  -0.000001   0.000001   0.000068
    19  C   -0.000054  -0.000354   0.000382  -0.000013  -0.000055   0.007792
    20  H   -0.000013   0.001050   0.000028   0.000000  -0.000053  -0.000009
    21  H   -0.000000   0.000010   0.000000  -0.000000   0.000000   0.000001
    22  H   -0.000000  -0.000001  -0.000000  -0.000000   0.000000  -0.000001
    23  H    0.000000   0.000000  -0.000000   0.000000  -0.000000   0.000019
    24  H   -0.000012  -0.000031   0.000142  -0.000004  -0.000009   0.001415
    25  N   -0.000003  -0.000253  -0.000101   0.000004   0.001197  -0.000098
    26  C   -0.000000  -0.000012   0.000004  -0.000000  -0.000018   0.000006
    27  H    0.000000   0.000020   0.000002   0.000000  -0.000064  -0.000022
    28  H    0.000000   0.000006   0.000004  -0.000000  -0.000047  -0.000000
    29  H    0.000000   0.000007  -0.000001   0.000000   0.000005  -0.000000
    30  H   -0.000000  -0.000001   0.000001  -0.000000  -0.000005  -0.000000
              13         14         15         16         17         18
     1  C   -0.076513   0.340913  -0.121334   0.015542  -0.000851   0.013952
     2  C   -0.003950  -0.025879  -0.008645  -0.000528   0.000058  -0.000169
     3  O   -0.001986   0.002225  -0.000221  -0.000003  -0.000000   0.000001
     4  C    0.254804  -0.041433   0.007705  -0.000075   0.000078   0.000291
     5  C    0.002758  -0.000325  -0.000333  -0.000130  -0.000002   0.000010
     6  H   -0.000221   0.000064   0.000049  -0.000000  -0.000001   0.000000
     7  H    0.000033   0.000210   0.000004   0.000004   0.000000   0.000003
     8  H    0.000536   0.001468   0.000793   0.000327   0.000018  -0.000101
     9  N   -0.066621   0.000836   0.000346  -0.000009  -0.000001   0.000014
    10  H    0.008492  -0.000092  -0.000017   0.000000   0.000000  -0.000001
    11  H    0.003824  -0.000665  -0.000013   0.000002  -0.000000   0.000001
    12  H   -0.035550  -0.010940   0.000095  -0.000056  -0.000024   0.000068
    13  Br  35.013550   0.002845  -0.000117   0.000003  -0.000000  -0.000008
    14  C    0.002845   5.180232   0.306264   0.072722  -0.135259   0.069363
    15  C   -0.000117   0.306264   5.150783   0.330925   0.061160  -0.123845
    16  C    0.000003   0.072722   0.330925   5.021692   0.309864   0.067072
    17  C   -0.000000  -0.135259   0.061160   0.309864   5.087519   0.312316
    18  C   -0.000008   0.069363  -0.123845   0.067072   0.312316   5.023873
    19  C   -0.000309   0.324835   0.040123  -0.123381   0.062051   0.327114
    20  H   -0.000011  -0.065734   0.449926  -0.061203   0.013137  -0.002021
    21  H   -0.000000   0.014156  -0.062502   0.446008  -0.068226   0.012721
    22  H    0.000000  -0.001474   0.012774  -0.064494   0.447465  -0.064333
    23  H   -0.000000   0.013847  -0.001568   0.012495  -0.067276   0.444831
    24  H    0.000359  -0.063681   0.013702  -0.001956   0.012918  -0.060397
    25  N   -0.000476  -0.010938   0.003934  -0.000302   0.000021  -0.000018
    26  C   -0.000040   0.000032  -0.000485  -0.000013  -0.000000  -0.000000
    27  H    0.000032   0.006185   0.004250  -0.000290  -0.000043  -0.000032
    28  H    0.000007  -0.000116  -0.000057  -0.000003   0.000000  -0.000000
    29  H    0.000001   0.000070   0.000163   0.000016  -0.000001  -0.000000
    30  H    0.000000  -0.000012   0.000030  -0.000002   0.000000  -0.000000
              19         20         21         22         23         24
     1  C   -0.092813  -0.024671  -0.000301   0.000019  -0.000303  -0.017151
     2  C    0.006490   0.006800   0.000003  -0.000000   0.000001  -0.000080
     3  O   -0.000098  -0.000565   0.000000   0.000000  -0.000000  -0.000002
     4  C   -0.012800   0.000138  -0.000001   0.000000  -0.000011   0.003539
     5  C   -0.000060  -0.000088  -0.000001   0.000000   0.000000   0.000006
     6  H    0.000014   0.000004   0.000000  -0.000000  -0.000000   0.000001
     7  H   -0.000054  -0.000013  -0.000000  -0.000000   0.000000  -0.000012
     8  H   -0.000354   0.001050   0.000010  -0.000001   0.000000  -0.000031
     9  N    0.000382   0.000028   0.000000  -0.000000  -0.000000   0.000142
    10  H   -0.000013   0.000000  -0.000000  -0.000000   0.000000  -0.000004
    11  H   -0.000055  -0.000053   0.000000   0.000000  -0.000000  -0.000009
    12  H    0.007792  -0.000009   0.000001  -0.000001   0.000019   0.001415
    13  Br  -0.000309  -0.000011  -0.000000   0.000000  -0.000000   0.000359
    14  C    0.324835  -0.065734   0.014156  -0.001474   0.013847  -0.063681
    15  C    0.040123   0.449926  -0.062502   0.012774  -0.001568   0.013702
    16  C   -0.123381  -0.061203   0.446008  -0.064494   0.012495  -0.001956
    17  C    0.062051   0.013137  -0.068226   0.447465  -0.067276   0.012918
    18  C    0.327114  -0.002021   0.012721  -0.064333   0.444831  -0.060397
    19  C    5.119716   0.014218  -0.001681   0.012423  -0.061454   0.445645
    20  H    0.014218   0.660051  -0.011829  -0.000204   0.000024  -0.000166
    21  H   -0.001681  -0.011829   0.659764  -0.010901  -0.000232   0.000025
    22  H    0.012423  -0.000204  -0.010901   0.655966  -0.010896  -0.000207
    23  H   -0.061454   0.000024  -0.000232  -0.010896   0.658115  -0.011785
    24  H    0.445645  -0.000166   0.000025  -0.000207  -0.011785   0.662790
    25  N   -0.000451   0.006943  -0.000015   0.000000  -0.000000  -0.000009
    26  C    0.000027  -0.000318   0.000002   0.000000   0.000000   0.000001
    27  H   -0.000625  -0.001169   0.000003  -0.000001  -0.000002  -0.000011
    28  H    0.000002  -0.000052   0.000000  -0.000000   0.000000  -0.000000
    29  H   -0.000001  -0.000275   0.000000  -0.000000   0.000000  -0.000000
    30  H    0.000001   0.000065  -0.000000   0.000000  -0.000000   0.000000
              25         26         27         28         29         30
     1  C   -0.147024   0.009424  -0.015619   0.003616  -0.000058  -0.000345
     2  C    0.386803  -0.032836  -0.001383  -0.009182   0.004968   0.000758
     3  O   -0.099386  -0.008657   0.003350   0.026728   0.000372   0.000149
     4  C    0.004919  -0.000265   0.000024  -0.000044  -0.000011   0.000059
     5  C   -0.000004   0.000001   0.000001  -0.000004  -0.000001   0.000000
     6  H    0.000002   0.000000  -0.000000  -0.000000  -0.000000   0.000000
     7  H   -0.000003  -0.000000   0.000000   0.000000   0.000000  -0.000000
     8  H   -0.000253  -0.000012   0.000020   0.000006   0.000007  -0.000001
     9  N   -0.000101   0.000004   0.000002   0.000004  -0.000001   0.000001
    10  H    0.000004  -0.000000   0.000000  -0.000000   0.000000  -0.000000
    11  H    0.001197  -0.000018  -0.000064  -0.000047   0.000005  -0.000005
    12  H   -0.000098   0.000006  -0.000022  -0.000000  -0.000000  -0.000000
    13  Br  -0.000476  -0.000040   0.000032   0.000007   0.000001   0.000000
    14  C   -0.010938   0.000032   0.006185  -0.000116   0.000070  -0.000012
    15  C    0.003934  -0.000485   0.004250  -0.000057   0.000163   0.000030
    16  C   -0.000302  -0.000013  -0.000290  -0.000003   0.000016  -0.000002
    17  C    0.000021  -0.000000  -0.000043   0.000000  -0.000001   0.000000
    18  C   -0.000018  -0.000000  -0.000032  -0.000000  -0.000000  -0.000000
    19  C   -0.000451   0.000027  -0.000625   0.000002  -0.000001   0.000001
    20  H    0.006943  -0.000318  -0.001169  -0.000052  -0.000275   0.000065
    21  H   -0.000015   0.000002   0.000003   0.000000   0.000000  -0.000000
    22  H    0.000000   0.000000  -0.000001  -0.000000  -0.000000   0.000000
    23  H   -0.000000   0.000000  -0.000002   0.000000   0.000000  -0.000000
    24  H   -0.000009   0.000001  -0.000011  -0.000000  -0.000000   0.000000
    25  N    6.508468   0.318386   0.354050  -0.027845  -0.030557  -0.029087
    26  C    0.318386   4.477595  -0.024683   0.394138   0.399689   0.409923
    27  H    0.354050  -0.024683   0.524658   0.006013  -0.002865  -0.004015
    28  H   -0.027845   0.394138   0.006013   0.584460  -0.016842  -0.020849
    29  H   -0.030557   0.399689  -0.002865  -0.016842   0.634060  -0.031180
    30  H   -0.029087   0.409923  -0.004015  -0.020849  -0.031180   0.625513
 Mulliken charges:
               1
     1  C   -0.118833
     2  C    0.178567
     3  O   -0.351969
     4  C   -0.030133
     5  C    0.032111
     6  H    0.059465
     7  H    0.055790
     8  H    0.059773
     9  N   -0.225090
    10  H    0.156388
    11  H    0.168680
    12  H    0.081151
    13  Br  -0.101444
    14  C    0.020284
    15  C   -0.063887
    16  C   -0.024228
    17  C   -0.034921
    18  C   -0.020705
    19  C   -0.066685
    20  H    0.015996
    21  H    0.022995
    22  H    0.023865
    23  H    0.024195
    24  H    0.014956
    25  N   -0.238159
    26  C    0.058098
    27  H    0.152235
    28  H    0.060067
    29  H    0.042439
    30  H    0.048996
 Sum of Mulliken charges =  -0.00000
 Mulliken charges with hydrogens summed into heavy atoms:
               1
     1  C   -0.118833
     2  C    0.178567
     3  O   -0.351969
     4  C    0.051018
     5  C    0.207140
     9  N    0.099979
    13  Br  -0.101444
    14  C    0.020284
    15  C   -0.047891
    16  C   -0.001233
    17  C   -0.011056
    18  C    0.003489
    19  C   -0.051728
    25  N   -0.085924
    26  C    0.209601
 APT charges:
               1
     1  C   -1.027918
     2  C    1.423227
     3  O   -0.936236
     4  C    1.484781
     5  C    0.194819
     6  H   -0.031840
     7  H    0.002511
     8  H    0.045387
     9  N   -0.919911
    10  H    0.151052
    11  H    0.292344
    12  H   -0.010534
    13  Br  -0.423504
    14  C    0.333824
    15  C   -0.184925
    16  C    0.042064
    17  C   -0.148688
    18  C    0.040440
    19  C   -0.157246
    20  H    0.050174
    21  H    0.025438
    22  H    0.032522
    23  H    0.025843
    24  H    0.040165
    25  N   -0.894231
    26  C    0.364598
    27  H    0.220981
    28  H    0.064727
    29  H   -0.045372
    30  H   -0.054491
 Sum of APT charges =  -0.00000
 APT charges with hydrogens summed into heavy atoms:
               1
     1  C   -1.027918
     2  C    1.423227
     3  O   -0.936236
     4  C    1.474247
     5  C    0.210877
     9  N   -0.476514
    13  Br  -0.423504
    14  C    0.333824
    15  C   -0.134752
    16  C    0.067502
    17  C   -0.116165
    18  C    0.066283
    19  C   -0.117081
    25  N   -0.673250
    26  C    0.329461
 Electronic spatial extent (au):  <R**2>=           4475.8030
 Charge=             -0.0000 electrons
 Dipole moment (field-independent basis, Debye):
    X=              1.6292    Y=             -1.2362    Z=              2.3369  Tot=              3.1054
 Quadrupole moment (field-independent basis, Debye-Ang):
   XX=           -101.0769   YY=            -93.8227   ZZ=            -94.4589
   XY=              7.1976   XZ=             -5.0647   YZ=             -5.1840
 Traceless Quadrupole moment (field-independent basis, Debye-Ang):
   XX=             -4.6241   YY=              2.6302   ZZ=              1.9939
   XY=              7.1976   XZ=             -5.0647   YZ=             -5.1840
 Octapole moment (field-independent basis, Debye-Ang**2):
  XXX=            -76.5316  YYY=              3.6800  ZZZ=              6.1887  XYY=            -18.3668
  XXY=            -14.9725  XXZ=              5.8935  XZZ=            -45.2274  YZZ=            -12.0630
  YYZ=            -15.3679  XYZ=             17.1619
 Hexadecapole moment (field-independent basis, Debye-Ang**3):
 XXXX=          -2900.6736 YYYY=          -1487.0681 ZZZZ=           -790.6226 XXXY=             61.1152
 XXXZ=             58.1351 YYYX=             94.7383 YYYZ=            -10.7895 ZZZX=             28.8428
 ZZZY=             -7.1386 XXYY=           -776.4900 XXZZ=           -640.0497 YYZZ=           -385.8099
 XXYZ=             17.1208 YYXZ=             -7.3430 ZZXY=             38.4668
 N-N= 1.351915325802D+03 E-N=-1.027925318960D+04  KE= 3.176722780563D+03
  Exact polarizability:     235.107       3.167     170.895      -8.235       9.867     146.743
 Approx polarizability:     213.484       3.839     166.667      -4.950      14.721     150.639
   1 Symmetry operations used in ECPInt.
 ECPInt:  NShTT=   10011 NPrTT=   37668 LenC2=    9556 LenP2D=   25808.
 LDataN:  DoStor=T MaxTD1= 6 Len=  172
 D2PCM: PCM CHGder 2nd derivatives, FixD1E=F FixD2E=F DoIter=F DoCFld=F I1PDM=0
 Calling FoFJK, ICntrl=    100127 FMM=F ISym2X=0 I1Cent= 0 IOpClX= 0 NMat=1 NMatS=1 NMatT=0.
 Full mass-weighted force constant matrix:
 Low frequencies --- -351.7279  -19.5407   -3.5613    0.0078    0.0100    0.0111
 Low frequencies ---    8.9257   39.0227   59.7656
 ******    1 imaginary frequencies (negative Signs) ****** 
 Diagonal vibrational polarizability:
      105.8516237      78.3635798     142.9049752
 Harmonic frequencies (cm**-1), IR intensities (KM/Mole), Raman scattering
 activities (A**4/AMU), depolarization ratios for plane and unpolarized
 incident light, reduced masses (AMU), force constants (mDyne/A),
 and normal coordinates:
                      1                      2                      3
                      A                      A                      A
 Frequencies --   -351.7276                38.7038                59.6229
 Red. masses --      5.4051                 4.1664                 3.8952
 Frc consts  --      0.3940                 0.0037                 0.0082
 IR Inten    --    474.0788                 2.2612                 3.8353
  Atom  AN      X      Y      Z        X      Y      Z        X      Y      Z
     1   6     0.01   0.02   0.08    -0.00   0.02   0.04    -0.02   0.04  -0.13
     2   6     0.02  -0.03   0.05    -0.00   0.02  -0.00    -0.02   0.03  -0.08
     3   8    -0.02  -0.01   0.02    -0.06   0.03  -0.11    -0.04   0.00  -0.11
     4   6    -0.07   0.03   0.44     0.01   0.01   0.04     0.00   0.02  -0.07
     5   6    -0.01   0.00  -0.11    -0.09   0.21   0.08     0.22   0.02  -0.12
     6   1    -0.29  -0.03  -0.19    -0.14   0.30   0.04     0.25  -0.05  -0.09
     7   1    -0.07  -0.01  -0.13    -0.05   0.23   0.19     0.29   0.03  -0.19
     8   1     0.03   0.03   0.07    -0.10   0.21   0.06     0.16   0.09  -0.15
     9   7     0.15   0.09  -0.33    -0.06   0.08   0.03     0.14  -0.00  -0.05
    10   1     0.13   0.03  -0.56    -0.04   0.05   0.04     0.17  -0.03   0.01
    11   1     0.11   0.13  -0.20    -0.11   0.06  -0.05     0.10  -0.01  -0.02
    12   1    -0.03   0.03   0.26     0.03   0.01   0.08     0.03   0.03  -0.09
    13  35    -0.01  -0.01  -0.00     0.02  -0.07  -0.00    -0.05  -0.03   0.04
    14   6    -0.02   0.00  -0.02    -0.00   0.01   0.01    -0.01   0.03  -0.07
    15   6     0.01  -0.00  -0.02     0.00  -0.10   0.10    -0.05  -0.01   0.02
    16   6     0.00  -0.00  -0.02    -0.00  -0.11   0.05    -0.06  -0.05   0.14
    17   6     0.00  -0.01  -0.01    -0.02  -0.01  -0.10    -0.03  -0.06   0.16
    18   6    -0.00  -0.01   0.00    -0.03   0.09  -0.19     0.01  -0.01   0.05
    19   6    -0.01  -0.01   0.00    -0.02   0.10  -0.13     0.02   0.04  -0.06
    20   1     0.00  -0.00  -0.02     0.01  -0.18   0.21    -0.08  -0.01   0.01
    21   1     0.00  -0.00  -0.01     0.00  -0.20   0.13    -0.09  -0.09   0.21
    22   1     0.00  -0.01  -0.01    -0.02  -0.02  -0.14    -0.04  -0.10   0.25
    23   1    -0.01  -0.02   0.01    -0.03   0.17  -0.30     0.03  -0.01   0.06
    24   1    -0.01  -0.02   0.02    -0.03   0.19  -0.20     0.05   0.07  -0.12
    25   7    -0.01  -0.00   0.02     0.08   0.01   0.09     0.01   0.05  -0.01
    26   6    -0.01  -0.01   0.01     0.08   0.01   0.08     0.06   0.05   0.11
    27   1    -0.02  -0.00   0.01     0.13   0.01   0.16     0.05   0.08   0.03
    28   1    -0.02  -0.01   0.00     0.01   0.02  -0.00    -0.11  -0.01  -0.06
    29   1    -0.02   0.01   0.01     0.06   0.00   0.17     0.02  -0.02   0.38
    30   1    -0.01  -0.01   0.01     0.18   0.03   0.04     0.31   0.18   0.07
                      4                      5                      6
                      A                      A                      A
 Frequencies --     64.3905                73.0845                85.8076
 Red. masses --      3.3961                 1.6126                 1.8365
 Frc consts  --      0.0083                 0.0051                 0.0080
 IR Inten    --      1.0611                 0.3176                 0.1547
  Atom  AN      X      Y      Z        X      Y      Z        X      Y      Z
     1   6    -0.00   0.01  -0.02    -0.01  -0.02   0.01    -0.02  -0.02  -0.03
     2   6    -0.02   0.00   0.02     0.01  -0.01  -0.01     0.02  -0.01  -0.01
     3   8    -0.04  -0.03   0.01     0.03   0.01   0.02     0.05   0.03   0.03
     4   6     0.01   0.00  -0.03    -0.02  -0.01   0.01    -0.02  -0.01  -0.01
     5   6     0.01   0.18   0.01    -0.05  -0.05   0.01    -0.01   0.02  -0.02
     6   1    -0.02   0.23  -0.02    -0.04  -0.05   0.01    -0.00   0.03  -0.02
     7   1     0.10   0.21   0.09    -0.10  -0.06   0.01    -0.03   0.01  -0.01
     8   1    -0.04   0.23  -0.03    -0.02  -0.09   0.03    -0.00  -0.00  -0.02
     9   7    -0.02   0.01   0.00    -0.03   0.01   0.00    -0.01   0.03  -0.01
    10   1     0.04  -0.06   0.03    -0.06   0.04  -0.01    -0.02   0.05  -0.00
    11   1    -0.10  -0.01  -0.05     0.01   0.02   0.01     0.01   0.03  -0.02
    12   1     0.01   0.01  -0.01    -0.03  -0.02   0.02    -0.02  -0.01  -0.00
    13  35     0.02  -0.03  -0.03    -0.02  -0.01   0.01    -0.04  -0.03  -0.00
    14   6    -0.00   0.00  -0.02    -0.01  -0.01   0.01    -0.02  -0.01  -0.01
    15   6     0.03   0.08  -0.14    -0.02   0.02  -0.00    -0.04   0.02  -0.01
    16   6     0.03   0.06  -0.15    -0.01   0.07  -0.03    -0.03   0.06  -0.00
    17   6    -0.01  -0.05  -0.03     0.02   0.08  -0.03     0.01   0.07   0.01
    18   6    -0.05  -0.12   0.10     0.03   0.04  -0.00     0.03   0.03   0.01
    19   6    -0.04  -0.10   0.10     0.01  -0.01   0.02     0.02  -0.01   0.01
    20   1     0.07   0.15  -0.23    -0.04   0.01   0.00    -0.06   0.02  -0.02
    21   1     0.06   0.12  -0.25    -0.02   0.10  -0.04    -0.05   0.09  -0.00
    22   1    -0.02  -0.06  -0.03     0.03   0.12  -0.05     0.02   0.11   0.01
    23   1    -0.09  -0.20   0.19     0.04   0.04  -0.00     0.06   0.04   0.02
    24   1    -0.06  -0.16   0.18     0.02  -0.04   0.03     0.04  -0.04   0.01
    25   7    -0.01   0.04   0.09    -0.00  -0.04  -0.07     0.04  -0.03  -0.02
    26   6     0.01   0.04   0.21     0.13  -0.02   0.01     0.15  -0.02   0.08
    27   1     0.02   0.08   0.10     0.02  -0.07  -0.02    -0.01  -0.05  -0.08
    28   1    -0.09  -0.03   0.13    -0.20  -0.04  -0.33     0.53   0.05   0.45
    29   1    -0.02  -0.02   0.39     0.05  -0.16   0.51     0.34  -0.08  -0.37
    30   1     0.15   0.15   0.21     0.63   0.14  -0.10    -0.29   0.00   0.25
                      7                      8                      9
                      A                      A                      A
 Frequencies --     94.1437               100.3613               142.1296
 Red. masses --      3.6953                 7.8769                 2.5481
 Frc consts  --      0.0193                 0.0467                 0.0303
 IR Inten    --      0.8341                 6.4591                 8.2451
  Atom  AN      X      Y      Z        X      Y      Z        X      Y      Z
     1   6     0.01  -0.10  -0.01    -0.02   0.07  -0.01    -0.03   0.02   0.09
     2   6     0.01  -0.10   0.03     0.02   0.07   0.11    -0.01   0.03   0.05
     3   8     0.04  -0.12   0.08     0.23   0.10   0.44    -0.04   0.07  -0.01
     4   6    -0.02  -0.07  -0.02     0.02   0.04  -0.02    -0.03   0.01   0.03
     5   6     0.05   0.26  -0.03     0.04   0.11  -0.01     0.13   0.01  -0.08
     6   1    -0.04   0.30  -0.07     0.04   0.12  -0.02     0.09  -0.27   0.02
     7   1     0.30   0.32   0.07     0.11   0.13   0.00     0.46   0.07  -0.33
     8   1    -0.07   0.43  -0.09    -0.00   0.16  -0.05    -0.06   0.35  -0.05
     9   7     0.01  -0.07  -0.05     0.01   0.04   0.01     0.00  -0.11   0.03
    10   1     0.13  -0.23   0.01     0.03   0.01   0.05     0.11  -0.26   0.08
    11   1    -0.18  -0.12  -0.10    -0.01   0.03   0.01    -0.17  -0.15   0.12
    12   1    -0.07  -0.09  -0.07     0.07   0.05  -0.01    -0.01   0.02   0.01
    13  35    -0.04   0.07  -0.00     0.03  -0.08  -0.06     0.01  -0.01  -0.03
    14   6     0.01  -0.07   0.00    -0.03   0.07  -0.04    -0.04   0.00   0.09
    15   6    -0.03  -0.06   0.04    -0.02  -0.00   0.01    -0.02   0.00   0.06
    16   6    -0.01   0.02   0.05    -0.05  -0.10   0.07    -0.02   0.02  -0.02
    17   6     0.06   0.07   0.00    -0.09  -0.11   0.07    -0.04   0.04  -0.06
    18   6     0.10   0.04  -0.03    -0.09  -0.01  -0.02    -0.08   0.02   0.01
    19   6     0.08  -0.03  -0.02    -0.06   0.08  -0.08    -0.08  -0.00   0.08
    20   1    -0.08  -0.09   0.07     0.00  -0.00   0.02     0.00  -0.00   0.07
    21   1    -0.04   0.03   0.08    -0.04  -0.17   0.13     0.01   0.03  -0.07
    22   1     0.08   0.13  -0.00    -0.11  -0.20   0.13    -0.04   0.06  -0.13
    23   1     0.15   0.08  -0.05    -0.12  -0.01  -0.03    -0.10   0.02  -0.01
    24   1     0.11  -0.05  -0.04    -0.07   0.15  -0.13    -0.10  -0.00   0.11
    25   7    -0.04  -0.09  -0.01    -0.16   0.04  -0.18     0.06  -0.02   0.06
    26   6    -0.06  -0.10  -0.01    -0.01   0.06  -0.06     0.10  -0.01  -0.10
    27   1    -0.05  -0.08  -0.04    -0.29  -0.01  -0.32     0.05  -0.09   0.08
    28   1    -0.11  -0.12  -0.06    -0.07   0.06  -0.13     0.09   0.10  -0.13
    29   1    -0.09  -0.08   0.05     0.01  -0.06   0.10     0.10   0.00  -0.14
    30   1    -0.01  -0.10  -0.03     0.15   0.18  -0.06     0.12  -0.10  -0.15
                     10                     11                     12
                      A                      A                      A
 Frequencies --    160.9405               163.1855               202.5863
 Red. masses --      2.3580                 3.3126                 1.7148
 Frc consts  --      0.0360                 0.0520                 0.0415
 IR Inten    --      2.9288                11.1105                 7.3019
  Atom  AN      X      Y      Z        X      Y      Z        X      Y      Z
     1   6    -0.03  -0.04   0.04     0.01   0.00  -0.01     0.01  -0.01  -0.03
     2   6    -0.05  -0.04  -0.01     0.09   0.02   0.08     0.03  -0.00  -0.03
     3   8    -0.05  -0.03  -0.01     0.08   0.03   0.06     0.04  -0.01  -0.00
     4   6    -0.04  -0.03   0.06    -0.03   0.03  -0.06    -0.02   0.02   0.01
     5   6     0.14  -0.00  -0.02     0.04   0.01  -0.06     0.01  -0.02  -0.00
     6   1     0.42   0.31  -0.08     0.24   0.28  -0.12    -0.09  -0.51   0.16
     7   1    -0.19  -0.06   0.19    -0.24  -0.04   0.14     0.26  -0.00  -0.46
     8   1     0.26  -0.37  -0.27     0.15  -0.30  -0.25    -0.10   0.33   0.24
     9   7     0.06   0.11   0.09     0.01   0.09  -0.01    -0.01   0.14   0.06
    10   1    -0.02   0.26   0.22    -0.05   0.19   0.06    -0.06   0.22   0.07
    11   1     0.20   0.15   0.04     0.11   0.11  -0.04     0.09   0.17   0.06
    12   1    -0.06  -0.03   0.10    -0.04   0.02  -0.06    -0.05   0.01   0.09
    13  35     0.04   0.02  -0.04    -0.07  -0.04  -0.02    -0.01  -0.01  -0.02
    14   6    -0.04  -0.03   0.05     0.01  -0.03   0.01     0.00  -0.05   0.02
    15   6    -0.04  -0.03   0.05     0.01  -0.02   0.01    -0.01  -0.06   0.04
    16   6    -0.04   0.00   0.01     0.02   0.02  -0.01     0.01  -0.01   0.00
    17   6    -0.03   0.03  -0.03     0.04   0.04  -0.02     0.03   0.03  -0.04
    18   6    -0.03   0.02  -0.01     0.04   0.00   0.01     0.03  -0.01  -0.01
    19   6    -0.04  -0.02   0.03     0.03  -0.04   0.03     0.02  -0.05   0.03
    20   1    -0.05  -0.05   0.07     0.00  -0.02   0.01    -0.02  -0.07   0.06
    21   1    -0.03   0.00   0.00     0.01   0.05  -0.02    -0.00  -0.00   0.00
    22   1    -0.02   0.06  -0.07     0.05   0.07  -0.05     0.04   0.08  -0.09
    23   1    -0.03   0.03  -0.03     0.05   0.00   0.02     0.05   0.01  -0.03
    24   1    -0.05  -0.02   0.04     0.04  -0.06   0.04     0.02  -0.07   0.04
    25   7    -0.06  -0.05  -0.04     0.16   0.04   0.20    -0.01   0.02  -0.03
    26   6    -0.00  -0.05   0.05    -0.08   0.02  -0.09    -0.08   0.01   0.05
    27   1    -0.05  -0.05  -0.01     0.12   0.05   0.15     0.01   0.07  -0.03
    28   1     0.03  -0.05   0.08    -0.23   0.03  -0.25    -0.09  -0.08   0.06
    29   1     0.03  -0.10   0.04    -0.22   0.22  -0.03    -0.10   0.04   0.09
    30   1    -0.02   0.02   0.08     0.02  -0.21  -0.23    -0.09   0.05   0.08
                     13                     14                     15
                      A                      A                      A
 Frequencies --    226.2264               261.1416               269.5672
 Red. masses --      4.2709                 4.8977                 4.2085
 Frc consts  --      0.1288                 0.1968                 0.1802
 IR Inten    --      2.0640                 8.5549                25.1174
  Atom  AN      X      Y      Z        X      Y      Z        X      Y      Z
     1   6    -0.05  -0.05  -0.07    -0.03   0.02  -0.12     0.01   0.03  -0.01
     2   6     0.01  -0.06   0.03     0.08   0.05  -0.08     0.01   0.03  -0.01
     3   8     0.01  -0.04   0.04     0.12   0.06  -0.02    -0.00   0.01  -0.02
     4   6    -0.02  -0.05   0.05     0.01   0.00  -0.04    -0.00   0.03   0.06
     5   6     0.00  -0.01   0.12    -0.04   0.01   0.01     0.05  -0.01   0.33
     6   1    -0.14  -0.26   0.18    -0.11   0.20  -0.08    -0.26   0.05   0.22
     7   1     0.13  -0.00  -0.08    -0.11   0.01   0.23     0.06   0.00   0.47
     8   1    -0.03   0.17   0.31     0.02  -0.10  -0.00     0.12   0.01   0.53
     9   7     0.05   0.06   0.07     0.05  -0.10  -0.10     0.24  -0.10   0.05
    10   1     0.00   0.13   0.07     0.07  -0.16  -0.16     0.23  -0.10  -0.02
    11   1     0.12   0.08   0.05    -0.03  -0.12  -0.09     0.19  -0.11   0.07
    12   1    -0.02  -0.05   0.07     0.06   0.02  -0.06    -0.01   0.03  -0.05
    13  35     0.05   0.02  -0.01     0.08   0.00   0.04    -0.07   0.00  -0.08
    14   6    -0.07   0.01  -0.16    -0.10  -0.12  -0.00     0.00  -0.01   0.01
    15   6    -0.14   0.08  -0.15    -0.19  -0.12   0.09     0.01  -0.03   0.03
    16   6    -0.15   0.07   0.00    -0.16   0.02   0.02     0.02  -0.01   0.01
    17   6    -0.10   0.01   0.11    -0.09   0.13  -0.09     0.03   0.01  -0.03
    18   6    -0.02   0.01   0.00    -0.05  -0.02   0.01     0.01  -0.00   0.00
    19   6    -0.03   0.02  -0.15    -0.09  -0.16   0.07     0.01  -0.02   0.03
    20   1    -0.21   0.10  -0.22    -0.27  -0.18   0.13     0.01  -0.04   0.05
    21   1    -0.19   0.09   0.04    -0.19   0.06   0.03     0.01  -0.01   0.01
    22   1    -0.11  -0.03   0.27    -0.05   0.29  -0.20     0.03   0.04  -0.06
    23   1     0.05  -0.01   0.06     0.02  -0.00   0.01     0.01  -0.00  -0.00
    24   1     0.01   0.01  -0.19    -0.07  -0.23   0.10     0.01  -0.04   0.04
    25   7     0.12  -0.07   0.17     0.07   0.10  -0.03    -0.01   0.04  -0.03
    26   6     0.03  -0.08  -0.06    -0.08   0.08   0.03     0.01   0.05  -0.01
    27   1     0.03  -0.10   0.07     0.07   0.17  -0.07     0.00   0.05  -0.02
    28   1    -0.04  -0.01  -0.14    -0.11  -0.05   0.02     0.03   0.05   0.01
    29   1    -0.04   0.03  -0.07    -0.14   0.17   0.08     0.03   0.03  -0.01
    30   1     0.08  -0.25  -0.15    -0.11   0.09   0.05     0.00   0.07   0.01
                     16                     17                     18
                      A                      A                      A
 Frequencies --    314.6125               334.5817               419.1122
 Red. masses --      3.5881                 4.1448                 7.0610
 Frc consts  --      0.2093                 0.2734                 0.7308
 IR Inten    --     51.5099                 2.9719                14.7901
  Atom  AN      X      Y      Z        X      Y      Z        X      Y      Z
     1   6    -0.00  -0.02   0.10    -0.03   0.03  -0.01    -0.10   0.01   0.06
     2   6     0.09   0.02  -0.05    -0.11   0.07   0.06    -0.16   0.06   0.08
     3   8     0.10   0.11  -0.08    -0.14  -0.01   0.06    -0.10   0.48   0.01
     4   6    -0.07   0.03   0.21    -0.04   0.04   0.07     0.00  -0.08  -0.14
     5   6     0.04  -0.02  -0.01     0.00  -0.01  -0.01    -0.00   0.01   0.02
     6   1     0.22   0.12  -0.02     0.10   0.02  -0.00    -0.15  -0.03  -0.00
     7   1     0.02  -0.01   0.07    -0.01  -0.01  -0.01     0.01   0.01   0.01
     8   1    -0.02  -0.08  -0.25    -0.01  -0.04  -0.10     0.03   0.05   0.15
     9   7    -0.12  -0.11   0.13    -0.06  -0.01   0.06     0.09   0.01  -0.09
    10   1     0.01  -0.30   0.12    -0.01  -0.08   0.04    -0.00   0.17   0.00
    11   1    -0.31  -0.15   0.26    -0.12  -0.02   0.11     0.17   0.04  -0.11
    12   1    -0.09   0.03   0.23    -0.02   0.05   0.07     0.05  -0.07  -0.23
    13  35    -0.01  -0.00  -0.02     0.02   0.00   0.00     0.02   0.00   0.01
    14   6    -0.00  -0.04  -0.05    -0.02  -0.11  -0.11    -0.05  -0.03  -0.04
    15   6    -0.01   0.01  -0.09    -0.05  -0.12  -0.08     0.00  -0.06  -0.08
    16   6    -0.01   0.01   0.00    -0.02  -0.04   0.01     0.02  -0.05  -0.00
    17   6     0.02  -0.02   0.07     0.11   0.02   0.00     0.11  -0.02   0.00
    18   6     0.06   0.01  -0.02     0.16  -0.04  -0.01     0.11  -0.00  -0.01
    19   6     0.04  -0.00  -0.09     0.10  -0.15  -0.05     0.06  -0.06   0.01
    20   1    -0.05   0.03  -0.12    -0.11  -0.15  -0.07     0.03  -0.04  -0.09
    21   1    -0.05   0.03   0.03    -0.11   0.00   0.09    -0.05  -0.02   0.05
    22   1     0.01  -0.06   0.17     0.14   0.09   0.04     0.12   0.01   0.03
    23   1     0.10   0.02  -0.02     0.23  -0.03   0.01     0.10   0.01  -0.03
    24   1     0.07  -0.02  -0.10     0.18  -0.27  -0.04     0.13  -0.16   0.01
    25   7     0.07   0.03  -0.09    -0.13   0.11   0.07    -0.02  -0.15   0.02
    26   6    -0.09  -0.01   0.08     0.10   0.18  -0.09    -0.09  -0.20   0.08
    27   1     0.13   0.12  -0.06    -0.12   0.03   0.11    -0.08  -0.21  -0.01
    28   1    -0.12  -0.23   0.09     0.15   0.46  -0.09    -0.14  -0.32   0.05
    29   1    -0.17   0.08   0.16     0.22   0.03  -0.19    -0.15  -0.14   0.15
    30   1    -0.16   0.08   0.14     0.18   0.12  -0.14    -0.09  -0.17   0.09
                     19                     20                     21
                      A                      A                      A
 Frequencies --    425.1681               475.3827               519.4591
 Red. masses --      2.8941                 3.7600                 3.4120
 Frc consts  --      0.3082                 0.5006                 0.5425
 IR Inten    --      3.6078                33.7082                39.9302
  Atom  AN      X      Y      Z        X      Y      Z        X      Y      Z
     1   6    -0.01   0.00  -0.03     0.09  -0.04   0.27    -0.12  -0.09  -0.13
     2   6    -0.00  -0.01  -0.02     0.10   0.01   0.11    -0.06  -0.01  -0.11
     3   8     0.01  -0.03   0.00    -0.00  -0.01  -0.05     0.03   0.03   0.02
     4   6    -0.01   0.01   0.00     0.06  -0.04  -0.12    -0.10  -0.13   0.03
     5   6    -0.00  -0.00   0.00    -0.00   0.01  -0.01     0.00   0.00   0.00
     6   1    -0.00   0.00  -0.00    -0.07  -0.04  -0.01    -0.04   0.02  -0.02
     7   1    -0.01  -0.00   0.01     0.04   0.02  -0.03     0.02   0.01   0.03
     8   1    -0.00  -0.01  -0.00     0.00   0.06   0.07    -0.00   0.02   0.02
     9   7    -0.00  -0.00   0.00     0.05   0.02  -0.06     0.01  -0.03  -0.02
    10   1     0.01  -0.02  -0.01    -0.07   0.23   0.09    -0.04   0.08   0.09
    11   1    -0.01  -0.01   0.01     0.23   0.05  -0.19     0.09  -0.01  -0.06
    12   1    -0.01   0.01   0.03     0.05  -0.04  -0.25    -0.10  -0.13   0.12
    13  35     0.00  -0.00   0.00    -0.01  -0.00   0.00     0.01   0.01   0.00
    14   6    -0.00   0.02   0.01    -0.00  -0.16   0.11    -0.06  -0.09   0.20
    15   6     0.04   0.14  -0.15    -0.04   0.02  -0.06     0.01  -0.00   0.03
    16   6    -0.02  -0.13   0.16    -0.05   0.07  -0.03     0.04   0.03  -0.11
    17   6    -0.00  -0.00  -0.01    -0.08  -0.04   0.12     0.04  -0.12   0.10
    18   6     0.01   0.13  -0.15    -0.00   0.05  -0.09     0.03   0.06  -0.07
    19   6    -0.04  -0.11   0.18    -0.03  -0.06  -0.05     0.04   0.06   0.04
    20   1     0.08   0.30  -0.35    -0.10   0.09  -0.18     0.12   0.17  -0.15
    21   1    -0.05  -0.27   0.34    -0.05   0.14  -0.12     0.08   0.20  -0.33
    22   1    -0.00   0.00  -0.03    -0.09  -0.09   0.23     0.03  -0.15   0.14
    23   1     0.03   0.28  -0.36     0.10   0.16  -0.21    -0.00   0.20  -0.28
    24   1    -0.08  -0.25   0.35    -0.01   0.00  -0.13     0.07   0.23  -0.15
    25   7     0.02  -0.00   0.01    -0.06   0.05  -0.07     0.02   0.06   0.06
    26   6     0.01  -0.00  -0.00     0.00   0.08  -0.01     0.01   0.10  -0.00
    27   1    -0.07  -0.00  -0.10     0.29   0.09   0.36    -0.28   0.07  -0.35
    28   1    -0.00  -0.00  -0.01     0.04   0.11   0.03    -0.02   0.15  -0.04
    29   1    -0.00   0.01   0.00     0.05   0.00  -0.03    -0.00   0.11  -0.01
    30   1     0.01  -0.01  -0.01    -0.00   0.13   0.02     0.04   0.04  -0.05
                     22                     23                     24
                      A                      A                      A
 Frequencies --    568.1086               579.8297               628.7847
 Red. masses --      2.3895                 1.4770                 3.8565
 Frc consts  --      0.4544                 0.2926                 0.8984
 IR Inten    --     42.7242                46.7277                28.1240
  Atom  AN      X      Y      Z        X      Y      Z        X      Y      Z
     1   6     0.04   0.12   0.00    -0.04   0.03  -0.10     0.10  -0.02  -0.10
     2   6     0.01   0.03   0.04    -0.01   0.00  -0.00    -0.05  -0.01  -0.00
     3   8    -0.05  -0.06  -0.00     0.01  -0.01   0.03    -0.01   0.09   0.01
     4   6    -0.03   0.23  -0.06    -0.07   0.08  -0.01     0.17  -0.04   0.05
     5   6    -0.00  -0.00   0.01     0.00  -0.00   0.01    -0.00  -0.00  -0.00
     6   1     0.01   0.01   0.01    -0.00   0.01   0.00     0.10  -0.03   0.03
     7   1    -0.06  -0.02   0.01    -0.03  -0.01   0.02    -0.11  -0.03  -0.06
     8   1     0.04  -0.06   0.02     0.02  -0.03   0.02     0.05  -0.10  -0.03
     9   7     0.02   0.03   0.00     0.01   0.01   0.00    -0.01   0.07   0.03
    10   1     0.14  -0.20  -0.20     0.08  -0.12  -0.10     0.21  -0.34  -0.34
    11   1    -0.18  -0.01   0.16    -0.10  -0.01   0.09    -0.32  -0.01   0.18
    12   1    -0.01   0.25  -0.08    -0.05   0.09   0.01     0.11  -0.06   0.17
    13  35     0.01  -0.01   0.00     0.01  -0.00   0.00    -0.02   0.00  -0.01
    14   6    -0.01  -0.08   0.06    -0.04  -0.01   0.04     0.13  -0.01   0.06
    15   6    -0.02  -0.04   0.01    -0.00  -0.01  -0.01    -0.06   0.15   0.13
    16   6    -0.00   0.04  -0.04     0.01  -0.00  -0.03    -0.13   0.01  -0.03
    17   6    -0.01  -0.03   0.06     0.03  -0.03   0.03    -0.14  -0.03  -0.01
    18   6     0.02   0.02  -0.04     0.01   0.04  -0.01     0.07  -0.17  -0.14
    19   6    -0.00  -0.03  -0.01     0.00   0.01   0.03     0.12  -0.04   0.03
    20   1    -0.03   0.04  -0.11     0.05   0.01  -0.01    -0.07   0.20   0.05
    21   1     0.00   0.16  -0.17     0.01   0.05  -0.07     0.02  -0.04  -0.18
    22   1    -0.01  -0.02   0.07     0.03  -0.05   0.03    -0.08   0.15   0.08
    23   1     0.07   0.11  -0.14    -0.01   0.08  -0.08     0.12  -0.10  -0.22
    24   1     0.03   0.03  -0.11     0.03   0.04  -0.02     0.01   0.14   0.01
    25   7     0.04  -0.05   0.00    -0.03  -0.03  -0.04    -0.05  -0.02   0.03
    26   6     0.01  -0.09   0.01    -0.01  -0.05  -0.01    -0.01  -0.01   0.00
    27   1    -0.41  -0.14  -0.53     0.57   0.01   0.73     0.05  -0.01   0.16
    28   1    -0.02  -0.18   0.00     0.02  -0.04   0.02     0.00   0.07  -0.01
    29   1    -0.04  -0.04   0.06     0.01  -0.06  -0.04     0.03  -0.05  -0.02
    30   1    -0.02  -0.08   0.03    -0.03  -0.03   0.01     0.03  -0.03  -0.02
                     25                     26                     27
                      A                      A                      A
 Frequencies --    641.2053               708.6172               723.9980
 Red. masses --      4.6718                 1.9658                 2.7080
 Frc consts  --      1.1317                 0.5816                 0.8363
 IR Inten    --     12.5359                32.0823                41.9579
  Atom  AN      X      Y      Z        X      Y      Z        X      Y      Z
     1   6     0.06  -0.04  -0.12     0.02   0.05  -0.06     0.01   0.07   0.00
     2   6    -0.07  -0.02  -0.04    -0.04   0.02  -0.04    -0.03   0.05  -0.04
     3   8    -0.00   0.08   0.02    -0.02   0.01   0.03    -0.01  -0.03   0.03
     4   6     0.14  -0.08   0.04    -0.04   0.10   0.06     0.18  -0.04   0.05
     5   6    -0.00  -0.00  -0.00    -0.00  -0.00  -0.01    -0.01   0.00  -0.01
     6   1     0.07  -0.03   0.03    -0.07   0.07  -0.06     0.04   0.01  -0.00
     7   1    -0.09  -0.03  -0.05     0.18   0.05   0.10     0.04   0.01  -0.02
     8   1     0.04  -0.07  -0.02    -0.10   0.12  -0.05    -0.04   0.02  -0.06
     9   7    -0.01   0.05   0.03    -0.03  -0.11  -0.02    -0.02  -0.02   0.01
    10   1     0.16  -0.27  -0.26    -0.34   0.46   0.47    -0.09   0.10   0.07
    11   1    -0.24  -0.01   0.13     0.40  -0.00  -0.20     0.10   0.00  -0.11
    12   1     0.08  -0.10   0.18    -0.03   0.10   0.03     0.24  -0.02   0.07
    13  35    -0.02   0.00  -0.01     0.00  -0.00   0.00    -0.02   0.00  -0.01
    14   6     0.08  -0.12  -0.04     0.08  -0.01  -0.01    -0.03   0.08  -0.08
    15   6     0.14  -0.11  -0.02     0.04   0.04   0.06    -0.05  -0.09   0.04
    16   6     0.22   0.14   0.11     0.04   0.06   0.04    -0.02   0.05  -0.15
    17   6    -0.09   0.07   0.10    -0.09   0.01   0.02     0.03  -0.07   0.08
    18   6    -0.14   0.13   0.04     0.01  -0.06  -0.06     0.02   0.12  -0.09
    19   6    -0.19  -0.14  -0.09     0.01  -0.07  -0.03    -0.02  -0.03   0.11
    20   1    -0.04  -0.07  -0.16    -0.03   0.06   0.01    -0.06  -0.32   0.34
    21   1     0.24   0.23  -0.00     0.14   0.03  -0.06    -0.10   0.00  -0.00
    22   1    -0.15  -0.11  -0.14    -0.08   0.03   0.00    -0.02  -0.32   0.42
    23   1     0.08   0.25  -0.03     0.13  -0.02  -0.07    -0.07   0.03   0.00
    24   1    -0.16  -0.08  -0.18    -0.05  -0.02  -0.01    -0.03  -0.28   0.34
    25   7    -0.04  -0.01   0.04    -0.00  -0.01   0.01     0.04  -0.00  -0.01
    26   6    -0.01   0.00   0.00     0.00  -0.04   0.00     0.01  -0.03  -0.00
    27   1    -0.01  -0.00   0.08     0.05  -0.04   0.09     0.03  -0.03  -0.01
    28   1    -0.00   0.09  -0.01    -0.00  -0.04  -0.00    -0.00  -0.11   0.01
    29   1     0.02  -0.03  -0.02    -0.00  -0.03  -0.00    -0.03   0.02   0.02
    30   1     0.03  -0.03  -0.03    -0.00  -0.04  -0.00    -0.03  -0.02   0.02
                     28                     29                     30
                      A                      A                      A
 Frequencies --    732.1405               792.1484               816.1344
 Red. masses --      1.7699                 3.5379                 3.4848
 Frc consts  --      0.5590                 1.3080                 1.3676
 IR Inten    --    141.3689                 9.7542                53.5696
  Atom  AN      X      Y      Z        X      Y      Z        X      Y      Z
     1   6     0.01   0.07  -0.00     0.00  -0.05  -0.11    -0.04  -0.02   0.23
     2   6    -0.02   0.05  -0.02     0.18  -0.05   0.25    -0.15  -0.02  -0.22
     3   8    -0.02  -0.03   0.02    -0.00   0.04  -0.10     0.03  -0.04   0.08
     4   6     0.15  -0.03   0.05    -0.08  -0.03   0.01    -0.10  -0.01  -0.07
     5   6    -0.01   0.00  -0.01     0.00  -0.00   0.01     0.00   0.00   0.01
     6   1     0.03   0.01  -0.00     0.00   0.00   0.00    -0.03  -0.04   0.01
     7   1     0.04   0.01  -0.01     0.02   0.00   0.01    -0.08  -0.02  -0.03
     8   1    -0.04   0.02  -0.05    -0.01   0.01  -0.01     0.05  -0.03   0.07
     9   7    -0.02  -0.02   0.01    -0.02  -0.01   0.01     0.03   0.04  -0.01
    10   1    -0.11   0.12   0.10    -0.04   0.03   0.06     0.15  -0.15  -0.13
    11   1     0.11   0.00  -0.10    -0.00   0.00   0.01    -0.12   0.01   0.07
    12   1     0.23  -0.00   0.06    -0.12  -0.05  -0.10    -0.13  -0.02  -0.13
    13  35    -0.01   0.00  -0.01     0.01  -0.00   0.00     0.01  -0.00   0.00
    14   6    -0.04  -0.01   0.02     0.03   0.14  -0.18     0.03   0.12  -0.15
    15   6    -0.04  -0.04  -0.04    -0.01  -0.04   0.09     0.01  -0.01   0.07
    16   6    -0.05  -0.08   0.03     0.00   0.01  -0.02     0.02   0.02   0.03
    17   6     0.05  -0.01   0.01    -0.01  -0.09   0.10    -0.05  -0.06   0.09
    18   6    -0.01  -0.01   0.09    -0.01   0.03  -0.01     0.03  -0.05  -0.03
    19   6    -0.01   0.02   0.01    -0.01  -0.03   0.09     0.01  -0.06   0.02
    20   1     0.04   0.20  -0.34     0.02  -0.01   0.05    -0.02  -0.02   0.07
    21   1    -0.05   0.21  -0.25     0.08   0.28  -0.40     0.14   0.24  -0.34
    22   1     0.13   0.32  -0.40     0.06   0.24  -0.35     0.04   0.31  -0.36
    23   1     0.00   0.22  -0.23     0.02   0.31  -0.39     0.14   0.20  -0.33
    24   1     0.09   0.23  -0.29    -0.00   0.00   0.06    -0.01  -0.10   0.07
    25   7     0.03  -0.00  -0.02    -0.08  -0.01  -0.02     0.08   0.01   0.01
    26   6     0.00  -0.03  -0.00    -0.01   0.01   0.00     0.01   0.03  -0.00
    27   1     0.07  -0.03   0.05    -0.14   0.03  -0.11     0.13   0.03   0.06
    28   1    -0.00  -0.11   0.01     0.01   0.13  -0.01    -0.00  -0.05   0.00
    29   1    -0.03   0.01   0.02     0.05  -0.06  -0.03    -0.04   0.09   0.02
    30   1    -0.03  -0.01   0.02     0.04   0.02  -0.01    -0.03   0.04   0.01
                     31                     32                     33
                      A                      A                      A
 Frequencies --    842.6231               870.3256               944.1583
 Red. masses --      3.7205                 1.2505                 1.4770
 Frc consts  --      1.5564                 0.5581                 0.7758
 IR Inten    --     17.1585                 1.4581                 2.0520
  Atom  AN      X      Y      Z        X      Y      Z        X      Y      Z
     1   6    -0.13   0.01  -0.06     0.00   0.00  -0.00    -0.01   0.01   0.03
     2   6     0.02   0.15   0.16    -0.00   0.01  -0.00    -0.00  -0.02  -0.01
     3   8    -0.16  -0.07   0.07    -0.00  -0.00   0.00     0.01  -0.00  -0.00
     4   6    -0.04  -0.15   0.00    -0.01  -0.00   0.00    -0.02  -0.01   0.00
     5   6     0.00   0.01   0.00    -0.00  -0.00   0.00     0.00   0.00   0.00
     6   1     0.01  -0.04   0.02     0.00   0.00  -0.00     0.01  -0.01   0.01
     7   1    -0.07  -0.01  -0.05     0.01   0.00   0.00    -0.01  -0.00  -0.01
     8   1     0.04  -0.04   0.03    -0.00   0.00  -0.00     0.00  -0.00  -0.00
     9   7     0.00   0.03   0.01    -0.00  -0.00   0.00    -0.00   0.00   0.00
    10   1     0.07  -0.08  -0.05    -0.00   0.00   0.00     0.01  -0.01  -0.01
    11   1    -0.09   0.00  -0.01     0.00   0.00   0.00    -0.01   0.00  -0.01
    12   1     0.02  -0.15  -0.04     0.00   0.00  -0.00     0.01  -0.00  -0.13
    13  35     0.00   0.00   0.00     0.00   0.00   0.00     0.00  -0.00   0.00
    14   6    -0.02  -0.00   0.01     0.00  -0.00   0.00     0.00   0.05  -0.07
    15   6     0.04   0.04   0.04     0.01   0.05  -0.07    -0.01  -0.06   0.09
    16   6     0.07   0.05   0.05     0.01   0.04  -0.05     0.01   0.02  -0.01
    17   6    -0.05   0.02  -0.01     0.00  -0.00   0.01     0.02   0.06  -0.08
    18   6     0.03  -0.06  -0.05    -0.01  -0.05   0.05     0.01  -0.01  -0.01
    19   6     0.01  -0.04  -0.03    -0.01  -0.05   0.05    -0.02  -0.07   0.08
    20   1     0.04   0.06   0.01    -0.06  -0.33   0.43     0.06   0.33  -0.41
[...]
 .00279380,0.00333827,-0.00281176,0.00734268,0.00781425,0.00494411,-0.0
 9056688,-0.11818748,-0.08613961,-0.00095622,-0.00056393,-0.00058785,-0
 .00016926,-0.00033559,0.00046768,0.00038731,0.00035536,0.00008262,-0.0
 0075325,-0.00123223,0.00249191,0.09754057,0.11716083,0.00110961,0.0026
 9046,-0.00180000,-0.00012993,-0.00039535,0.00038584,-0.00007454,0.0001
 7313,0.00000726,0.00019528,-0.00173442,-0.00015470,0.00003898,-0.00004
 425,0.00003570,-0.00002354,0.00000497,-0.00000031,0.00000701,0.0000229
 0,-0.00002538,-0.00002200,-0.00002402,0.00001589,0.00019248,0.00036856
 ,-0.00042256,0.00003125,-0.00002732,-0.00008384,-0.00003766,0.00000648
 ,0.00009650,0.00074958,0.00033695,-0.00064310,-0.00006142,0.00011779,-
 0.00005751,-0.01330608,-0.00625527,-0.00390066,0.00155129,-0.00504253,
 0.00262828,0.00040484,0.00059193,-0.00032291,-0.00021286,-0.00307589,0
 .00470449,0.00348085,-0.00025178,0.00443053,-0.11020236,-0.08677505,-0
 .13360838,-0.00064466,-0.00038112,-0.00031515,0.00005857,0.00046124,-0
 .00060266,0.00010275,-0.00007483,0.00013189,0.00051450,0.00236176,-0.0
 0233655,0.11621547,0.09674644,0.13197639,0.01420121,-0.00726713,-0.000
 75404,-0.16651739,-0.07907792,0.08369647,-0.05937332,-0.03182062,0.057
 69563,0.00124193,0.00489753,-0.00082252,-0.00098038,-0.00017427,-0.000
 71282,0.00011343,0.00006276,0.00011724,0.00018860,-0.00016668,0.000196
 48,-0.00008725,0.00013596,-0.00011512,-0.00041441,-0.00241519,0.001205
 61,0.00025971,-0.00035853,0.00026644,0.00127877,0.00445262,-0.00263851
 ,0.00053234,0.00051904,-0.00015533,-0.00048398,-0.00024097,-0.00007283
 ,-0.00445596,0.00088875,0.00156153,-0.00166128,0.00239813,-0.00391679,
 0.00167449,0.00025316,-0.00032156,0.00051845,0.00087261,0.00114509,-0.
 00168325,0.00019246,-0.00012842,0.00170008,-0.00154444,-0.00078608,0.0
 0005216,0.00045997,0.00218410,0.00011323,0.00000513,-0.00009364,-0.000
 06651,0.00007050,0.00015211,0.00001475,0.00000324,0.00000835,0.0000050
 1,0.00020368,0.00013098,0.57766222,-0.02349678,-0.05120923,0.01731536,
 -0.07790458,-0.25709794,0.06140883,-0.01533852,0.02334429,0.01294048,0
 .01643499,-0.00047332,-0.00617693,-0.00181000,0.00033031,-0.00086051,0
 .00036853,-0.00004007,0.00048949,0.00016315,-0.00021264,0.00010744,0.0
 0007963,-0.00001415,-0.00052787,-0.00334898,-0.00091339,0.00520152,0.0
 0020089,0.00024222,0.00089351,0.00095222,0.00054846,-0.00103164,-0.001
 68648,-0.00118965,-0.00034012,-0.00299318,0.00032200,-0.00005641,-0.00
 662872,-0.00074117,0.00256948,0.00318193,-0.00088953,-0.00025352,-0.00
 097790,0.00055105,0.00055761,0.00079672,-0.00078568,-0.00050177,0.0002
 5940,0.00023452,0.00040204,0.00071301,-0.00039804,-0.00025256,0.000206
 29,-0.00004338,0.00045269,0.00022608,-0.00004952,0.00018070,0.00010494
 ,0.00003907,-0.00005745,0.00010993,-0.00010966,-0.00005494,-0.00014316
 ,0.00024109,0.00014802,-0.02871805,0.72747655,0.00179598,0.00598895,0.
 01108457,0.08860879,0.07187689,-0.11606367,0.05328271,0.01975657,-0.01
 997852,-0.00133195,-0.00256228,0.00235067,0.00049434,0.00007953,0.0005
 7725,-0.00009390,-0.00006229,-0.00009205,-0.00012797,0.00012993,-0.000
 11816,0.00000440,-0.00008572,0.00001615,0.00040576,0.00107876,-0.00104
 895,-0.00019168,0.00000562,-0.00014702,-0.00053381,-0.00249573,0.00178
 328,-0.00000574,-0.00035138,-0.00066879,0.00007662,0.00041956,0.000225
 89,-0.00032001,-0.00008376,-0.00102334,-0.00157268,0.00017252,-0.00123
 851,0.00048026,0.00051728,-0.00014441,-0.00013803,0.00010907,0.0002564
 1,-0.00022489,0.00013705,-0.00002171,-0.00005853,-0.00025849,0.0002313
 4,-0.00003573,0.00038597,0.00097052,-0.00001355,0.00002305,-0.00009541
 ,-0.00006537,0.00002022,0.00010008,-0.00001493,0.00006133,-0.00000767,
 0.00009973,0.00008355,-0.00006695,-0.37757394,-0.01275222,0.35588203,-
 0.00027011,-0.00434696,0.00416511,0.01199417,-0.01440782,-0.01072445,-
 0.00282682,-0.00128796,0.00033540,0.00250275,0.00022364,-0.00040242,-0
 .00022726,0.00004992,-0.00014377,0.00005189,-0.00000567,0.00007422,0.0
 0002733,-0.00002528,0.00001947,0.00001499,-0.00000939,-0.00006623,-0.0
 0056374,-0.00017549,0.00088743,0.00002526,0.00004692,0.00012372,0.0001
 1696,0.00006911,-0.00021667,-0.00010389,-0.00017449,-0.00041596,-0.000
 66929,0.00005373,-0.00000226,-0.00102442,0.00012452,0.00006114,0.00013
 483,0.00032530,0.00003086,0.00012664,-0.00010572,-0.00011193,0.0001646
 4,0.00007881,0.00012525,-0.00025175,0.00000096,-0.00003239,0.00039379,
 -0.00039190,-0.00028253,-0.00001705,0.00007247,-0.00004343,-0.00000713
 ,0.00001078,0.00000515,0.00001457,0.00000042,-0.00000610,0.00001024,-0
 .00002054,-0.00000926,-0.00000987,0.00001617,0.00001154,-0.10195328,0.
 02841335,0.02970806,0.60234982,-0.00036140,0.00585777,0.00028513,-0.01
 106346,-0.03989554,0.01052801,0.00851881,-0.00152645,-0.00731625,-0.00
 338093,-0.00173379,0.00234632,0.00051358,-0.00008477,0.00033156,-0.000
 10781,0.00000091,-0.00016836,-0.00006424,0.00007905,-0.00004902,-0.000
 01668,-0.00005079,0.00016419,0.00108169,0.00057245,-0.00179381,-0.0000
 7837,-0.00006270,-0.00025523,-0.00035276,-0.00067484,0.00055192,0.0000
 8912,0.00004266,-0.00006146,0.00066997,0.00006825,-0.00005233,0.000639
 47,0.00030226,-0.00048586,-0.00072902,0.00029645,-0.00061932,0.0007016
 1,-0.00006045,-0.00006536,-0.00019868,0.00040041,0.00035480,-0.0004254
 1,-0.00004709,-0.00009784,0.00010523,-0.00016994,-0.00031687,0.0002429
 7,0.00001410,0.00073801,-0.00009772,0.00001430,-0.00009315,-0.00007264
 ,0.00003446,0.00004671,-0.00004665,0.00004904,0.00003657,0.00005871,-0
 .00003230,-0.00000334,0.03414640,-0.25927603,-0.01208920,0.02252953,0.
 53116779,0.00440797,0.00088637,0.00338344,-0.01411806,0.01174857,0.006
 11140,0.00166609,-0.00176736,-0.00375972,-0.00044892,0.00127010,0.0009
 5937,0.00009220,-0.00000814,0.00005470,-0.00001160,0.00000875,-0.00003
 420,-0.00001050,0.00001524,-0.00001130,0.00000187,-0.00001335,0.000020
 09,-0.00008107,-0.00009110,-0.00005113,-0.00003339,0.00002748,0.000031
 94,-0.00008959,-0.00020595,0.00014940,0.00035538,0.00021456,-0.0004916
 7,-0.00030449,-0.00002192,-0.00003878,0.00039554,-0.00025187,-0.000177
 89,-0.00034188,-0.00003242,-0.00002065,0.00004673,-0.00008729,-0.00003
 112,-0.00005979,0.00007327,0.00007198,-0.00006491,-0.00000954,-0.00002
 528,-0.00007049,0.00005603,-0.00001076,0.00002915,0.00010494,-0.000074
 16,-0.00003106,0.00002467,-0.00003472,-0.00000347,-0.00000125,0.000000
 02,-0.00001104,0.00000061,0.00000242,0.00001291,-0.00002387,-0.0000239
 3,0.03024550,-0.00534989,-0.08180417,-0.01977851,-0.01453681,0.5900395
 5,-0.00022186,0.00313718,-0.00197510,-0.01570741,0.00606125,0.00727655
 ,0.00209244,-0.00298948,0.00414671,-0.00189612,-0.00064552,0.00110635,
 0.00028750,-0.00007025,0.00008754,-0.00007111,0.00000471,-0.00005545,-
 0.00000608,0.00003625,-0.00000614,-0.00002470,-0.00000500,0.00006302,0
 .00049069,-0.00002218,-0.00094525,-0.00000240,-0.00008974,-0.00010634,
 0.00005856,0.00031753,-0.00006949,0.00005289,0.00003543,0.00012374,0.0
 0030469,-0.00002067,-0.00012346,0.00196403,0.00072480,-0.00025612,-0.0
 0066159,0.00030637,-0.00030966,-0.00054250,0.00011864,0.00014262,-0.00
 024259,-0.00018626,-0.00019938,0.00035844,-0.00005150,0.00001058,-0.00
 036373,0.00032822,0.00021105,-0.00006567,0.00014747,-0.00046025,-0.000
 02440,0.00002249,-0.00002318,0.00001394,-0.00002590,-0.00001477,-0.000
 00611,-0.00001294,-0.00000139,-0.00000533,-0.00007942,-0.00007652,-0.2
 7166453,0.09195770,0.20231927,0.00086482,-0.00143597,-0.00199455,0.284
 05564,-0.00042572,-0.00215670,-0.00003300,-0.01750017,0.01773547,0.012
 88684,-0.00539011,-0.00449860,0.00448448,-0.00014222,0.00001377,-0.000
 08096,-0.00002547,-0.00004350,-0.00009731,0.00000486,0.00001506,-0.000
 01379,0.00001424,-0.00002327,0.00002761,-0.00002868,0.00003532,0.00002
 448,0.00022394,-0.00019565,-0.00014937,0.00003532,-0.00004646,-0.00005
 656,0.00009745,0.00066050,-0.00034497,-0.00001037,0.00001729,0.0000626
 9,0.00015466,-0.00001056,0.00000935,-0.00023023,-0.00187609,0.00095650
 ,0.00134969,-0.00048523,0.00112349,0.00017895,-0.00010413,-0.00007127,
 -0.00004596,0.00013525,0.00015090,-0.00019100,-0.00007101,-0.00005828,
 0.00033554,-0.00032779,-0.00053486,0.00005398,-0.00005831,-0.00007828,
 -0.00007999,-0.00000982,-0.00002532,-0.00003083,0.00003244,-0.00002083
 ,-0.00003097,0.00003148,0.00002049,0.00000102,0.00002306,0.00004334,0.
 09469085,-0.10845157,-0.06940362,0.02349200,-0.00443189,-0.01902351,-0
 .09673889,0.10922986,-0.00091156,0.00044000,-0.00102181,0.00458139,-0.
 00811790,-0.01045346,0.00349286,0.00234413,0.00472976,0.00037639,-0.00
 033701,-0.00013857,0.00004079,0.00002129,0.00002053,-0.00000266,-0.000
 00220,0.00000687,-0.00001107,-0.00000458,-0.00000887,0.00000068,0.0000
 1000,-0.00001180,-0.00019713,-0.00006791,0.00002089,-0.00000870,-0.000
 01148,0.00006510,0.00015324,0.00002734,0.00013565,-0.00013591,-0.00005
 804,0.00013715,-0.00018932,0.00004680,-0.00010869,0.00034810,0.0004129
 2,-0.00002585,0.00027691,0.00031604,0.00050969,-0.00094882,0.00015176,
 0.00029297,-0.00007968,-0.00055637,-0.00057765,0.00083980,-0.00011089,
 -0.00000852,-0.00051322,0.00053664,0.00023413,-0.00025742,0.00005671,-
 0.00110652,0.00002208,0.00000907,0.00004701,0.00005782,-0.00005823,-0.
 00004745,0.00003119,-0.00005511,-0.00001280,-0.00005538,-0.00012281,-0
 .00005760,0.20504271,-0.06706734,-0.16449781,-0.00345342,0.00147355,0.
 00011379,-0.20827493,0.06986329,0.17136661,-0.00011876,0.00058907,0.00
 024429,-0.00064155,-0.00174994,0.00144458,-0.00062212,-0.00237339,-0.0
 0063586,-0.00032341,-0.00010679,0.00021315,0.00008160,-0.00001143,0.00
 004834,-0.00000588,0.00000424,-0.00002704,-0.00001609,0.00000333,-0.00
 000887,-0.00001400,0.00000900,0.00002327,0.00007789,0.00004023,-0.0002
 1131,-0.00001404,-0.00000865,-0.00000664,-0.00001765,-0.00008057,0.000
 08848,0.00001694,0.00000930,-0.00001408,0.00002431,0.00000175,-0.00001
 578,0.00014644,0.00008133,-0.00004348,-0.00005029,0.00005902,0.0000063
 1,0.00003661,-0.00002223,-0.00002245,-0.00001678,0.00002149,0.00001482
 ,-0.00001560,-0.00001224,0.00000097,-0.00003248,0.00002017,-0.00003158
 ,-0.00000858,0.00000047,0.00003842,-0.00001040,-0.00000057,0.00000027,
 -0.00000393,-0.00000076,0.00000066,-0.00000574,0.00000243,0.00000416,0
 .00000520,-0.00000696,-0.00000606,-0.00527250,0.00493023,0.00335893,-0
 .19236417,0.02778343,0.13975477,0.00084891,0.00052656,-0.00003524,0.20
 226868,-0.00043249,0.00040071,0.00047965,0.00524840,0.00030116,-0.0039
 2194,-0.00271376,0.00103056,0.00224253,-0.00011397,0.00000155,-0.00001
 183,0.00004801,0.00001627,0.00007141,-0.00000350,-0.00000905,-0.000012
 83,-0.00001507,0.00001630,-0.00001587,0.00001123,-0.00000709,-0.000002
 41,-0.00003000,0.00015748,-0.00008346,-0.00003397,0.00002291,0.0000186
 0,-0.00011646,-0.00031108,0.00029485,0.00002894,0.00002834,-0.00001731
 ,0.00000449,0.00004166,0.00001444,0.00022896,0.00010991,-0.00000910,-0
 .00003363,-0.00010981,0.00001402,-0.00007976,0.00001863,0.00005060,-0.
 00004186,-0.00004474,-0.00005483,0.00008751,0.00000420,0.00002576,-0.0
 0016925,0.00012695,0.00007702,0.00000411,0.00001234,-0.00005344,-0.000
 00147,0.00000088,-0.00000104,-0.00000044,-0.00000061,-0.00000338,-0.00
 000491,0.00000330,0.00000179,0.00000489,-0.00000357,-0.00001215,0.0293
 2226,-0.01014266,-0.02711466,0.01891020,-0.05131397,-0.01744236,-0.000
 83470,-0.00596709,0.00029167,-0.03197247,0.06166306,0.00001191,-0.0002
 5670,-0.00003785,0.00253740,0.00145996,-0.00008205,-0.00094271,0.00219
 220,-0.00091237,0.00023012,0.00007339,-0.00005754,-0.00000346,0.000000
 38,-0.00000366,0.00000576,0.00000602,-0.00000475,-0.00000209,-0.000008
 02,-0.00000299,-0.00000467,0.00000453,0.00000142,-0.00005002,-0.000001
 93,0.00005473,0.00000103,0.00000876,0.00001256,-0.00000597,0.00001003,
 0.00001328,-0.00002127,-0.00000647,0.00000479,-0.00006522,-0.00000149,
 -0.00002393,-0.00005066,-0.00008594,0.00005604,-0.00000774,0.00001238,
 0.00000316,-0.00000748,-0.00000127,-0.00001746,0.00000967,-0.00000558,
 -0.00000077,0.00000186,0.00000639,-0.00000695,0.00001081,-0.00000150,0
 .00001131,-0.00001974,-0.00000120,0.00000058,0.00000302,-0.00000031,0.
 00000433,0.00000258,-0.00000284,0.00000049,0.00000256,-0.00000155,-0.0
 0000256,-0.00000263,-0.00000236,0.00000208,0.00056302,-0.00347850,-0.0
 0061532,0.14005404,-0.02623924,-0.18556539,-0.00065920,0.00019702,0.00
 021593,-0.15174212,0.02758883,0.19325690,-0.00034622,-0.00027074,-0.00
 053394,-0.00138228,0.00177711,0.00063559,0.00073524,-0.00170524,0.0000
 7940,0.00019286,0.00006867,-0.00020084,-0.00006389,0.00000958,-0.00004
 410,0.00000808,-0.00000124,0.00002406,0.00001221,-0.00000609,0.0000079
 4,0.00000556,0.00000205,-0.00001858,-0.00006266,-0.00004447,0.00018061
 ,0.00001601,0.00001287,0.00000315,0.00001678,0.00006847,-0.00009123,-0
 .00001090,-0.00000256,0.00003998,0.00003512,-0.00001945,0.00003203,0.0
 0005194,0.00000868,-0.00002282,0.00008439,-0.00016377,0.00012821,-0.00
 010884,0.00001772,0.00003355,0.00000643,-0.00005327,-0.00005900,0.0000
 7343,-0.00000148,0.00002160,-0.00002411,0.00005342,0.00004991,0.000014
 67,-0.00003876,-0.00013466,0.00001345,-0.00000327,0.00001101,0.0000076
 1,-0.00000117,-0.00000759,0.00000413,-0.00000438,-0.00000178,-0.000007
 58,0.00000721,0.00000405,0.01332150,0.00615240,0.00374102,-0.24136953,
 -0.10641227,-0.06408747,0.00029822,-0.00056683,0.00041604,-0.01364656,
 -0.00886223,-0.00946316,0.24920056,-0.00018407,-0.00240643,0.00140343,
 0.00430065,0.00131036,-0.00767430,-0.00172965,0.00078191,0.00113423,0.
 00170146,0.00036038,-0.00067953,-0.00022037,0.00003985,-0.00010942,0.0
 0004228,-0.00000579,0.00006388,0.00002371,-0.00002280,0.00001622,0.000
 01166,0.00000058,-0.00006876,-0.00041545,-0.00016256,0.00069458,0.0000
 2072,0.00002893,0.00010573,0.00010876,0.00012748,-0.00015142,-0.000075
 53,-0.00007724,-0.00011854,-0.00037030,0.00001868,0.00002551,-0.000777
 39,0.00004004,0.00014894,0.00030039,0.00001499,-0.00006325,-0.00009862
 ,0.00005445,0.00001626,0.00012474,-0.00007449,-0.00003835,-0.00000448,
 0.00003301,0.00003437,0.00014794,-0.00010324,-0.00001351,-0.00008394,-
 0.00003747,-0.00001518,0.00004383,-0.00001355,0.00002769,0.00001315,0.
 00000156,-0.00000499,0.00001555,-0.00001162,-0.00000669,-0.00001241,0.
 00003517,0.00001373,-0.02926798,-0.03139009,-0.00410172,-0.10126974,-0
 .10265835,-0.03429580,0.00017799,0.00059542,0.00039737,0.00446644,0.00
 237521,0.00251155,0.11392827,0.12497928,0.00008203,-0.00029326,0.00017
 049,0.00231761,0.00132134,-0.00176795,-0.00095964,0.00152089,0.0001153
 3,0.00017911,0.00010365,-0.00013342,-0.00001074,0.00000664,0.00000131,
 0.00000931,0.00000144,0.00000020,-0.00000338,-0.00000622,-0.00000166,-
 0.00000240,0.00000922,-0.00000100,-0.00006822,-0.00002240,0.00007129,-
 0.00000574,0.00000560,0.00002438,0.00001314,-0.00001079,0.00003261,0.0
 0000055,0.00000718,0.00000441,-0.00005131,0.00000951,0.00000596,-0.000
 03906,-0.00001306,0.00003872,0.00004599,0.00003509,0.00006747,-0.00002
 636,-0.00001494,-0.00001655,0.00002713,-0.00001880,-0.00002196,0.00001
 434,0.00000105,-0.00000222,-0.00000092,0.00000100,-0.00001153,-0.00001
 377,-0.00000624,-0.00005698,0.00000182,-0.00000329,0.00001876,0.000005
 31,-0.00000482,-0.00000371,0.00000140,-0.00000417,-0.00000047,-0.00000
 717,-0.00000364,0.00000434,0.00066632,-0.00409652,0.00233418,-0.064892
 16,-0.03473990,-0.07136876,-0.00030315,-0.00034435,-0.00001187,0.01697
 962,0.01117166,0.00921514,0.06990623,0.03823181,0.06760871,0.00013813,
 0.00057645,0.00017078,-0.00207832,-0.00188873,0.00158305,0.00055209,-0
 .00030517,-0.00143072,-0.00030905,-0.00007926,0.00025379,0.00005246,-0
 .00001006,0.00003451,-0.00001157,-0.00000015,-0.00001528,-0.00000614,0
 .00000869,-0.00000503,-0.00000141,-0.00000346,0.00001278,0.00007660,0.
 00000484,-0.00016489,-0.00000877,-0.00001095,-0.00001060,-0.00001929,-
 0.00005658,0.00004635,0.00001464,0.00000181,-0.00001436,0.00002418,-0.
 00000017,-0.00001577,0.00019079,-0.00003060,-0.00006304,-0.00006733,-0
 .00005920,-0.00000422,0.00003026,-0.00001443,-0.00000978,-0.00002568,0
 .00002628,0.00002503,-0.00001763,0.00000030,-0.00000844,-0.00001490,0.
 00002242,0.00001679,0.00000337,-0.00001327,0.00000025,0.00000053,-0.00
 000227,-0.00000742,-0.00000569,0.00000406,0.00000048,-0.00000301,0.000
 00728,0.00000170,0.00000400,-0.00000337,-0.00000141,0.00173617,0.00779
 497,-0.00207315,-0.07713439,0.02776349,-0.07546730,-0.00018463,0.00027
 838,-0.00060555,0.00969397,-0.00843906,0.01961436,-0.00707559,0.009082
 39,-0.02386590,0.07444619,-0.00157419,-0.00189750,-0.00077297,0.008845
 49,0.00241376,-0.00256633,-0.00220671,0.00101008,0.00211626,0.00151196
 ,0.00010751,-0.00095981,-0.00018373,0.00003356,-0.00011364,0.00003747,
 -0.00000325,0.00005584,0.00002031,-0.00002722,0.00001507,0.00000783,0.
 00001281,-0.00005592,-0.00036235,-0.00011529,0.00057347,0.00003090,0.0
 0002156,0.00008825,0.00012152,0.00018222,-0.00016514,-0.00016988,-0.00
 008895,0.00013661,-0.00020452,0.00002340,-0.00000817,-0.00048189,0.000
 10742,0.00020143,0.00028666,0.00000662,0.00008741,-0.00016080,0.000036
 78,0.00002936,0.00007899,-0.00010517,-0.00009100,0.00008830,0.00000778
 ,0.00002447,0.00004994,-0.00000118,0.00003323,-0.00008562,-0.00002431,
 -0.00013771,0.00003067,-0.00000812,0.00002740,0.00001892,-0.00000741,-
 0.00000979,0.00001730,-0.00001764,-0.00000814,-0.00002241,0.00001103,0
 .00000961,0.00747673,-0.02990184,0.03051524,0.02780312,-0.07688102,0.0
 7873185,-0.00016764,0.00023276,0.00017129,-0.00220249,0.00157822,-0.00
 397654,-0.00394925,0.00616632,-0.01284369,-0.03465463,0.09712708,-0.00
 024089,0.00035305,-0.00051630,-0.00041649,-0.00162903,0.00011152,0.000
 25644,0.00084671,0.00031648,-0.00039809,-0.00022944,0.00007504,0.00002
 385,-0.00000211,0.00002231,-0.00001030,-0.00000624,-0.00000278,-0.0000
 0096,0.00001111,-0.00000199,0.00000817,-0.00001285,0.00000784,0.000114
 05,0.00010959,-0.00010605,-0.00000637,0.00000256,-0.00003928,-0.000071
 04,-0.00009166,0.00005609,0.00000874,0.00000413,0.00004265,0.00014585,
 0.00000171,0.00002480,0.00008915,0.00004941,-0.00004453,-0.00000621,-0
 .00005668,-0.00002117,0.00003631,0.00000885,0.00001233,-0.00001632,0.0
 0001743,0.00000996,-0.00001014,0.00000204,0.00000432,-0.00001867,0.000
 00354,-0.00000346,0.00002432,-0.00001798,0.00004506,0.00000087,-0.0000
 0541,-0.00000383,-0.00000768,0.00000529,0.00000257,-0.00000501,0.00000
 740,0.00000470,0.00000618,0.00000318,0.00000299,0.00321402,0.00019102,
 0.01182008,-0.07501989,0.08212657,-0.25741447,0.00036687,0.00048581,0.
 00019320,-0.00942053,0.00641379,-0.01551916,-0.00064920,0.00251616,-0.
 00631523,0.08200297,-0.09110796,0.26723633\\-0.00000459,-0.00000704,-0
 .00000104,-0.00000737,0.00000758,0.00000495,0.00000232,-0.00000564,-0.
 00000161,0.00000170,0.00000471,-0.00000296,-0.00000052,-0.00000424,0.0
 0000116,0.00000002,-0.00000105,0.00000142,-0.00000098,0.00000080,-0.00
 000069,0.00000064,0.00000003,0.00000008,-0.00000452,0.00000056,0.00000
 089,0.00000358,0.00000345,0.00000030,-0.00000217,-0.00000329,0.0000001
 5,0.00000078,-0.00000165,-0.00000458,0.00000324,-0.00000073,-0.0000007
 0,0.00000852,-0.00000454,-0.00000231,-0.00000460,0.00000144,0.00000121
 ,-0.00000102,0.00000307,0.00000194,0.00000888,0.00000232,0.00000225,-0
 .00000342,-0.00000539,-0.00000461,-0.00000457,0.00000503,0.00000186,0.
 00000043,-0.00000079,0.00000030,-0.00000115,-0.00000190,-0.00000070,-0
 .00000208,0.00000028,-0.00000011,0.00000067,0.00000164,0.00000003,0.00
 000214,0.00000124,0.00000035,0.00001107,0.00000187,-0.00000904,0.00000
 346,-0.00000300,-0.00000542,-0.00000708,0.00000350,0.00000619,-0.00000
 553,0.00000151,0.00000628,0.00000196,0.00000076,0.00000218,0.00000019,
 -0.00000050,0.00000224\\\@
 The archive entry for this job was punched.


 FIREWORKS ENDED
 AND SPECTATORS GONE AWAY....
 AH, HOW VAST AND DARK
                     SHIKI
 Job cpu time:       0 days  0 hours 50 minutes 47.5 seconds.
 Elapsed time:       0 days  0 hours  4 minutes 16.2 seconds.
 File lengths (MBytes):  RWF=    438 Int=      0 D2E=      0 Chk=     15 Scr=      1
 Normal termination of Gaussian 16 at Sat Dec 30 21:02:43 2023.
