Unloading slurm/anatra/current
  ERROR: No such file or directory on
    '/cm/local/modulefiles/slurm/anatra/current'
environment: line 0: unalias: gv: not found
environment: line 0: unalias: sl: not found
 Entering Gaussian System, Link 0=g16
 Initial command:
 /apps/gaussian/g16/C.01/g16/l1.exe "/local/jobs/1158152/Gau-2731376.inp" -scrdir="/local/jobs/1158152/"
 Entering Link 1 = /apps/gaussian/g16/C.01/g16/l1.exe PID=   2731379.
  
 Copyright (c) 1988-2019, Gaussian, Inc.  All Rights Reserved.
  
 This is part of the Gaussian(R) 16 program.  It is based on
 the Gaussian(R) 09 system (copyright 2009, Gaussian, Inc.),
 the Gaussian(R) 03 system (copyright 2003, Gaussian, Inc.),
 the Gaussian(R) 98 system (copyright 1998, Gaussian, Inc.),
 the Gaussian(R) 94 system (copyright 1995, Gaussian, Inc.),
 the Gaussian 92(TM) system (copyright 1992, Gaussian, Inc.),
 the Gaussian 90(TM) system (copyright 1990, Gaussian, Inc.),
 the Gaussian 88(TM) system (copyright 1988, Gaussian, Inc.),
 the Gaussian 86(TM) system (copyright 1986, Carnegie Mellon
 University), and the Gaussian 82(TM) system (copyright 1983,
 Carnegie Mellon University). Gaussian is a federally registered
 trademark of Gaussian, Inc.
  
 This software contains proprietary and confidential information,
 including trade secrets, belonging to Gaussian, Inc.
  
 This software is provided under written license and may be
 used, copied, transmitted, or stored only in accord with that
 written license.
  
 The following legend is applicable only to US Government
 contracts under FAR:
  
                    RESTRICTED RIGHTS LEGEND
  
 Use, reproduction and disclosure by the US Government is
 subject to restrictions as set forth in subparagraphs (a)
 and (c) of the Commercial Computer Software - Restricted
 Rights clause in FAR 52.227-19.
  
 Gaussian, Inc.
 340 Quinnipiac St., Bldg. 40, Wallingford CT 06492
  
  
 ---------------------------------------------------------------
 Warning -- This program may not be used in any manner that
 competes with the business of Gaussian, Inc. or will provide
 assistance to any competitor of Gaussian, Inc.  The licensee
 of this program is prohibited from giving any competitor of
 Gaussian, Inc. access to this program.  By using this program,
 the user acknowledges that Gaussian, Inc. is engaged in the
 business of creating and licensing software in the field of
 computational chemistry and represents and warrants to the
 licensee that it is not a competitor of Gaussian, Inc. and that
 it will not use this program in any manner prohibited above.
 ---------------------------------------------------------------
  

 Cite this work as:
 Gaussian 16, Revision C.01,
 M. J. Frisch, G. W. Trucks, H. B. Schlegel, G. E. Scuseria, 
 M. A. Robb, J. R. Cheeseman, G. Scalmani, V. Barone, 
 G. A. Petersson, H. Nakatsuji, X. Li, M. Caricato, A. V. Marenich, 
 J. Bloino, B. G. Janesko, R. Gomperts, B. Mennucci, H. P. Hratchian, 
 J. V. Ortiz, A. F. Izmaylov, J. L. Sonnenberg, D. Williams-Young, 
 F. Ding, F. Lipparini, F. Egidi, J. Goings, B. Peng, A. Petrone, 
 T. Henderson, D. Ranasinghe, V. G. Zakrzewski, J. Gao, N. Rega, 
 G. Zheng, W. Liang, M. Hada, M. Ehara, K. Toyota, R. Fukuda, 
 J. Hasegawa, M. Ishida, T. Nakajima, Y. Honda, O. Kitao, H. Nakai, 
 T. Vreven, K. Throssell, J. A. Montgomery, Jr., J. E. Peralta, 
 F. Ogliaro, M. J. Bearpark, J. J. Heyd, E. N. Brothers, K. N. Kudin, 
 V. N. Staroverov, T. A. Keith, R. Kobayashi, J. Normand, 
 K. Raghavachari, A. P. Rendell, J. C. Burant, S. S. Iyengar, 
 J. Tomasi, M. Cossi, J. M. Millam, M. Klene, C. Adamo, R. Cammi, 
 J. W. Ochterski, R. L. Martin, K. Morokuma, O. Farkas, 
 J. B. Foresman, and D. J. Fox, Gaussian, Inc., Wallingford CT, 2019.
 
 ******************************************
 Gaussian 16:  ES64L-G16RevC.01  3-Jul-2019
                18-Jan-2024 
 ******************************************
 %nprocshared=12
 Will use up to   12 processors via shared memory.
 %mem=48GB
 ----------------------------------------------------------------------
 # external="~/scripts/MiMe -H 'pbepbe def2svp' -EF 'wb97xd def2svp' -c
  12 -m 48GB" opt=(calcall,ts,noeigen,maxcycles=50,maxstep=10,nomicro)
 ----------------------------------------------------------------------
 1/5=1,6=50,8=10,10=4,11=1,18=20,26=1,38=1/1,3;
 2/9=110,12=2,17=6,18=5,40=1/2;
 3/11=9,25=1,30=1,41=9900000,43=2,71=2,140=1/1;
 4/20=17,22=2,24=3,113=1,114=1/2;
 6/7=2,8=2,9=2,10=2,18=1/1;
 7/25=1,44=-1/16;
 1/5=1,6=50,8=10,10=4,11=1,18=20,26=1/3(3);
 2/9=110/2;
 7/8=1,9=1,25=1,44=-1/16;
 99//99;
 2/9=110/2;
 3/11=9,25=1,30=1,41=9900000,43=2,71=2,140=1/1;
 4/16=2,20=17,22=2,24=3,113=1,114=1/2;
 7/25=1,44=-1/16;
 1/5=1,6=50,8=10,10=4,11=1,18=20,26=1/3(-4);
 2/9=110/2;
 6/7=2,8=2,9=2,10=2,18=1/1;
 7/8=1,9=1,25=1,44=-1/16;
 99//99;
 -----
 *****
 -----
 Symbolic Z-matrix:
 Charge =  0 Multiplicity = 1
 C                     0.7952   -0.3887   -0.8761 
 C                    -1.5119   -0.557    -0.2726 
 C                     0.2953    1.9111   -0.4892 
 C                    -1.9384    0.8105   -0.17 
 N                     1.1554    0.8132   -0.1629 
 H                    -2.4403    1.2646   -1.0159 
 H                    -0.0681    2.0507   -1.5043 
 H                    -1.7658   -1.191    -1.1121 
 H                     0.1873    2.7498    0.1944 
 H                     0.4382   -0.2881   -1.9022 
 H                    -2.0602    1.2339    0.8204 
 F                    -1.4481   -1.2825    0.863 
 C                     1.3984   -1.7207   -0.5386 
 H                     1.0027   -2.487    -1.2129 
 H                     2.4852   -1.692    -0.6607 
 H                     1.1594   -2.0217    0.4852 
 C                     1.4768    0.6754    1.2476 
 H                     1.7665    1.6392    1.6839 
 H                     0.6339    0.2847    1.8294 
 H                     2.335     0.0097    1.3941 
 
 Add virtual bond connecting atoms C2         and C1         Dist= 4.52D+00.
 Add virtual bond connecting atoms C4         and C3         Dist= 4.74D+00.
 Add virtual bond connecting atoms H6         and H7         Dist= 4.81D+00.
 Add virtual bond connecting atoms H8         and H10        Dist= 4.74D+00.

 GradGradGradGradGradGradGradGradGradGradGradGradGradGradGradGradGradGrad
 Berny optimization.
 Initialization pass.
                           ----------------------------
                           !    Initial Parameters    !
                           ! (Angstroms and Degrees)  !
 --------------------------                            --------------------------
 ! Name  Definition              Value          Derivative Info.                !
 --------------------------------------------------------------------------------
 ! R1    R(1,2)                  2.3907         calculate D2E/DX2 analytically  !
 ! R2    R(1,5)                  1.4432         calculate D2E/DX2 analytically  !
 ! R3    R(1,10)                 1.0911         calculate D2E/DX2 analytically  !
 ! R4    R(1,13)                 1.5007         calculate D2E/DX2 analytically  !
 ! R5    R(2,4)                  1.4361         calculate D2E/DX2 analytically  !
 ! R6    R(2,8)                  1.0822         calculate D2E/DX2 analytically  !
 ! R7    R(2,12)                 1.3491         calculate D2E/DX2 analytically  !
 ! R8    R(3,4)                  2.5105         calculate D2E/DX2 analytically  !
 ! R9    R(3,5)                  1.4324         calculate D2E/DX2 analytically  !
 ! R10   R(3,7)                  1.0872         calculate D2E/DX2 analytically  !
 ! R11   R(3,9)                  1.0874         calculate D2E/DX2 analytically  !
 ! R12   R(4,6)                  1.0834         calculate D2E/DX2 analytically  !
 ! R13   R(4,11)                 1.084          calculate D2E/DX2 analytically  !
 ! R14   R(5,17)                 1.4532         calculate D2E/DX2 analytically  !
 ! R15   R(6,7)                  2.5463         calculate D2E/DX2 analytically  !
 ! R16   R(8,10)                 2.5094         calculate D2E/DX2 analytically  !
 ! R17   R(13,14)                1.0947         calculate D2E/DX2 analytically  !
 ! R18   R(13,15)                1.094          calculate D2E/DX2 analytically  !
 ! R19   R(13,16)                1.0936         calculate D2E/DX2 analytically  !
 ! R20   R(17,18)                1.0969         calculate D2E/DX2 analytically  !
 ! R21   R(17,19)                1.0962         calculate D2E/DX2 analytically  !
 ! R22   R(17,20)                1.096          calculate D2E/DX2 analytically  !
 ! A1    A(2,1,5)              100.0631         calculate D2E/DX2 analytically  !
 ! A2    A(2,1,10)              85.8789         calculate D2E/DX2 analytically  !
 ! A3    A(2,1,13)             105.5837         calculate D2E/DX2 analytically  !
 ! A4    A(5,1,10)             118.0091         calculate D2E/DX2 analytically  !
 ! A5    A(5,1,13)             121.8517         calculate D2E/DX2 analytically  !
 ! A6    A(10,1,13)            115.1422         calculate D2E/DX2 analytically  !
 ! A7    A(1,2,4)              103.7448         calculate D2E/DX2 analytically  !
 ! A8    A(1,2,8)               94.1191         calculate D2E/DX2 analytically  !
 ! A9    A(1,2,12)             101.8128         calculate D2E/DX2 analytically  !
 ! A10   A(4,2,8)              122.9279         calculate D2E/DX2 analytically  !
 ! A11   A(4,2,12)             117.7738         calculate D2E/DX2 analytically  !
 ! A12   A(8,2,12)             110.4275         calculate D2E/DX2 analytically  !
 ! A13   A(4,3,5)               99.7457         calculate D2E/DX2 analytically  !
 ! A14   A(4,3,7)               82.9697         calculate D2E/DX2 analytically  !
 ! A15   A(4,3,9)               99.7783         calculate D2E/DX2 analytically  !
 ! A16   A(5,3,7)              120.7865         calculate D2E/DX2 analytically  !
 ! A17   A(5,3,9)              120.5063         calculate D2E/DX2 analytically  !
 ! A18   A(7,3,9)              117.0486         calculate D2E/DX2 analytically  !
 ! A19   A(2,4,3)               98.2869         calculate D2E/DX2 analytically  !
 ! A20   A(2,4,6)              118.7462         calculate D2E/DX2 analytically  !
 ! A21   A(2,4,11)             118.0718         calculate D2E/DX2 analytically  !
 ! A22   A(3,4,6)               97.4214         calculate D2E/DX2 analytically  !
 ! A23   A(3,4,11)              92.5739         calculate D2E/DX2 analytically  !
 ! A24   A(6,4,11)             119.8434         calculate D2E/DX2 analytically  !
 ! A25   A(1,5,3)              112.079          calculate D2E/DX2 analytically  !
 ! A26   A(1,5,17)             117.1211         calculate D2E/DX2 analytically  !
 ! A27   A(3,5,17)             115.2522         calculate D2E/DX2 analytically  !
 ! A28   A(4,6,7)               81.232          calculate D2E/DX2 analytically  !
 ! A29   A(3,7,6)               95.3172         calculate D2E/DX2 analytically  !
 ! A30   A(2,8,10)              80.0607         calculate D2E/DX2 analytically  !
 ! A31   A(1,10,8)              87.5985         calculate D2E/DX2 analytically  !
 ! A32   A(1,13,14)            109.7242         calculate D2E/DX2 analytically  !
 ! A33   A(1,13,15)            110.5436         calculate D2E/DX2 analytically  !
 ! A34   A(1,13,16)            111.5317         calculate D2E/DX2 analytically  !
 ! A35   A(14,13,15)           107.9802         calculate D2E/DX2 analytically  !
 ! A36   A(14,13,16)           107.7571         calculate D2E/DX2 analytically  !
 ! A37   A(15,13,16)           109.197          calculate D2E/DX2 analytically  !
 ! A38   A(5,17,18)            111.1716         calculate D2E/DX2 analytically  !
 ! A39   A(5,17,19)            112.2648         calculate D2E/DX2 analytically  !
 ! A40   A(5,17,20)            111.1327         calculate D2E/DX2 analytically  !
 ! A41   A(18,17,19)           107.7668         calculate D2E/DX2 analytically  !
 ! A42   A(18,17,20)           105.8861         calculate D2E/DX2 analytically  !
 ! A43   A(19,17,20)           108.3418         calculate D2E/DX2 analytically  !
 ! D1    D(5,1,2,4)             33.7023         calculate D2E/DX2 analytically  !
 ! D2    D(5,1,2,8)            159.0596         calculate D2E/DX2 analytically  !
 ! D3    D(5,1,2,12)           -89.0669         calculate D2E/DX2 analytically  !
 ! D4    D(10,1,2,4)           -84.0338         calculate D2E/DX2 analytically  !
 ! D5    D(10,1,2,8)            41.3235         calculate D2E/DX2 analytically  !
 ! D6    D(10,1,2,12)          153.1971         calculate D2E/DX2 analytically  !
 ! D7    D(13,1,2,4)           160.9971         calculate D2E/DX2 analytically  !
 ! D8    D(13,1,2,8)           -73.6456         calculate D2E/DX2 analytically  !
 ! D9    D(13,1,2,12)           38.2279         calculate D2E/DX2 analytically  !
 ! D10   D(2,1,5,3)            -54.2014         calculate D2E/DX2 analytically  !
 ! D11   D(2,1,5,17)            82.2671         calculate D2E/DX2 analytically  !
 ! D12   D(10,1,5,3)            36.4703         calculate D2E/DX2 analytically  !
 ! D13   D(10,1,5,17)          172.9388         calculate D2E/DX2 analytically  !
 ! D14   D(13,1,5,3)          -169.762          calculate D2E/DX2 analytically  !
 ! D15   D(13,1,5,17)          -33.2935         calculate D2E/DX2 analytically  !
 ! D16   D(2,1,10,8)           -16.5159         calculate D2E/DX2 analytically  !
 ! D17   D(5,1,10,8)          -115.7287         calculate D2E/DX2 analytically  !
 ! D18   D(13,1,10,8)           88.7748         calculate D2E/DX2 analytically  !
 ! D19   D(2,1,13,14)           68.4348         calculate D2E/DX2 analytically  !
 ! D20   D(2,1,13,15)         -172.5816         calculate D2E/DX2 analytically  !
 ! D21   D(2,1,13,16)          -50.8897         calculate D2E/DX2 analytically  !
 ! D22   D(5,1,13,14)         -178.8076         calculate D2E/DX2 analytically  !
 ! D23   D(5,1,13,15)          -59.824          calculate D2E/DX2 analytically  !
 ! D24   D(5,1,13,16)           61.8678         calculate D2E/DX2 analytically  !
 ! D25   D(10,1,13,14)         -24.344          calculate D2E/DX2 analytically  !
 ! D26   D(10,1,13,15)          94.6396         calculate D2E/DX2 analytically  !
 ! D27   D(10,1,13,16)        -143.6685         calculate D2E/DX2 analytically  !
 ! D28   D(1,2,4,3)             -6.061          calculate D2E/DX2 analytically  !
 ! D29   D(1,2,4,6)             97.1637         calculate D2E/DX2 analytically  !
 ! D30   D(1,2,4,11)          -103.4791         calculate D2E/DX2 analytically  !
 ! D31   D(8,2,4,3)           -110.3321         calculate D2E/DX2 analytically  !
 ! D32   D(8,2,4,6)             -7.1074         calculate D2E/DX2 analytically  !
 ! D33   D(8,2,4,11)           152.2498         calculate D2E/DX2 analytically  !
 ! D34   D(12,2,4,3)           105.4705         calculate D2E/DX2 analytically  !
 ! D35   D(12,2,4,6)          -151.3049         calculate D2E/DX2 analytically  !
 ! D36   D(12,2,4,11)            8.0523         calculate D2E/DX2 analytically  !
 ! D37   D(1,2,8,10)           -16.9011         calculate D2E/DX2 analytically  !
 ! D38   D(4,2,8,10)            92.3946         calculate D2E/DX2 analytically  !
 ! D39   D(12,2,8,10)         -121.1326         calculate D2E/DX2 analytically  !
 ! D40   D(5,3,4,2)            -20.024          calculate D2E/DX2 analytically  !
 ! D41   D(5,3,4,6)           -140.6267         calculate D2E/DX2 analytically  !
 ! D42   D(5,3,4,11)            98.8294         calculate D2E/DX2 analytically  !
 ! D43   D(7,3,4,2)            100.1142         calculate D2E/DX2 analytically  !
 ! D44   D(7,3,4,6)            -20.4885         calculate D2E/DX2 analytically  !
 ! D45   D(7,3,4,11)          -141.0324         calculate D2E/DX2 analytically  !
 ! D46   D(9,3,4,2)           -143.5461         calculate D2E/DX2 analytically  !
 ! D47   D(9,3,4,6)             95.8512         calculate D2E/DX2 analytically  !
 ! D48   D(9,3,4,11)           -24.6927         calculate D2E/DX2 analytically  !
 ! D49   D(4,3,5,1)             49.9272         calculate D2E/DX2 analytically  !
 ! D50   D(4,3,5,17)           -87.4015         calculate D2E/DX2 analytically  !
 ! D51   D(7,3,5,1)            -37.6527         calculate D2E/DX2 analytically  !
 ! D52   D(7,3,5,17)          -174.9813         calculate D2E/DX2 analytically  !
 ! D53   D(9,3,5,1)            157.4572         calculate D2E/DX2 analytically  !
 ! D54   D(9,3,5,17)            20.1285         calculate D2E/DX2 analytically  !
 ! D55   D(4,3,7,6)              8.5289         calculate D2E/DX2 analytically  !
 ! D56   D(5,3,7,6)            105.7132         calculate D2E/DX2 analytically  !
 ! D57   D(9,3,7,6)            -88.8927         calculate D2E/DX2 analytically  !
 ! D58   D(2,4,6,7)            -95.0917         calculate D2E/DX2 analytically  !
 ! D59   D(3,4,6,7)              8.6313         calculate D2E/DX2 analytically  !
 ! D60   D(11,4,6,7)           105.9241         calculate D2E/DX2 analytically  !
 ! D61   D(1,5,17,18)          178.1796         calculate D2E/DX2 analytically  !
 ! D62   D(1,5,17,19)          -61.0126         calculate D2E/DX2 analytically  !
 ! D63   D(1,5,17,20)           60.5078         calculate D2E/DX2 analytically  !
 ! D64   D(3,5,17,18)          -46.7049         calculate D2E/DX2 analytically  !
 ! D65   D(3,5,17,19)           74.1029         calculate D2E/DX2 analytically  !
 ! D66   D(3,5,17,20)         -164.3767         calculate D2E/DX2 analytically  !
 ! D67   D(4,6,7,3)            -20.1898         calculate D2E/DX2 analytically  !
 ! D68   D(2,8,10,1)            39.4876         calculate D2E/DX2 analytically  !
 --------------------------------------------------------------------------------
 Trust Radius=1.00D-01 FncErr=1.00D-07 GrdErr=1.00D-07 EigMax=2.50D+02 EigMin=1.00D-04
 Number of steps in this run=     50 maximum allowed number of steps=    120.
 Search for a saddle point of order  1.
 GradGradGradGradGradGradGradGradGradGradGradGradGradGradGradGradGradGrad

                          Input orientation:                          
 ---------------------------------------------------------------------
 Center     Atomic      Atomic             Coordinates (Angstroms)
 Number     Number       Type             X           Y           Z
 ---------------------------------------------------------------------
      1          6           0        0.795200   -0.388700   -0.876100
      2          6           0       -1.511900   -0.557000   -0.272600
      3          6           0        0.295300    1.911100   -0.489200
      4          6           0       -1.938400    0.810500   -0.170000
      5          7           0        1.155400    0.813200   -0.162900
      6          1           0       -2.440300    1.264600   -1.015900
      7          1           0       -0.068100    2.050700   -1.504300
      8          1           0       -1.765800   -1.191000   -1.112100
      9          1           0        0.187300    2.749800    0.194400
     10          1           0        0.438200   -0.288100   -1.902200
     11          1           0       -2.060200    1.233900    0.820400
     12          9           0       -1.448100   -1.282500    0.863000
     13          6           0        1.398400   -1.720700   -0.538600
     14          1           0        1.002700   -2.487000   -1.212900
     15          1           0        2.485200   -1.692000   -0.660700
     16          1           0        1.159400   -2.021700    0.485200
     17          6           0        1.476800    0.675400    1.247600
     18          1           0        1.766500    1.639200    1.683900
     19          1           0        0.633900    0.284700    1.829400
     20          1           0        2.335000    0.009700    1.394100
 ---------------------------------------------------------------------
                    Distance matrix (angstroms):
                    1          2          3          4          5
     1  C    0.000000
     2  C    2.390658   0.000000
     3  C    2.385094   3.066660   0.000000
     4  C    3.067446   1.436136   2.510503   0.000000
     5  N    1.443247   3.000662   1.432351   3.093809   0.000000
     6  H    3.636125   2.175465   2.859875   1.083355   3.722960
     7  H    2.662817   3.225173   1.087187   2.610838   2.197206
     8  H    2.694087   1.082211   3.776131   2.218861   3.667589
     9  H    3.371305   3.747038   1.087378   2.900392   2.194379
    10  H    1.091078   2.555542   2.617913   3.139374   2.180000
    11  H    3.696519   2.168549   2.778854   1.083972   3.388798
    12  F    2.975860   1.349077   3.881619   2.384981   3.496089
    13  C    1.500660   3.145600   3.795951   4.204411   2.573101
    14  H    2.135264   3.306399   4.513030   4.539958   3.466574
    15  H    2.145015   4.173207   4.219882   5.106029   2.879618
    16  H    2.156958   3.139339   4.142830   4.248177   2.908042
    17  C    2.471232   3.572415   2.437082   3.700194   1.453202
    18  H    3.407257   4.404440   2.638318   4.224923   2.113383
    19  H    2.792708   3.119506   2.852321   3.300120   2.126155
    20  H    2.771915   4.230565   3.364895   4.620567   2.112183
                    6          7          8          9         10
     6  H    0.000000
     7  H    2.546335   0.000000
     8  H    2.548367   3.680302   0.000000
     9  H    3.251911   1.854603   4.588186   0.000000
    10  H    3.388535   2.425830   2.509403   3.699665   0.000000
    11  H    1.875478   3.168573   3.114702   2.782281   3.996378
    12  F    3.316993   4.314943   2.002580   4.402386   3.491889
    13  C    4.886251   4.160127   3.259087   4.689288   2.198575
    14  H    5.095838   4.671429   3.058491   5.483561   2.372542
    15  H    5.755710   4.608558   4.304157   5.073571   2.775332
    16  H    5.100089   4.695669   3.434854   4.878192   3.037298
    17  C    4.562265   3.442546   4.423357   2.659920   3.453732
    18  H    5.012625   3.701312   5.320225   2.438425   4.282403
    19  H    4.301935   3.837332   4.072919   2.991554   3.780375
    20  H    5.494212   4.282674   4.953714   3.682396   3.814725
                   11         12         13         14         15
    11  H    0.000000
    12  F    2.590126   0.000000
    13  C    4.747468   3.202977   0.000000
    14  H    5.230752   3.430248   1.094749   0.000000
    15  H    5.604927   4.237948   1.094014   1.770524   0.000000
    16  H    4.590982   2.736459   1.093567   1.767655   1.783125
    17  C    3.606216   3.540668   2.989641   4.034799   3.203601
    18  H    3.943797   4.420844   4.045236   5.099056   4.136493
    19  H    3.029395   2.779347   3.195859   4.132060   3.679029
    20  H    4.598432   4.032827   2.758049   3.847724   2.672180
                   16         17         18         19         20
    16  H    0.000000
    17  C    2.820699   0.000000
    18  H    3.899698   1.096902   0.000000
    19  H    2.720754   1.096183   1.771616   0.000000
    20  H    2.516887   1.095959   1.749985   1.777316   0.000000
 Stoichiometry    C6H12FN
 Framework group  C1[X(C6H12FN)]
 Deg. of freedom    54
 Full point group                 C1      NOp   1
 Largest Abelian subgroup         C1      NOp   1
 Largest concise Abelian subgroup C1      NOp   1
                         Standard orientation:                         
 ---------------------------------------------------------------------
 Center     Atomic      Atomic             Coordinates (Angstroms)
 Number     Number       Type             X           Y           Z
 ---------------------------------------------------------------------
      1          6           0       -0.708768    0.500977   -0.853229
      2          6           0        1.596693    0.384316   -0.231550
      3          6           0       -0.480472   -1.851490   -0.533147
      4          6           0        1.862007   -1.025662   -0.167871
      5          7           0       -1.211478   -0.671790   -0.178794
      6          1           0        2.316107   -1.509572   -1.024189
      7          1           0       -0.126185   -2.002195   -1.549879
      8          1           0        1.929622    1.009185   -1.050011
      9          1           0       -0.476039   -2.716759    0.125398
     10          1           0       -0.356249    0.390055   -1.879815
     11          1           0        1.925108   -1.489182    0.809965
     12          9           0        1.606321    1.078672    0.925077
     13          6           0       -1.157754    1.883160   -0.479115
     14          1           0       -0.670274    2.618186   -1.127632
     15          1           0       -2.239460    1.983574   -0.608326
     16          1           0       -0.895174    2.124398    0.554686
     17          6           0       -1.527907   -0.539326    1.233340
     18          1           0       -1.930627   -1.475683    1.638613
     19          1           0       -0.651057   -0.265685    1.831564
     20          1           0       -2.305107    0.216305    1.394921
 ---------------------------------------------------------------------
 Rotational constants (GHZ):           2.1495626           1.7137595           1.2884224
 Standard basis: STO-3G (5D, 7F)
 There are    52 symmetry adapted cartesian basis functions of A   symmetry.
 There are    52 symmetry adapted basis functions of A   symmetry.
    52 basis functions,   156 primitive gaussians,    52 cartesian basis functions
    32 alpha electrons       32 beta electrons
       nuclear repulsion energy       395.3818641918 Hartrees.
 NAtoms=   20 NActive=   20 NUniq=   20 SFac= 1.00D+00 NAtFMM=   60 NAOKFM=F Big=F
 Integral buffers will be    131072 words long.
 Raffenetti 1 integral format.
 Two-electron integral symmetry is turned on.
 External calculation of energy, first and second derivatives.
 Running external command "~/scripts/MiMe -H 'pbepbe def2svp' -EF 'wb97xd def2svp' -c 12 -m 48GB R"
         input file       "/local/jobs/1158152/Gau-2731379.EIn"
         output file      "/local/jobs/1158152/Gau-2731379.EOu"
         message file     "/local/jobs/1158152/Gau-2731379.EMs"
         fchk file        "/local/jobs/1158152/Gau-2731379.EFC"
         mat. el file     "/local/jobs/1158152/Gau-2731379.EUF"
 Read checkpoint file Gau-2731379_H.chk type G16
 Write formatted file Gau-2731379_H.fchk

deriv: 2

spelevel: wb97xd def2svp
gradlevel: wb97xd def2svp
hesslevel: pbepbe def2svp

runspe: False
runforce: True
runfreq: True

Running Gaussian ...

Parsing files ...
SPE file: Gau-2731379_F.out
FORCE file: Gau-2731379_F.out
HESS file: Gau-2731379_H.out

 ExternalExternalExternalExternalExternalExternalExternalExternalExternalExternal
 Output from external command:
 "~/scripts/MiMe -H 'pbepbe def2svp' -EF 'wb97xd def2svp' -c 12 -m 48GB R /local/jobs/1158152/Gau-2731379.EIn /local/jobs/1158152/Gau-2731379.EOu /local/jobs/1158152/Gau-2731379.EMs /local/jobs/1158152/Gau-2731379.EFC /local/jobs/1158152/Gau-2731379.EUF"
  
 --------------------------------------------------
 Force calculation at wb97xd def2svp
 Hessian calculation at pbepbe def2svp
 ExternalExternalExternalExternalExternalExternalExternalExternalExternalExternal

 Recovered energy= -389.898671614     dipole=     -1.460200000000     -0.441500000000     -0.351600000000
 Energy=    -389.898672     NIter=   0.
 Dipole moment=      -1.460200      -0.441500      -0.351600
 ***** Axes restored to original set *****
 -------------------------------------------------------------------
 Center     Atomic                   Forces (Hartrees/Bohr)
 Number     Number              X              Y              Z
 -------------------------------------------------------------------
      1        6          -0.007705034    0.017772796    0.031531870
      2        6           0.001526143    0.047411992    0.004826981
      3        6           0.012548850   -0.038148715    0.018144280
      4        6           0.038288521   -0.041952067   -0.004743163
      5        7          -0.083321878   -0.000126937   -0.045315267
      6        1          -0.000051173    0.004185501   -0.003614751
      7        1           0.009029800   -0.003967241   -0.002997930
      8        1          -0.001538034   -0.002350445   -0.008870294
      9        1           0.010320365    0.000980586    0.002629191
     10        1           0.006429800    0.011925723   -0.000091129
     11        1          -0.003874826    0.001763602    0.003903493
     12        9           0.006676083   -0.001790772    0.005967221
     13        6           0.001768033    0.013306476   -0.000526167
     14        1          -0.001358546   -0.000569731   -0.001641754
     15        1           0.007908760   -0.004682140    0.000679219
     16        1          -0.000245767   -0.002434596    0.004945284
     17        6           0.008879503    0.000722686    0.004181989
     18        1          -0.000999534    0.003180443   -0.004273414
     19        1          -0.004937397   -0.002506046   -0.001991982
     20        1           0.000656332   -0.002721117   -0.002743676
 -------------------------------------------------------------------
 Cartesian Forces:  Max     0.083321878 RMS     0.017769170
 FormGI is forming the generalized inverse of G from B-inverse, IUseBI=4.

 GradGradGradGradGradGradGradGradGradGradGradGradGradGradGradGradGradGrad
 Berny optimization.
 Internal  Forces:  Max     0.061263096 RMS     0.009196453
 Search for a saddle point.
 Step number   1 out of a maximum of   50
 All quantities printed in internal units (Hartrees-Bohrs-Radians)
 Swapping is turned off.
 Second derivative matrix not updated -- analytic derivatives used.
 ITU=  0
     Eigenvalues ---   -0.02102  -0.00379  -0.00273  -0.00143  -0.00102
     Eigenvalues ---    0.00267   0.00332   0.00500   0.00673   0.00777
     Eigenvalues ---    0.00939   0.01133   0.01283   0.01645   0.02493
     Eigenvalues ---    0.02887   0.03440   0.03754   0.03856   0.03988
     Eigenvalues ---    0.04391   0.04476   0.04762   0.05316   0.05378
     Eigenvalues ---    0.05524   0.06610   0.09138   0.10843   0.10959
     Eigenvalues ---    0.11463   0.12542   0.12945   0.13761   0.15439
     Eigenvalues ---    0.16150   0.26467   0.27301   0.31681   0.32088
     Eigenvalues ---    0.33374   0.33951   0.34860   0.34991   0.35043
     Eigenvalues ---    0.35314   0.35521   0.35755   0.35951   0.36677
     Eigenvalues ---    0.37568   0.37725   0.38311   0.42116
 Eigenvectors required to have negative eigenvalues:
                          R1        R8        D51       D33       D12
   1                   -0.55403  -0.51261  -0.18824  -0.16718   0.15483
                          D35       R16       A29       D31       A14
   1                    0.14829  -0.13313  -0.13051  -0.12258   0.11895
 RFO step:  Lambda0=4.679272520D-03 Lambda=-4.63989045D-02.
 Linear search not attempted -- option 19 set.
 Maximum step size (   0.100) exceeded in Quadratic search.
    -- Step size scaled by   0.204
 Iteration  1 RMS(Cart)=  0.01616709 RMS(Int)=  0.00023093
 Iteration  2 RMS(Cart)=  0.00026877 RMS(Int)=  0.00010461
 Iteration  3 RMS(Cart)=  0.00000006 RMS(Int)=  0.00010461
 Variable       Old X    -DE/DX   Delta X   Delta X   Delta X     New X
                                 (Linear)    (Quad)   (Total)
    R1        4.51769  -0.02000   0.00000   0.02711   0.02708   4.54477
    R2        2.72734  -0.05416   0.00000  -0.04174  -0.04157   2.68577
    R3        2.06184  -0.00138   0.00000  -0.00069  -0.00069   2.06115
    R4        2.83584  -0.00097   0.00000  -0.00136  -0.00136   2.83447
    R5        2.71390  -0.04482   0.00000  -0.03325  -0.03344   2.68046
    R6        2.04508   0.00852   0.00000   0.00351   0.00347   2.04856
    R7        2.54939   0.00630   0.00000   0.00409   0.00409   2.55347
    R8        4.74416  -0.01701   0.00000   0.01866   0.01868   4.76284
    R9        2.70675  -0.06126   0.00000  -0.04146  -0.04129   2.66546
   R10        2.05449  -0.00211   0.00000  -0.00065  -0.00065   2.05384
   R11        2.05485   0.00138   0.00000  -0.00004  -0.00004   2.05481
   R12        2.04724   0.00604   0.00000   0.00249   0.00247   2.04971
   R13        2.04841   0.00469   0.00000   0.00227   0.00227   2.05068
   R14        2.74615  -0.00376   0.00000   0.00337   0.00337   2.74953
   R15        4.81188  -0.00135   0.00000   0.00574   0.00570   4.81758
   R16        4.74208  -0.00273   0.00000   0.02014   0.02015   4.76223
   R17        2.06878   0.00190   0.00000   0.00104   0.00104   2.06982
   R18        2.06739   0.00766   0.00000   0.00396   0.00396   2.07135
   R19        2.06654   0.00535   0.00000   0.00322   0.00322   2.06976
   R20        2.07284   0.00083   0.00000  -0.00031  -0.00031   2.07253
   R21        2.07149   0.00363   0.00000   0.00077   0.00077   2.07226
   R22        2.07106   0.00180   0.00000   0.00038   0.00038   2.07145
    A1        1.74643  -0.00320   0.00000  -0.01832  -0.01819   1.72824
    A2        1.49887   0.00476   0.00000   0.00281   0.00278   1.50165
    A3        1.84278   0.00079   0.00000  -0.00030  -0.00042   1.84236
    A4        2.05965  -0.00690   0.00000  -0.00836  -0.00850   2.05115
    A5        2.12671   0.00153   0.00000   0.00583   0.00580   2.13251
    A6        2.00961   0.00425   0.00000   0.00959   0.00959   2.01920
    A7        1.81069  -0.00324   0.00000  -0.00319  -0.00325   1.80744
    A8        1.64269   0.00229   0.00000  -0.00825  -0.00817   1.63452
    A9        1.77697  -0.00234   0.00000  -0.01951  -0.01946   1.75751
   A10        2.14550   0.00026   0.00000   0.00735   0.00734   2.15284
   A11        2.05554   0.00024   0.00000   0.00656   0.00632   2.06186
   A12        1.92732   0.00155   0.00000   0.00339   0.00315   1.93047
   A13        1.74089  -0.00629   0.00000  -0.02040  -0.02024   1.72065
   A14        1.44809   0.00679   0.00000   0.00216   0.00210   1.45020
   A15        1.74146   0.00397   0.00000   0.01713   0.01697   1.75843
   A16        2.10812  -0.00537   0.00000  -0.00648  -0.00661   2.10151
   A17        2.10323   0.00013   0.00000  -0.00138  -0.00121   2.10202
   A18        2.04288   0.00418   0.00000   0.00844   0.00835   2.05124
   A19        1.71543  -0.00137   0.00000   0.00353   0.00342   1.71885
   A20        2.07251   0.00243   0.00000   0.00398   0.00407   2.07659
   A21        2.06074  -0.00131   0.00000   0.00392   0.00381   2.06456
   A22        1.70032  -0.00010   0.00000  -0.00937  -0.00932   1.69101
   A23        1.61572   0.00077   0.00000  -0.00745  -0.00743   1.60829
   A24        2.09166  -0.00092   0.00000  -0.00311  -0.00320   2.08846
   A25        1.95615   0.01519   0.00000   0.03067   0.03065   1.98680
   A26        2.04415  -0.00726   0.00000  -0.00332  -0.00370   2.04045
   A27        2.01153  -0.00355   0.00000   0.00070   0.00040   2.01193
   A28        1.41777  -0.00162   0.00000   0.00768   0.00765   1.42541
   A29        1.66360  -0.00590   0.00000  -0.00175  -0.00171   1.66189
   A30        1.39732  -0.00462   0.00000   0.00530   0.00526   1.40258
   A31        1.52888  -0.00376   0.00000  -0.00345  -0.00344   1.52545
   A32        1.91505  -0.00323   0.00000  -0.00258  -0.00258   1.91247
   A33        1.92935   0.00761   0.00000   0.01150   0.01150   1.94085
   A34        1.94660   0.00080   0.00000   0.00018   0.00017   1.94676
   A35        1.88461  -0.00197   0.00000  -0.00298  -0.00298   1.88163
   A36        1.88072   0.00015   0.00000  -0.00198  -0.00199   1.87873
   A37        1.90585  -0.00366   0.00000  -0.00461  -0.00463   1.90122
   A38        1.94031  -0.00556   0.00000  -0.00555  -0.00557   1.93474
   A39        1.95939  -0.00474   0.00000  -0.01055  -0.01058   1.94881
   A40        1.93963  -0.00217   0.00000  -0.00186  -0.00187   1.93776
   A41        1.88088   0.00532   0.00000   0.00767   0.00763   1.88852
   A42        1.84806   0.00499   0.00000   0.00739   0.00739   1.85545
   A43        1.89092   0.00311   0.00000   0.00442   0.00440   1.89532
    D1        0.58822  -0.00463   0.00000  -0.00531  -0.00548   0.58273
    D2        2.77611  -0.00440   0.00000  -0.00124  -0.00136   2.77475
    D3       -1.55451  -0.00259   0.00000  -0.00298  -0.00306  -1.55757
    D4       -1.46667   0.00165   0.00000   0.00295   0.00286  -1.46381
    D5        0.72123   0.00188   0.00000   0.00702   0.00698   0.72821
    D6        2.67379   0.00369   0.00000   0.00528   0.00528   2.67907
    D7        2.80993  -0.00411   0.00000  -0.00777  -0.00785   2.80208
    D8       -1.28536  -0.00388   0.00000  -0.00370  -0.00373  -1.28909
    D9        0.66720  -0.00207   0.00000  -0.00544  -0.00543   0.66177
   D10       -0.94599  -0.00496   0.00000  -0.01744  -0.01775  -0.96374
   D11        1.43583  -0.00103   0.00000   0.01583   0.01577   1.45160
   D12        0.63653  -0.00248   0.00000  -0.02554  -0.02563   0.61090
   D13        3.01835   0.00145   0.00000   0.00773   0.00789   3.02624
   D14       -2.96291  -0.00425   0.00000  -0.00577  -0.00598  -2.96889
   D15       -0.58108  -0.00032   0.00000   0.02751   0.02753  -0.55355
   D16       -0.28826  -0.00204   0.00000  -0.00184  -0.00180  -0.29005
   D17       -2.01985  -0.00083   0.00000   0.01755   0.01738  -2.00247
   D18        1.54941   0.00129   0.00000  -0.00034  -0.00040   1.54901
   D19        1.19441   0.00265   0.00000   0.02917   0.02913   1.22354
   D20       -3.01212   0.00290   0.00000   0.03098   0.03093  -2.98118
   D21       -0.88819   0.00407   0.00000   0.03322   0.03318  -0.85501
   D22       -3.12078  -0.00003   0.00000   0.00831   0.00831  -3.11247
   D23       -1.04413   0.00021   0.00000   0.01011   0.01011  -1.03401
   D24        1.07980   0.00138   0.00000   0.01235   0.01236   1.09216
   D25       -0.42488  -0.00446   0.00000   0.02320   0.02324  -0.40164
   D26        1.65177  -0.00421   0.00000   0.02501   0.02504   1.67681
   D27       -2.50749  -0.00304   0.00000   0.02725   0.02729  -2.48020
   D28       -0.10578   0.00083   0.00000   0.00089   0.00091  -0.10488
   D29        1.69583   0.00057   0.00000  -0.00690  -0.00685   1.68897
   D30       -1.80605   0.00099   0.00000   0.00666   0.00675  -1.79930
   D31       -1.92566   0.00019   0.00000   0.01057   0.01058  -1.91508
   D32       -0.12405  -0.00007   0.00000   0.00278   0.00282  -0.12123
   D33        2.65726   0.00035   0.00000   0.01635   0.01643   2.67369
   D34        1.84081  -0.00406   0.00000  -0.02202  -0.02211   1.81869
   D35       -2.64077  -0.00433   0.00000  -0.02981  -0.02988  -2.67064
   D36        0.14054  -0.00390   0.00000  -0.01625  -0.01627   0.12427
   D37       -0.29498  -0.00097   0.00000  -0.00081  -0.00079  -0.29577
   D38        1.61259  -0.00324   0.00000  -0.00838  -0.00844   1.60415
   D39       -2.11416   0.00037   0.00000   0.02301   0.02300  -2.09117
   D40       -0.34948   0.00377   0.00000   0.00406   0.00423  -0.34526
   D41       -2.45440   0.00159   0.00000   0.00140   0.00149  -2.45291
   D42        1.72490   0.00240   0.00000   0.00709   0.00713   1.73203
   D43        1.74732  -0.00056   0.00000  -0.00138  -0.00126   1.74607
   D44       -0.35759  -0.00273   0.00000  -0.00404  -0.00399  -0.36158
   D45       -2.46148  -0.00192   0.00000   0.00166   0.00165  -2.45983
   D46       -2.50535   0.00437   0.00000   0.00658   0.00676  -2.49860
   D47        1.67292   0.00219   0.00000   0.00392   0.00402   1.67694
   D48       -0.43097   0.00301   0.00000   0.00962   0.00966  -0.42131
   D49        0.87139   0.00386   0.00000   0.01793   0.01824   0.88964
   D50       -1.52544   0.00193   0.00000  -0.01249  -0.01252  -1.53796
   D51       -0.65716   0.00039   0.00000   0.02836   0.02849  -0.62867
   D52       -3.05400  -0.00154   0.00000  -0.00206  -0.00227  -3.05627
   D53        2.74815   0.00452   0.00000   0.02456   0.02487   2.77302
   D54        0.35131   0.00258   0.00000  -0.00585  -0.00589   0.34542
   D55        0.14886   0.00150   0.00000   0.00178   0.00176   0.15062
   D56        1.84504  -0.00159   0.00000  -0.02040  -0.02020   1.82485
   D57       -1.55147  -0.00611   0.00000  -0.01807  -0.01799  -1.56946
   D58       -1.65966   0.00218   0.00000   0.00166   0.00174  -1.65792
   D59        0.15064   0.00116   0.00000   0.00127   0.00125   0.15190
   D60        1.84872   0.00181   0.00000  -0.01366  -0.01356   1.83517
   D61        3.10982  -0.00538   0.00000  -0.00300  -0.00295   3.10687
   D62       -1.06487  -0.00578   0.00000  -0.00441  -0.00435  -1.06922
   D63        1.05606  -0.00667   0.00000  -0.00748  -0.00741   1.04865
   D64       -0.81515   0.00654   0.00000   0.04395   0.04387  -0.77128
   D65        1.29334   0.00614   0.00000   0.04253   0.04248   1.33582
   D66       -2.86891   0.00526   0.00000   0.03947   0.03941  -2.82950
   D67       -0.35238  -0.00168   0.00000  -0.00504  -0.00500  -0.35737
   D68        0.68919  -0.00047   0.00000   0.00804   0.00798   0.69717
         Item               Value     Threshold  Converged?
 Maximum Force            0.061263     0.000450     NO 
 RMS     Force            0.009196     0.000300     NO 
 Maximum Displacement     0.069241     0.001800     NO 
 RMS     Displacement     0.016255     0.001200     NO 
 Predicted change in Energy=-8.072795D-03
 GradGradGradGradGradGradGradGradGradGradGradGradGradGradGradGradGradGrad

                          Input orientation:                          
 ---------------------------------------------------------------------
 Center     Atomic      Atomic             Coordinates (Angstroms)
 Number     Number       Type             X           Y           Z
 ---------------------------------------------------------------------
      1          6           0        0.797203   -0.382150   -0.878128
      2          6           0       -1.521888   -0.549659   -0.263542
      3          6           0        0.304390    1.906332   -0.491292
      4          6           0       -1.937410    0.802715   -0.161578
      5          7           0        1.129049    0.806920   -0.173897
      6          1           0       -2.435425    1.264644   -1.007209
      7          1           0       -0.060382    2.045669   -1.505567
      8          1           0       -1.770154   -1.187609   -1.104105
      9          1           0        0.219326    2.746859    0.193268
     10          1           0        0.439816   -0.277658   -1.903318
     11          1           0       -2.049427    1.233096    0.828284
     12          9           0       -1.428500   -1.274955    0.872710
     13          6           0        1.401988   -1.710538   -0.532529
     14          1           0        1.026047   -2.475151   -1.220799
     15          1           0        2.493966   -1.684814   -0.624059
     16          1           0        1.137816   -2.020368    0.484247
     17          6           0        1.461779    0.666387    1.235545
     18          1           0        1.734621    1.635394    1.670764
     19          1           0        0.622751    0.256631    1.810564
     20          1           0        2.330933    0.012356    1.371140
 ---------------------------------------------------------------------
                    Distance matrix (angstroms):
                    1          2          3          4          5
     1  C    0.000000
     2  C    2.404986   0.000000
     3  C    2.372690   3.069047   0.000000
     4  C    3.065201   1.418439   2.520387   0.000000
     5  N    1.421250   2.979230   1.410499   3.066487   0.000000
     6  H    3.630217   2.163165   2.860860   1.084661   3.689091
     7  H    2.650177   3.227128   1.086844   2.621923   2.173153
     8  H    2.700213   1.084049   3.775148   2.208556   3.639892
     9  H    3.357459   3.755999   1.087356   2.925256   2.173884
    10  H    1.090714   2.571212   2.604221   3.138800   2.154587
    11  H    3.691093   2.156060   2.781184   1.085174   3.359867
    12  F    2.969223   1.351238   3.870916   2.376016   3.459862
    13  C    1.499940   3.157380   3.779970   4.195906   2.557481
    14  H    2.133178   3.334042   4.500040   4.544055   3.446535
    15  H    2.154179   4.188751   4.208110   5.102821   2.876522
    16  H    2.157740   3.129888   4.131010   4.224204   2.902893
    17  C    2.451267   3.553632   2.420532   3.677639   1.454987
    18  H    3.383207   4.372739   2.606425   4.187439   2.110891
    19  H    2.769032   3.090549   2.849807   3.277495   2.120670
    20  H    2.750849   4.222828   3.341058   4.603547   2.112581
                    6          7          8          9         10
     6  H    0.000000
     7  H    2.549351   0.000000
     8  H    2.542738   3.679481   0.000000
     9  H    3.268915   1.859017   4.595785   0.000000
    10  H    3.383595   2.409617   2.520063   3.686732   0.000000
    11  H    1.875906   3.172293   3.109973   2.800351   3.992538
    12  F    3.316256   4.307493   2.008023   4.399086   3.491638
    13  C    4.878808   4.146616   3.265370   4.668390   2.204083
    14  H    5.100341   4.658244   3.080604   5.469897   2.374547
    15  H    5.757169   4.606327   4.319765   5.047943   2.799307
    16  H    5.077774   4.682702   3.416524   4.863615   3.037220
    17  C    4.536084   3.425360   4.399620   2.637877   3.433379
    18  H    4.969736   3.671436   5.287031   2.390496   4.255625
    19  H    4.278828   3.829367   4.038207   2.996603   3.756573
    20  H    5.472014   4.257722   4.938185   3.650175   3.792428
                   11         12         13         14         15
    11  H    0.000000
    12  F    2.584152   0.000000
    13  C    4.735934   3.189999   0.000000
    14  H    5.235302   3.442100   1.095299   0.000000
    15  H    5.591594   4.218298   1.096109   1.770739   0.000000
    16  H    4.567484   2.700466   1.095270   1.768192   1.783279
    17  C    3.579887   3.500596   2.963012   4.011578   3.170439
    18  H    3.897517   4.371768   4.020001   5.075411   4.106896
    19  H    3.009799   2.726344   3.157064   4.100542   3.632911
    20  H    4.579570   4.004864   2.730433   3.822116   2.624459
                   16         17         18         19         20
    16  H    0.000000
    17  C    2.808569   0.000000
    18  H    3.889549   1.096737   0.000000
    19  H    2.684983   1.096593   1.776735   0.000000
    20  H    2.518348   1.096162   1.754883   1.780632   0.000000
 Stoichiometry    C6H12FN
 Framework group  C1[X(C6H12FN)]
 Deg. of freedom    54
 Full point group                 C1      NOp   1
 Largest Abelian subgroup         C1      NOp   1
 Largest concise Abelian subgroup C1      NOp   1
                         Standard orientation:                         
 ---------------------------------------------------------------------
 Center     Atomic      Atomic             Coordinates (Angstroms)
 Number     Number       Type             X           Y           Z
 ---------------------------------------------------------------------
      1          6           0       -0.726502    0.478039   -0.854046
      2          6           0        1.597184    0.399262   -0.239037
      3          6           0       -0.465270   -1.856230   -0.518484
      4          6           0        1.875341   -0.989796   -0.167509
      5          7           0       -1.176166   -0.687173   -0.175788
      6          1           0        2.325415   -1.480394   -1.023801
      7          1           0       -0.115375   -2.008887   -1.536079
      8          1           0        1.908710    1.027618   -1.065646
      9          1           0       -0.465251   -2.715972    0.147240
     10          1           0       -0.380463    0.361024   -1.881773
     11          1           0        1.942915   -1.450987    0.812459
     12          9           0        1.575786    1.104974    0.913074
     13          6           0       -1.195760    1.852266   -0.478395
     14          1           0       -0.744668    2.590491   -1.150125
     15          1           0       -2.284759    1.937857   -0.569000
     16          1           0       -0.902819    2.111592    0.544616
     17          6           0       -1.494402   -0.545264    1.236860
     18          1           0       -1.863124   -1.491523    1.650950
     19          1           0       -0.619112   -0.234240    1.819652
     20          1           0       -2.293936    0.189217    1.388029
 ---------------------------------------------------------------------
 Rotational constants (GHZ):           2.1659471           1.7302495           1.3005599
 Standard basis: STO-3G (5D, 7F)
 There are    52 symmetry adapted cartesian basis functions of A   symmetry.
 There are    52 symmetry adapted basis functions of A   symmetry.
    52 basis functions,   156 primitive gaussians,    52 cartesian basis functions
    32 alpha electrons       32 beta electrons
       nuclear repulsion energy       397.0247335489 Hartrees.
 NAtoms=   20 NActive=   20 NUniq=   20 SFac= 1.00D+00 NAtFMM=   60 NAOKFM=F Big=F
 Integral buffers will be    131072 words long.
 Raffenetti 1 integral format.
 Two-electron integral symmetry is turned on.
 External calculation of energy, first and second derivatives.
 Running external command "~/scripts/MiMe -H 'pbepbe def2svp' -EF 'wb97xd def2svp' -c 12 -m 48GB R"
         input file       "/local/jobs/1158152/Gau-2731379.EIn"
         output file      "/local/jobs/1158152/Gau-2731379.EOu"
         message file     "/local/jobs/1158152/Gau-2731379.EMs"
         fchk file        "/local/jobs/1158152/Gau-2731379.EFC"
         mat. el file     "/local/jobs/1158152/Gau-2731379.EUF"
 Read checkpoint file Gau-2731379_H.chk type G16
 Write formatted file Gau-2731379_H.fchk

deriv: 2

spelevel: wb97xd def2svp
gradlevel: wb97xd def2svp
hesslevel: pbepbe def2svp

runspe: False
runforce: True
runfreq: True

Running Gaussian ...

Parsing files ...
SPE file: Gau-2731379_F.out
FORCE file: Gau-2731379_F.out
HESS file: Gau-2731379_H.out

 ExternalExternalExternalExternalExternalExternalExternalExternalExternalExternal
 Output from external command:
 "~/scripts/MiMe -H 'pbepbe def2svp' -EF 'wb97xd def2svp' -c 12 -m 48GB R /local/jobs/1158152/Gau-2731379.EIn /local/jobs/1158152/Gau-2731379.EOu /local/jobs/1158152/Gau-2731379.EMs /local/jobs/1158152/Gau-2731379.EFC /local/jobs/1158152/Gau-2731379.EUF"
  
 --------------------------------------------------
 Force calculation at wb97xd def2svp
 Hessian calculation at pbepbe def2svp
 ExternalExternalExternalExternalExternalExternalExternalExternalExternalExternal

 Recovered energy= -389.906713500     dipole=     -1.513100000000     -0.474200000000     -0.304300000000
 Energy=    -389.906714     NIter=   0.
 Dipole moment=      -1.513100      -0.474200      -0.304300
 ***** Axes restored to original set *****
 -------------------------------------------------------------------
 Center     Atomic                   Forces (Hartrees/Bohr)
 Number     Number              X              Y              Z
 -------------------------------------------------------------------
      1        6          -0.005279737    0.013708119    0.024260481
      2        6          -0.000426185    0.039039907    0.004505865
      3        6           0.010075569   -0.029736624    0.014097700
      4        6           0.031486057   -0.035608595   -0.003827376
      5        7          -0.072683051   -0.001476775   -0.034810887
      6        1           0.000565391    0.003646720   -0.002887078
      7        1           0.007513960   -0.003358538   -0.002685575
      8        1          -0.000696993   -0.001762444   -0.007374820
      9        1           0.009348215    0.000724398    0.002004313
     10        1           0.005408927    0.010175409   -0.000115128
     11        1          -0.003213433    0.001794311    0.003059340
     12        9           0.006496579   -0.001266077    0.004678208
     13        6           0.001926212    0.011424173   -0.000113239
     14        1          -0.001128196   -0.000491568   -0.001349642
     15        1           0.006458834   -0.003941828    0.000636580
     16        1          -0.000327278   -0.002178870    0.003971470
     17        6           0.009047378    0.001147554    0.003516401
     18        1          -0.000942626    0.002589190   -0.003532671
     19        1          -0.004059259   -0.002124866   -0.001770977
     20        1           0.000429637   -0.002303595   -0.002262964
 -------------------------------------------------------------------
 Cartesian Forces:  Max     0.072683051 RMS     0.014797926
 FormGI is forming the generalized inverse of G from B-inverse, IUseBI=4.

 GradGradGradGradGradGradGradGradGradGradGradGradGradGradGradGradGradGrad
 Berny optimization.
 Internal  Forces:  Max     0.049580719 RMS     0.007573776
 Search for a saddle point.
 Step number   2 out of a maximum of   50
 All quantities printed in internal units (Hartrees-Bohrs-Radians)
 Swapping is turned off.
 Second derivative matrix not updated -- analytic derivatives used.
 ITU=  0  0
     Eigenvalues ---   -0.01894  -0.00327  -0.00240  -0.00124  -0.00072
     Eigenvalues ---    0.00279   0.00353   0.00514   0.00711   0.00794
     Eigenvalues ---    0.00947   0.01159   0.01288   0.01623   0.02511
     Eigenvalues ---    0.02919   0.03478   0.03775   0.03865   0.03982
     Eigenvalues ---    0.04436   0.04501   0.04810   0.05346   0.05372
     Eigenvalues ---    0.05562   0.06704   0.09260   0.10806   0.11091
     Eigenvalues ---    0.11738   0.12859   0.13542   0.13800   0.15535
     Eigenvalues ---    0.16662   0.29283   0.30449   0.32126   0.32511
     Eigenvalues ---    0.33419   0.34540   0.34575   0.35047   0.35104
     Eigenvalues ---    0.35318   0.35502   0.35882   0.36493   0.37465
     Eigenvalues ---    0.37583   0.37976   0.38040   0.42555
 Eigenvectors required to have negative eigenvalues:
                          R1        R8        D51       D33       D12
   1                   -0.54872  -0.51130  -0.19186  -0.17354   0.15694
                          D35       R16       A29       D31       A14
   1                    0.15280  -0.13225  -0.12887  -0.12433   0.11747
 RFO step:  Lambda0=3.531426272D-03 Lambda=-3.40033000D-02.
 Linear search not attempted -- option 19 set.
 Maximum step size (   0.100) exceeded in Quadratic search.
    -- Step size scaled by   0.235
 Iteration  1 RMS(Cart)=  0.01703940 RMS(Int)=  0.00030377
 Iteration  2 RMS(Cart)=  0.00033035 RMS(Int)=  0.00013510
 Iteration  3 RMS(Cart)=  0.00000011 RMS(Int)=  0.00013510
 Variable       Old X    -DE/DX   Delta X   Delta X   Delta X     New X
                                 (Linear)    (Quad)   (Total)
    R1        4.54477  -0.01662   0.00000   0.02324   0.02319   4.56796
    R2        2.68577  -0.04404   0.00000  -0.03706  -0.03685   2.64892
    R3        2.06115  -0.00109   0.00000  -0.00048  -0.00047   2.06068
    R4        2.83447  -0.00074   0.00000  -0.00146  -0.00146   2.83301
    R5        2.68046  -0.03706   0.00000  -0.03063  -0.03086   2.64960
    R6        2.04856   0.00693   0.00000   0.00326   0.00322   2.05177
    R7        2.55347   0.00506   0.00000   0.00376   0.00376   2.55723
    R8        4.76284  -0.01403   0.00000   0.02109   0.02110   4.78394
    R9        2.66546  -0.04958   0.00000  -0.03613  -0.03594   2.62951
   R10        2.05384  -0.00167   0.00000  -0.00043  -0.00043   2.05340
   R11        2.05481   0.00109   0.00000  -0.00012  -0.00012   2.05469
   R12        2.04971   0.00488   0.00000   0.00228   0.00225   2.05196
   R13        2.05068   0.00383   0.00000   0.00216   0.00216   2.05284
   R14        2.74953  -0.00283   0.00000   0.00334   0.00334   2.75286
   R15        4.81758  -0.00112   0.00000   0.01018   0.01014   4.82771
   R16        4.76223  -0.00229   0.00000   0.02141   0.02141   4.78364
   R17        2.06982   0.00158   0.00000   0.00108   0.00108   2.07090
   R18        2.07135   0.00629   0.00000   0.00380   0.00380   2.07515
   R19        2.06976   0.00438   0.00000   0.00325   0.00325   2.07301
   R20        2.07253   0.00065   0.00000  -0.00031  -0.00031   2.07222
   R21        2.07226   0.00297   0.00000   0.00081   0.00081   2.07307
   R22        2.07145   0.00144   0.00000   0.00023   0.00023   2.07167
    A1        1.72824  -0.00297   0.00000  -0.02102  -0.02082   1.70742
    A2        1.50165   0.00408   0.00000   0.00561   0.00557   1.50722
    A3        1.84236   0.00074   0.00000   0.00090   0.00071   1.84308
    A4        2.05115  -0.00585   0.00000  -0.00947  -0.00960   2.04154
    A5        2.13251   0.00134   0.00000   0.00525   0.00522   2.13773
    A6        2.01920   0.00365   0.00000   0.01050   0.01050   2.02970
    A7        1.80744  -0.00266   0.00000  -0.00287  -0.00293   1.80452
    A8        1.63452   0.00175   0.00000  -0.01009  -0.01000   1.62452
    A9        1.75751  -0.00231   0.00000  -0.02232  -0.02226   1.73525
   A10        2.15284   0.00030   0.00000   0.00770   0.00769   2.16052
   A11        2.06186   0.00022   0.00000   0.00681   0.00649   2.06834
   A12        1.93047   0.00135   0.00000   0.00415   0.00383   1.93431
   A13        1.72065  -0.00572   0.00000  -0.02467  -0.02447   1.69618
   A14        1.45020   0.00579   0.00000   0.00400   0.00394   1.45414
   A15        1.75843   0.00363   0.00000   0.01972   0.01949   1.77792
   A16        2.10151  -0.00454   0.00000  -0.00684  -0.00699   2.09453
   A17        2.10202   0.00012   0.00000  -0.00246  -0.00223   2.09979
   A18        2.05124   0.00352   0.00000   0.00984   0.00971   2.06095
   A19        1.71885  -0.00100   0.00000   0.00394   0.00382   1.72268
   A20        2.07659   0.00207   0.00000   0.00359   0.00371   2.08029
   A21        2.06456  -0.00096   0.00000   0.00561   0.00546   2.07001
   A22        1.69101  -0.00028   0.00000  -0.00979  -0.00973   1.68128
   A23        1.60829   0.00053   0.00000  -0.01009  -0.01007   1.59821
   A24        2.08846  -0.00089   0.00000  -0.00370  -0.00382   2.08464
   A25        1.98680   0.01295   0.00000   0.03154   0.03140   2.01820
   A26        2.04045  -0.00591   0.00000  -0.00140  -0.00189   2.03856
   A27        2.01193  -0.00286   0.00000   0.00183   0.00139   2.01332
   A28        1.42541  -0.00114   0.00000   0.00863   0.00861   1.43402
   A29        1.66189  -0.00512   0.00000  -0.00336  -0.00332   1.65857
   A30        1.40258  -0.00370   0.00000   0.00574   0.00568   1.40826
   A31        1.52545  -0.00332   0.00000  -0.00781  -0.00778   1.51766
   A32        1.91247  -0.00272   0.00000  -0.00243  -0.00243   1.91004
   A33        1.94085   0.00631   0.00000   0.01110   0.01109   1.95193
   A34        1.94676   0.00080   0.00000   0.00044   0.00043   1.94720
   A35        1.88163  -0.00164   0.00000  -0.00321  -0.00321   1.87842
   A36        1.87873   0.00002   0.00000  -0.00213  -0.00213   1.87660
   A37        1.90122  -0.00306   0.00000  -0.00433  -0.00435   1.89687
   A38        1.93474  -0.00460   0.00000  -0.00552  -0.00554   1.92920
   A39        1.94881  -0.00414   0.00000  -0.01049  -0.01052   1.93829
   A40        1.93776  -0.00176   0.00000  -0.00244  -0.00246   1.93530
   A41        1.88852   0.00442   0.00000   0.00796   0.00793   1.89645
   A42        1.85545   0.00420   0.00000   0.00794   0.00793   1.86338
   A43        1.89532   0.00256   0.00000   0.00386   0.00384   1.89916
    D1        0.58273  -0.00391   0.00000  -0.00062  -0.00084   0.58189
    D2        2.77475  -0.00366   0.00000   0.00336   0.00319   2.77794
    D3       -1.55757  -0.00221   0.00000   0.00210   0.00199  -1.55558
    D4       -1.46381   0.00144   0.00000   0.00825   0.00815  -1.45566
    D5        0.72821   0.00169   0.00000   0.01223   0.01218   0.74039
    D6        2.67907   0.00315   0.00000   0.01097   0.01098   2.69006
    D7        2.80208  -0.00351   0.00000  -0.00426  -0.00436   2.79772
    D8       -1.28909  -0.00326   0.00000  -0.00028  -0.00033  -1.28942
    D9        0.66177  -0.00181   0.00000  -0.00155  -0.00153   0.66025
   D10       -0.96374  -0.00484   0.00000  -0.02472  -0.02510  -0.98884
   D11        1.45160  -0.00057   0.00000   0.01638   0.01633   1.46794
   D12        0.61090  -0.00269   0.00000  -0.03081  -0.03094   0.57996
   D13        3.02624   0.00158   0.00000   0.01029   0.01050   3.03674
   D14       -2.96889  -0.00412   0.00000  -0.01219  -0.01247  -2.98136
   D15       -0.55355   0.00015   0.00000   0.02892   0.02897  -0.52458
   D16       -0.29005  -0.00173   0.00000  -0.00352  -0.00347  -0.29352
   D17       -2.00247  -0.00046   0.00000   0.01732   0.01712  -1.98535
   D18        1.54901   0.00127   0.00000   0.00080   0.00073   1.54974
   D19        1.22354   0.00239   0.00000   0.03992   0.03987   1.26342
   D20       -2.98118   0.00254   0.00000   0.04130   0.04124  -2.93994
   D21       -0.85501   0.00363   0.00000   0.04388   0.04382  -0.81119
   D22       -3.11247  -0.00017   0.00000   0.01613   0.01616  -3.09631
   D23       -1.03401  -0.00002   0.00000   0.01751   0.01753  -1.01648
   D24        1.09216   0.00107   0.00000   0.02009   0.02011   1.11227
   D25       -0.40164  -0.00378   0.00000   0.02981   0.02985  -0.37180
   D26        1.67681  -0.00363   0.00000   0.03119   0.03121   1.70803
   D27       -2.48020  -0.00254   0.00000   0.03377   0.03380  -2.44640
   D28       -0.10488   0.00073   0.00000  -0.00208  -0.00206  -0.10694
   D29        1.68897   0.00037   0.00000  -0.01022  -0.01017   1.67880
   D30       -1.79930   0.00089   0.00000   0.00616   0.00626  -1.79303
   D31       -1.91508   0.00035   0.00000   0.00965   0.00966  -1.90542
   D32       -0.12123  -0.00000   0.00000   0.00151   0.00155  -0.11968
   D33        2.67369   0.00051   0.00000   0.01788   0.01798   2.69167
   D34        1.81869  -0.00374   0.00000  -0.02814  -0.02825   1.79045
   D35       -2.67064  -0.00410   0.00000  -0.03628  -0.03636  -2.70700
   D36        0.12427  -0.00358   0.00000  -0.01990  -0.01992   0.10435
   D37       -0.29577  -0.00084   0.00000  -0.00256  -0.00251  -0.29828
   D38        1.60415  -0.00278   0.00000  -0.01108  -0.01113   1.59303
   D39       -2.09117   0.00074   0.00000   0.02494   0.02494  -2.06623
   D40       -0.34526   0.00311   0.00000   0.00580   0.00603  -0.33922
   D41       -2.45291   0.00126   0.00000   0.00358   0.00371  -2.44919
   D42        1.73203   0.00211   0.00000   0.01008   0.01013   1.74217
   D43        1.74607  -0.00058   0.00000   0.00060   0.00075   1.74682
   D44       -0.36158  -0.00243   0.00000  -0.00162  -0.00157  -0.36315
   D45       -2.45983  -0.00158   0.00000   0.00488   0.00485  -2.45498
   D46       -2.49860   0.00374   0.00000   0.01045   0.01069  -2.48790
   D47        1.67694   0.00189   0.00000   0.00823   0.00837   1.68531
   D48       -0.42131   0.00274   0.00000   0.01473   0.01479  -0.40652
   D49        0.88964   0.00391   0.00000   0.02249   0.02290   0.91253
   D50       -1.53796   0.00117   0.00000  -0.01625  -0.01627  -1.55424
   D51       -0.62867   0.00102   0.00000   0.03295   0.03313  -0.59554
   D52       -3.05627  -0.00172   0.00000  -0.00579  -0.00604  -3.06231
   D53        2.77302   0.00454   0.00000   0.02908   0.02947   2.80249
   D54        0.34542   0.00180   0.00000  -0.00966  -0.00970   0.33572
   D55        0.15062   0.00130   0.00000   0.00063   0.00060   0.15122
   D56        1.82485  -0.00171   0.00000  -0.02529  -0.02504   1.79981
   D57       -1.56946  -0.00559   0.00000  -0.02322  -0.02313  -1.59260
   D58       -1.65792   0.00183   0.00000   0.00050   0.00058  -1.65734
   D59        0.15190   0.00103   0.00000   0.00018   0.00016   0.15206
   D60        1.83517   0.00131   0.00000  -0.01801  -0.01788   1.81729
   D61        3.10687  -0.00489   0.00000  -0.01777  -0.01769   3.08917
   D62       -1.06922  -0.00525   0.00000  -0.01857  -0.01848  -1.08770
   D63        1.04865  -0.00607   0.00000  -0.02259  -0.02249   1.02616
   D64       -0.77128   0.00589   0.00000   0.03605   0.03595  -0.73533
   D65        1.33582   0.00553   0.00000   0.03525   0.03516   1.37098
   D66       -2.82950   0.00470   0.00000   0.03123   0.03115  -2.79835
   D67       -0.35737  -0.00154   0.00000  -0.00250  -0.00245  -0.35982
   D68        0.69717  -0.00027   0.00000   0.01234   0.01229   0.70946
         Item               Value     Threshold  Converged?
 Maximum Force            0.049581     0.000450     NO 
 RMS     Force            0.007574     0.000300     NO 
 Maximum Displacement     0.079088     0.001800     NO 
 RMS     Displacement     0.017126     0.001200     NO 
 Predicted change in Energy=-6.730628D-03
 GradGradGradGradGradGradGradGradGradGradGradGradGradGradGradGradGradGrad

                          Input orientation:                          
 ---------------------------------------------------------------------
 Center     Atomic      Atomic             Coordinates (Angstroms)
 Number     Number       Type             X           Y           Z
 ---------------------------------------------------------------------
      1          6           0        0.796876   -0.377116   -0.880790
      2          6           0       -1.531073   -0.543985   -0.251538
      3          6           0        0.312040    1.904081   -0.493657
      4          6           0       -1.937752    0.794280   -0.153749
      5          7           0        1.099542    0.799937   -0.182335
      6          1           0       -2.430829    1.261231   -1.001040
      7          1           0       -0.052141    2.043204   -1.507929
      8          1           0       -1.772383   -1.188583   -1.091250
      9          1           0        0.251904    2.745969    0.191777
     10          1           0        0.440077   -0.266443   -1.905272
     11          1           0       -2.039982    1.235949    0.833449
     12          9           0       -1.401830   -1.264541    0.886584
     13          6           0        1.405526   -1.701221   -0.528955
     14          1           0        1.057831   -2.462052   -1.236896
     15          1           0        2.502012   -1.673831   -0.582208
     16          1           0        1.110553   -2.026207    0.476411
     17          6           0        1.445834    0.657727    1.225495
     18          1           0        1.714049    1.630046    1.655761
     19          1           0        0.607924    0.240041    1.797241
     20          1           0        2.318320    0.005614    1.349401
 ---------------------------------------------------------------------
                    Distance matrix (angstroms):
                    1          2          3          4          5
     1  C    0.000000
     2  C    2.417260   0.000000
     3  C    2.364064   3.073876   0.000000
     4  C    3.062507   1.402107   2.531553   0.000000
     5  N    1.401749   2.954835   1.391479   3.037434   0.000000
     6  H    3.621701   2.151771   2.862521   1.085850   3.653298
     7  H    2.640471   3.234085   1.086615   2.636123   2.151578
     8  H    2.702566   1.085751   3.777104   2.199546   3.609473
     9  H    3.346797   3.768200   1.087295   2.953484   2.155339
    10  H    1.090467   2.587914   2.592340   3.137999   2.130862
    11  H    3.686239   2.145775   2.782017   1.086316   3.328443
    12  F    2.957269   1.353228   3.857795   2.368175   3.414897
    13  C    1.499165   3.168559   3.767646   4.188772   2.543534
    14  H    2.131166   3.369323   4.491295   4.555264   3.428472
    15  H    2.162894   4.201389   4.195864   5.097711   2.871646
    16  H    2.158677   3.115297   4.126235   4.200525   2.901923
    17  C    2.434847   3.533796   2.407150   3.656449   1.456752
    18  H    3.362142   4.346839   2.580837   4.160346   2.108387
    19  H    2.754712   3.063902   2.846892   3.254844   2.115158
    20  H    2.726724   4.205103   3.320572   4.582096   2.112483
                    6          7          8          9         10
     6  H    0.000000
     7  H    2.554716   0.000000
     8  H    2.538361   3.684739   0.000000
     9  H    3.290033   1.864222   4.607016   0.000000
    10  H    3.375429   2.394709   2.531394   3.675275   0.000000
    11  H    1.875833   3.175724   3.107158   2.818624   3.988542
    12  F    3.316849   4.300760   2.013680   4.393379   3.490456
    13  C    4.869969   4.135686   3.267733   4.650569   2.210187
    14  H    5.107760   4.647885   3.106936   5.460230   2.376772
    15  H    5.755252   4.604021   4.331864   5.019628   2.825388
    16  H    5.052869   4.674352   3.386811   4.857155   3.036234
    17  C    4.511119   3.411024   4.374139   2.618167   3.415748
    18  H    4.937066   3.646788   5.257942   2.350829   4.230914
    19  H    4.255258   3.822465   4.006271   2.997322   3.740763
    20  H    5.445692   4.234997   4.910879   3.622114   3.767586
                   11         12         13         14         15
    11  H    0.000000
    12  F    2.581184   0.000000
    13  C    4.728068   3.174222   0.000000
    14  H    5.249570   3.463110   1.095873   0.000000
    15  H    5.576792   4.191044   1.098121   1.770754   0.000000
    16  H    4.549176   2.657149   1.096989   1.768661   1.783536
    17  C    3.555131   3.452414   2.940128   3.993362   3.133602
    18  H    3.863192   4.321917   3.995686   5.054044   4.067554
    19  H    2.988667   2.670613   3.133027   4.087752   3.593363
    20  H    4.557930   3.958157   2.697165   3.790401   2.566201
                   16         17         18         19         20
    16  H    0.000000
    17  C    2.806607   0.000000
    18  H    3.888864   1.096574   0.000000
    19  H    2.670788   1.097019   1.782034   0.000000
    20  H    2.519744   1.096283   1.760052   1.783529   0.000000
 Stoichiometry    C6H12FN
 Framework group  C1[X(C6H12FN)]
 Deg. of freedom    54
 Full point group                 C1      NOp   1
 Largest Abelian subgroup         C1      NOp   1
 Largest concise Abelian subgroup C1      NOp   1
                         Standard orientation:                         
 ---------------------------------------------------------------------
 Center     Atomic      Atomic             Coordinates (Angstroms)
 Number     Number       Type             X           Y           Z
 ---------------------------------------------------------------------
      1          6           0       -0.743305    0.452988   -0.855839
      2          6           0        1.595163    0.423659   -0.244402
      3          6           0       -0.439938   -1.865207   -0.505500
      4          6           0        1.894021   -0.944164   -0.169237
      5          7           0       -1.134088   -0.706362   -0.171663
      6          1           0        2.341756   -1.436378   -1.027333
      7          1           0       -0.095659   -2.017878   -1.524763
      8          1           0        1.881070    1.059336   -1.076884
      9          1           0       -0.442337   -2.719337    0.167305
     10          1           0       -0.404182    0.329416   -1.884840
     11          1           0        1.967902   -1.407271    0.810638
     12          9           0        1.532575    1.135189    0.904960
     13          6           0       -1.241256    1.816150   -0.479901
     14          1           0       -0.839012    2.557198   -1.179890
     15          1           0       -2.336779    1.877375   -0.524066
     16          1           0       -0.913692    2.101462    0.527415
     17          6           0       -1.457349   -0.557915    1.240991
     18          1           0       -1.799390   -1.511967    1.659639
     19          1           0       -0.584418   -0.217184    1.811381
     20          1           0       -2.273828    0.159993    1.381722
 ---------------------------------------------------------------------
 Rotational constants (GHZ):           2.1786494           1.7490573           1.3142152
 Standard basis: STO-3G (5D, 7F)
 There are    52 symmetry adapted cartesian basis functions of A   symmetry.
 There are    52 symmetry adapted basis functions of A   symmetry.
    52 basis functions,   156 primitive gaussians,    52 cartesian basis functions
    32 alpha electrons       32 beta electrons
       nuclear repulsion energy       398.6333087819 Hartrees.
 NAtoms=   20 NActive=   20 NUniq=   20 SFac= 1.00D+00 NAtFMM=   60 NAOKFM=F Big=F
 Integral buffers will be    131072 words long.
 Raffenetti 1 integral format.
 Two-electron integral symmetry is turned on.
 External calculation of energy, first and second derivatives.
 Running external command "~/scripts/MiMe -H 'pbepbe def2svp' -EF 'wb97xd def2svp' -c 12 -m 48GB R"
         input file       "/local/jobs/1158152/Gau-2731379.EIn"
         output file      "/local/jobs/1158152/Gau-2731379.EOu"
         message file     "/local/jobs/1158152/Gau-2731379.EMs"
         fchk file        "/local/jobs/1158152/Gau-2731379.EFC"
         mat. el file     "/local/jobs/1158152/Gau-2731379.EUF"
 Read checkpoint file Gau-2731379_H.chk type G16
 Write formatted file Gau-2731379_H.fchk

deriv: 2

spelevel: wb97xd def2svp
gradlevel: wb97xd def2svp
hesslevel: pbepbe def2svp

runspe: False
runforce: True
runfreq: True

Running Gaussian ...

Parsing files ...
SPE file: Gau-2731379_F.out
FORCE file: Gau-2731379_F.out
HESS file: Gau-2731379_H.out

 ExternalExternalExternalExternalExternalExternalExternalExternalExternalExternal
 Output from external command:
 "~/scripts/MiMe -H 'pbepbe def2svp' -EF 'wb97xd def2svp' -c 12 -m 48GB R /local/jobs/1158152/Gau-2731379.EIn /local/jobs/1158152/Gau-2731379.EOu /local/jobs/1158152/Gau-2731379.EMs /local/jobs/1158152/Gau-2731379.EFC /local/jobs/1158152/Gau-2731379.EUF"
  
 --------------------------------------------------
 Force calculation at wb97xd def2svp
 Hessian calculation at pbepbe def2svp
 ExternalExternalExternalExternalExternalExternalExternalExternalExternalExternal

 Recovered energy= -389.913390260     dipole=     -1.545200000000     -0.504300000000     -0.261500000000
 Energy=    -389.913390     NIter=   0.
 Dipole moment=      -1.545200      -0.504300      -0.261500
 ***** Axes restored to original set *****
 -------------------------------------------------------------------
 Center     Atomic                   Forces (Hartrees/Bohr)
 Number     Number              X              Y              Z
 -------------------------------------------------------------------
      1        6          -0.003363115    0.009965443    0.017377999
      2        6          -0.001682970    0.030536316    0.004036763
      3        6           0.007466728   -0.022035151    0.010299871
      4        6           0.024743236   -0.028804178   -0.002796564
      5        7          -0.060925131   -0.002387378   -0.024909426
      6        1           0.000988790    0.003019171   -0.002226407
      7        1           0.006091395   -0.002657220   -0.002321290
      8        1          -0.000033590   -0.001228244   -0.005901544
      9        1           0.008212361    0.000487261    0.001415091
     10        1           0.004475051    0.008349896   -0.000137603
     11        1          -0.002517679    0.001708488    0.002269202
     12        9           0.005821221   -0.000753374    0.003407535
     13        6           0.001860067    0.009397874    0.000283936
     14        1          -0.000908874   -0.000411823   -0.001065179
     15        1           0.005067757   -0.003157367    0.000544072
     16        1          -0.000284109   -0.001881497    0.003033180
     17        6           0.008755748    0.001364338    0.002629740
     18        1          -0.000852185    0.002004845   -0.002767244
     19        1          -0.003151188   -0.001679638   -0.001438403
     20        1           0.000236489   -0.001837762   -0.001733729
 -------------------------------------------------------------------
 Cartesian Forces:  Max     0.060925131 RMS     0.011819547
 FormGI is forming the generalized inverse of G from B-inverse, IUseBI=4.

 GradGradGradGradGradGradGradGradGradGradGradGradGradGradGradGradGradGrad
 Berny optimization.
 Internal  Forces:  Max     0.038191506 RMS     0.005952962
 Search for a saddle point.
 Step number   3 out of a maximum of   50
 All quantities printed in internal units (Hartrees-Bohrs-Radians)
 Swapping is turned off.
 Second derivative matrix not updated -- analytic derivatives used.
 ITU=  0  0  0
     Eigenvalues ---   -0.01663  -0.00297  -0.00219  -0.00116  -0.00011
     Eigenvalues ---    0.00289   0.00378   0.00528   0.00758   0.00815
     Eigenvalues ---    0.00951   0.01173   0.01301   0.01629   0.02514
     Eigenvalues ---    0.02978   0.03509   0.03798   0.03872   0.03972
     Eigenvalues ---    0.04474   0.04511   0.04862   0.05353   0.05373
     Eigenvalues ---    0.05590   0.06790   0.09378   0.10763   0.11220
     Eigenvalues ---    0.11948   0.12940   0.13821   0.14247   0.15611
     Eigenvalues ---    0.17389   0.30667   0.31923   0.32533   0.33402
     Eigenvalues ---    0.34099   0.34601   0.34869   0.35017   0.35139
     Eigenvalues ---    0.35354   0.35498   0.35967   0.37030   0.37470
     Eigenvalues ---    0.37648   0.37801   0.39512   0.44502
 Eigenvectors required to have negative eigenvalues:
                          R1        R8        D51       D33       D12
   1                   -0.54112  -0.50825  -0.19694  -0.18159   0.15988
                          D35       R16       D31       A29       D39
   1                    0.15722  -0.13155  -0.12648  -0.12598  -0.11891
 RFO step:  Lambda0=2.379960270D-03 Lambda=-2.38409364D-02.
 Linear search not attempted -- option 19 set.
 Maximum step size (   0.100) exceeded in Quadratic search.
    -- Step size scaled by   0.273
 Iteration  1 RMS(Cart)=  0.01820441 RMS(Int)=  0.00038003
 Iteration  2 RMS(Cart)=  0.00039873 RMS(Int)=  0.00016552
 Iteration  3 RMS(Cart)=  0.00000016 RMS(Int)=  0.00016552
 Variable       Old X    -DE/DX   Delta X   Delta X   Delta X     New X
                                 (Linear)    (Quad)   (Total)
    R1        4.56796  -0.01317   0.00000   0.02468   0.02463   4.59259
    R2        2.64892  -0.03402   0.00000  -0.03192  -0.03168   2.61724
    R3        2.06068  -0.00082   0.00000  -0.00033  -0.00031   2.06038
    R4        2.83301  -0.00050   0.00000  -0.00160  -0.00160   2.83141
    R5        2.64960  -0.02922   0.00000  -0.02707  -0.02734   2.62226
    R6        2.05177   0.00540   0.00000   0.00280   0.00275   2.05452
    R7        2.55723   0.00382   0.00000   0.00306   0.00306   2.56029
    R8        4.78394  -0.01108   0.00000   0.01514   0.01516   4.79910
    R9        2.62951  -0.03819   0.00000  -0.03005  -0.02984   2.59968
   R10        2.05340  -0.00126   0.00000  -0.00014  -0.00015   2.05326
   R11        2.05469   0.00081   0.00000  -0.00007  -0.00007   2.05462
   R12        2.05196   0.00378   0.00000   0.00199   0.00195   2.05391
   R13        2.05284   0.00299   0.00000   0.00196   0.00196   2.05480
   R14        2.75286  -0.00200   0.00000   0.00290   0.00290   2.75576
   R15        4.82771  -0.00092   0.00000   0.01087   0.01082   4.83854
   R16        4.78364  -0.00184   0.00000   0.02406   0.02405   4.80770
   R17        2.07090   0.00126   0.00000   0.00110   0.00110   2.07200
   R18        2.07515   0.00495   0.00000   0.00356   0.00356   2.07871
   R19        2.07301   0.00342   0.00000   0.00313   0.00313   2.07614
   R20        2.07222   0.00048   0.00000  -0.00030  -0.00030   2.07192
   R21        2.07307   0.00230   0.00000   0.00082   0.00082   2.07388
   R22        2.07167   0.00109   0.00000   0.00005   0.00005   2.07172
    A1        1.70742  -0.00258   0.00000  -0.02448  -0.02425   1.68317
    A2        1.50722   0.00334   0.00000   0.00765   0.00758   1.51480
    A3        1.84308   0.00067   0.00000   0.00225   0.00201   1.84509
    A4        2.04154  -0.00473   0.00000  -0.00990  -0.01004   2.03150
    A5        2.13773   0.00106   0.00000   0.00457   0.00454   2.14228
    A6        2.02970   0.00300   0.00000   0.01143   0.01142   2.04112
    A7        1.80452  -0.00209   0.00000  -0.00430  -0.00436   1.80016
    A8        1.62452   0.00124   0.00000  -0.01234  -0.01222   1.61230
[...]
    18   1     0.13  -0.07  -0.10     0.59   0.03   0.12     0.08  -0.20  -0.33
    19   1    -0.13   0.10   0.04    -0.06  -0.24   0.33    -0.39   0.44  -0.05
    20   1     0.08   0.19   0.01     0.13   0.36  -0.32     0.22   0.46   0.19
                     40                     41                     42
                      A                      A                      A
 Frequencies --   1472.1381              1594.4969              1611.4596
 Red. masses --      2.2669                 5.1140                 5.7974
 Frc consts  --      2.8946                 7.6605                 8.8700
 IR Inten    --      0.0000                 0.0000                 0.0000
  Atom  AN      X      Y      Z        X      Y      Z        X      Y      Z
     1   6     0.01  -0.16   0.09    -0.05   0.16  -0.05     0.03  -0.28   0.10
     2   6     0.00  -0.01  -0.00    -0.10   0.35   0.07    -0.09   0.25   0.05
     3   6    -0.10   0.17   0.07    -0.07   0.11   0.03     0.08  -0.18  -0.03
     4   6    -0.01   0.01  -0.00     0.12  -0.31   0.01     0.09  -0.22   0.00
     5   7     0.09  -0.02  -0.15     0.09  -0.23   0.02    -0.09   0.37  -0.08
     6   1     0.02  -0.02   0.02    -0.03   0.13  -0.34    -0.00   0.10  -0.25
     7   1     0.01  -0.44   0.19    -0.01  -0.08   0.09     0.03   0.17  -0.10
     8   1     0.01   0.01   0.02     0.04  -0.14  -0.39     0.04  -0.10  -0.26
     9   1     0.26  -0.28  -0.49    -0.06   0.04  -0.08     0.09  -0.09   0.11
    10   1    -0.09   0.13   0.03     0.10  -0.20   0.04    -0.11   0.27  -0.01
    11   1     0.02  -0.02  -0.02    -0.18   0.13   0.33    -0.15   0.09   0.24
    12   9     0.00   0.00  -0.00     0.01  -0.03  -0.02     0.01  -0.02  -0.02
    13   6    -0.01   0.04  -0.00     0.02  -0.02  -0.00    -0.03   0.04   0.01
    14   1    -0.15   0.13   0.04     0.03  -0.03  -0.00    -0.07   0.07   0.03
    15   1    -0.00   0.00  -0.14     0.02  -0.06  -0.02    -0.02   0.07  -0.04
    16   1     0.15  -0.07  -0.02     0.00   0.01  -0.00     0.06  -0.00  -0.01
    17   6     0.00   0.01   0.00    -0.01   0.03   0.01     0.01  -0.04   0.01
    18   1    -0.14   0.08   0.14     0.03  -0.08  -0.21    -0.09   0.09   0.28
    19   1    -0.12   0.01   0.14    -0.05   0.08  -0.01     0.12  -0.08  -0.10
    20   1    -0.02  -0.05   0.28    -0.00   0.05   0.13    -0.02  -0.09  -0.21
                     43                     44                     45
                      A                      A                      A
 Frequencies --   2996.1158              3068.6400              3088.3541
 Red. masses --      1.0492                 1.0343                 1.0902
 Frc consts  --      5.5492                 5.7385                 6.1263
 IR Inten    --      0.0000                 0.0000                 0.0000
  Atom  AN      X      Y      Z        X      Y      Z        X      Y      Z
     1   6    -0.00   0.00  -0.00    -0.00   0.00   0.00    -0.00   0.00   0.00
     2   6     0.00   0.00   0.00    -0.00  -0.00  -0.00     0.00  -0.00  -0.00
     3   6    -0.00   0.00  -0.00     0.00   0.00  -0.00    -0.00  -0.00   0.00
     4   6     0.00   0.00   0.00    -0.00  -0.00   0.00     0.00   0.00   0.00
     5   7     0.00  -0.00   0.00    -0.00  -0.00   0.00     0.00   0.00  -0.00
     6   1    -0.00   0.00   0.00     0.00  -0.00  -0.00    -0.00   0.00   0.00
     7   1    -0.00   0.00   0.00     0.00  -0.00  -0.01    -0.00  -0.00   0.00
     8   1    -0.00   0.00  -0.00     0.00   0.00   0.00     0.00   0.00  -0.00
     9   1     0.00   0.00  -0.00    -0.00  -0.01   0.01     0.00   0.00  -0.00
    10   1    -0.00   0.00  -0.00     0.00  -0.00  -0.01    -0.00  -0.00  -0.01
    11   1    -0.00   0.00  -0.00     0.00   0.00   0.00    -0.00   0.00  -0.00
    12   9     0.00  -0.00  -0.00     0.00   0.00  -0.00    -0.00   0.00   0.00
    13   6    -0.06   0.02   0.01    -0.00  -0.00  -0.00    -0.06  -0.05  -0.04
    14   1    -0.09  -0.20   0.18     0.00   0.00  -0.01     0.09   0.26  -0.26
    15   1     0.88   0.08   0.04     0.02   0.00   0.00     0.42   0.03   0.01
    16   1    -0.11  -0.11  -0.32     0.01   0.01   0.05     0.20   0.25   0.75
    17   6    -0.00  -0.00  -0.00    -0.01   0.02   0.04    -0.00  -0.00  -0.00
    18   1     0.00  -0.00  -0.00     0.01   0.42  -0.20    -0.00  -0.03   0.01
    19   1     0.00   0.00   0.00    -0.41  -0.39  -0.32     0.03   0.03   0.02
    20   1    -0.00   0.00  -0.00     0.55  -0.24  -0.00    -0.02   0.01  -0.00
                     46                     47                     48
                      A                      A                      A
 Frequencies --   3141.9438              3168.0455              3182.9966
 Red. masses --      1.0993                 1.1059                 1.0577
 Frc consts  --      6.3940                 6.5397                 6.3135
 IR Inten    --      0.0000                 0.0000                 0.0000
  Atom  AN      X      Y      Z        X      Y      Z        X      Y      Z
     1   6     0.00  -0.00  -0.01     0.00  -0.00  -0.00    -0.00   0.00   0.00
     2   6     0.00  -0.00   0.00     0.00  -0.00   0.00     0.00   0.01  -0.02
     3   6    -0.00   0.00  -0.00     0.00  -0.00  -0.00     0.00  -0.01  -0.01
     4   6    -0.00   0.00  -0.00     0.00  -0.00  -0.00    -0.03   0.06  -0.00
     5   7    -0.00  -0.00   0.00     0.00   0.00  -0.00    -0.00   0.00   0.00
     6   1     0.00  -0.00  -0.00    -0.00   0.00   0.00     0.27  -0.27  -0.55
     7   1     0.00  -0.00  -0.00    -0.00   0.00   0.01    -0.04   0.02   0.15
     8   1     0.00   0.00  -0.00     0.00   0.00  -0.01    -0.02  -0.14   0.18
     9   1    -0.00  -0.00   0.00     0.00   0.01  -0.01     0.01   0.11  -0.09
    10   1    -0.02   0.01   0.09    -0.00   0.00   0.01     0.01  -0.00  -0.03
    11   1     0.00  -0.00   0.00    -0.00   0.00  -0.00     0.07  -0.31   0.59
    12   9     0.00  -0.00  -0.00    -0.00  -0.00  -0.00     0.00  -0.00  -0.00
    13   6    -0.02  -0.04   0.08     0.00  -0.00   0.00    -0.00  -0.00   0.00
    14   1     0.24   0.63  -0.57     0.01   0.02  -0.02     0.00   0.00  -0.00
    15   1     0.09  -0.00   0.02    -0.00  -0.00   0.00     0.00  -0.00   0.00
    16   1    -0.12  -0.15  -0.40    -0.01  -0.01  -0.03    -0.00  -0.00  -0.00
    17   6     0.00  -0.00   0.00    -0.09  -0.01  -0.03    -0.00   0.00  -0.00
    18   1     0.00   0.02  -0.01    -0.01   0.03  -0.02    -0.00  -0.02   0.01
    19   1    -0.02  -0.02  -0.02     0.42   0.42   0.34    -0.01  -0.01  -0.00
    20   1    -0.02   0.01   0.00     0.66  -0.30  -0.00     0.01  -0.00  -0.00
                     49                     50                     51
                      A                      A                      A
 Frequencies --   3186.7051              3196.1060              3207.9715
 Red. masses --      1.0545                 1.1042                 1.0901
 Frc consts  --      6.3093                 6.6455                 6.6095
 IR Inten    --      0.0000                 0.0000                 0.0000
  Atom  AN      X      Y      Z        X      Y      Z        X      Y      Z
     1   6    -0.00   0.00   0.01    -0.00   0.00   0.01     0.02  -0.01  -0.08
     2   6    -0.00  -0.00   0.00     0.00   0.00   0.00    -0.00  -0.01   0.01
     3   6     0.01  -0.06  -0.02     0.00  -0.01  -0.01     0.00  -0.01  -0.00
     4   6     0.01  -0.01   0.00     0.00  -0.00  -0.00    -0.00   0.00  -0.00
     5   7    -0.00   0.00   0.00    -0.00  -0.00  -0.00    -0.00  -0.00   0.00
     6   1    -0.06   0.06   0.12    -0.00   0.00   0.00     0.01  -0.01  -0.02
     7   1    -0.17   0.08   0.66    -0.03   0.02   0.10    -0.02   0.01   0.07
     8   1     0.01   0.04  -0.05     0.00   0.00  -0.00     0.01   0.06  -0.07
     9   1     0.05   0.52  -0.41     0.01   0.06  -0.05     0.01   0.06  -0.04
    10   1     0.02  -0.02  -0.09     0.02  -0.01  -0.09    -0.25   0.14   0.93
    11   1    -0.02   0.07  -0.13    -0.00   0.00  -0.00     0.00  -0.01   0.02
    12   9    -0.00   0.00   0.00    -0.00  -0.00   0.00     0.00   0.00   0.00
    13   6     0.00  -0.00   0.00    -0.00  -0.00  -0.00    -0.00   0.00  -0.01
    14   1     0.00   0.01  -0.01    -0.00  -0.00   0.00    -0.02  -0.06   0.05
    15   1    -0.00   0.00   0.00    -0.00   0.00  -0.00    -0.01   0.00  -0.00
    16   1    -0.00  -0.00  -0.01     0.00   0.00   0.01     0.01   0.02   0.04
    17   6     0.00   0.01  -0.00     0.01  -0.09   0.02     0.00  -0.01   0.00
    18   1    -0.00  -0.10   0.05     0.02   0.79  -0.37     0.00   0.07  -0.03
    19   1    -0.04  -0.04  -0.03     0.20   0.17   0.16     0.01   0.01   0.01
    20   1     0.04  -0.02  -0.00    -0.31   0.12   0.00    -0.03   0.01  -0.00
                     52                     53                     54
                      A                      A                      A
 Frequencies --   3219.2007              3291.4365              3310.0772
 Red. masses --      1.0971                 1.1182                 1.1226
 Frc consts  --      6.6990                 7.1371                 7.2469
 IR Inten    --      0.0000                 0.0000                 0.0000
  Atom  AN      X      Y      Z        X      Y      Z        X      Y      Z
     1   6     0.00  -0.00  -0.01     0.00  -0.00  -0.00    -0.00  -0.00   0.00
     2   6     0.00   0.06  -0.06     0.00   0.01  -0.01     0.00  -0.00  -0.00
     3   6    -0.00  -0.00  -0.00    -0.00  -0.00   0.01     0.02   0.04  -0.09
     4   6     0.01  -0.02   0.01     0.02   0.00  -0.10     0.00   0.00  -0.01
     5   7     0.00  -0.00  -0.00    -0.00   0.00   0.00     0.00   0.00  -0.00
     6   1    -0.04   0.04   0.08    -0.29   0.31   0.58    -0.02   0.02   0.04
     7   1    -0.00   0.00   0.01     0.01  -0.00  -0.03    -0.16   0.10   0.66
     8   1    -0.09  -0.60   0.74    -0.01  -0.06   0.07    -0.00  -0.00   0.00
     9   1     0.00   0.01  -0.01     0.00   0.03  -0.03    -0.06  -0.57   0.44
    10   1    -0.02   0.01   0.09    -0.00   0.00   0.00    -0.00  -0.00   0.00
    11   1    -0.03   0.11  -0.20     0.08  -0.33   0.59     0.01  -0.02   0.03
    12   9     0.00  -0.00  -0.00    -0.00   0.00   0.00    -0.00   0.00   0.00
    13   6    -0.00   0.00  -0.00    -0.00   0.00  -0.00    -0.00  -0.00   0.00
    14   1    -0.00  -0.00   0.00    -0.00  -0.00   0.00    -0.00  -0.00   0.00
    15   1     0.00   0.00  -0.00     0.00  -0.00  -0.00     0.00   0.00  -0.00
    16   1     0.00   0.00   0.00     0.00   0.00   0.00    -0.00   0.00   0.00
    17   6    -0.00  -0.00   0.00     0.00  -0.00   0.00     0.00   0.00  -0.00
    18   1     0.00   0.01  -0.00     0.00   0.00  -0.00    -0.00  -0.02   0.01
    19   1     0.00   0.00   0.00    -0.00   0.00   0.00    -0.00  -0.00  -0.00
    20   1     0.00  -0.00   0.00     0.00   0.00   0.00     0.00  -0.00   0.00

 -------------------
 - Thermochemistry -
 -------------------
 Temperature   298.150 Kelvin.  Pressure   1.00000 Atm.
 Atom     1 has atomic number  6 and mass  12.00000
 Atom     2 has atomic number  6 and mass  12.00000
 Atom     3 has atomic number  6 and mass  12.00000
 Atom     4 has atomic number  6 and mass  12.00000
 Atom     5 has atomic number  7 and mass  14.00307
 Atom     6 has atomic number  1 and mass   1.00783
 Atom     7 has atomic number  1 and mass   1.00783
 Atom     8 has atomic number  1 and mass   1.00783
 Atom     9 has atomic number  1 and mass   1.00783
 Atom    10 has atomic number  1 and mass   1.00783
 Atom    11 has atomic number  1 and mass   1.00783
 Atom    12 has atomic number  9 and mass  18.99840
 Atom    13 has atomic number  6 and mass  12.00000
 Atom    14 has atomic number  1 and mass   1.00783
 Atom    15 has atomic number  1 and mass   1.00783
 Atom    16 has atomic number  1 and mass   1.00783
 Atom    17 has atomic number  6 and mass  12.00000
 Atom    18 has atomic number  1 and mass   1.00783
 Atom    19 has atomic number  1 and mass   1.00783
 Atom    20 has atomic number  1 and mass   1.00783
 Molecular mass:   117.09538 amu.
 Principal axes and moments of inertia in atomic units:
                           1         2         3
     Eigenvalues --   813.45452 983.259961304.95247
           X            0.97247  -0.22814  -0.04754
           Y            0.22529   0.97253  -0.05853
           Z            0.05959   0.04621   0.99715
 This molecule is an asymmetric top.
 Rotational symmetry number  1.
 Warning -- assumption of classical behavior for rotation
           may cause significant error
 Rotational temperatures (Kelvin)      0.10648     0.08809     0.06637
 Rotational constants (GHZ):           2.21861     1.83547     1.38299
    4 imaginary frequencies ignored.
 Zero-point vibrational energy     433834.3 (Joules/Mol)
                                  103.68888 (Kcal/Mol)
 Warning -- explicit consideration of  13 degrees of freedom as
           vibrations may cause significant error
 Vibrational temperatures:    163.53   175.28   271.47   286.45   422.34
          (Kelvin)            500.32   640.03   644.69   697.95   749.06
                              787.78   866.61   891.16   993.88  1046.29
                             1148.81  1216.07  1277.96  1375.01  1394.39
                             1489.51  1548.39  1554.15  1616.28  1653.93
                             1776.90  1865.11  1892.65  1929.59  1947.09
                             1979.15  1996.03  2007.71  2023.01  2040.84
                             2118.08  2294.13  2318.53  4310.74  4415.09
                             4443.45  4520.56  4558.11  4579.62  4584.96
                             4598.48  4615.56  4631.71  4735.64  4762.46
 
 Zero-point correction=                           0.165239 (Hartree/Particle)
 Thermal correction to Energy=                    0.173624
 Thermal correction to Enthalpy=                  0.174568
 Thermal correction to Gibbs Free Energy=         0.132680
 Sum of electronic and zero-point Energies=           -389.763056
 Sum of electronic and thermal Energies=              -389.754670
 Sum of electronic and thermal Enthalpies=            -389.753726
 Sum of electronic and thermal Free Energies=         -389.795614
 
                     E (Thermal)             CV                S
                      KCal/Mol        Cal/Mol-Kelvin    Cal/Mol-Kelvin
 Total                  108.951             32.285             88.161
 Electronic               0.000              0.000              0.000
 Translational            0.889              2.981             40.188
 Rotational               0.889              2.981             28.436
 Vibrational            107.173             26.323             19.537
 Vibration     1          0.607              1.938              3.205
 Vibration     2          0.609              1.931              3.071
 Vibration     3          0.633              1.855              2.241
 Vibration     4          0.637              1.841              2.141
 Vibration     5          0.688              1.686              1.453
 Vibration     6          0.725              1.580              1.176
 Vibration     7          0.804              1.372              0.812
 Vibration     8          0.807              1.365              0.802
 Vibration     9          0.841              1.283              0.696
 Vibration    10          0.876              1.204              0.609
 Vibration    11          0.903              1.145              0.549
 Vibration    12          0.961              1.027              0.446
 Vibration    13          0.979              0.991              0.417
                       Q            Log10(Q)             Ln(Q)
 Total Bot       0.936281D-61        -61.028594       -140.523530
 Total V=0       0.945990D+15         14.975887         34.483253
 Vib (Bot)       0.514042D-74        -74.289001       -171.056746
 Vib (Bot)    1  0.180060D+01          0.255418          0.588122
 Vib (Bot)    2  0.167678D+01          0.224476          0.516874
 Vib (Bot)    3  0.106124D+01          0.025813          0.059436
 Vib (Bot)    4  0.100185D+01          0.000802          0.001846
 Vib (Bot)    5  0.650210D+00         -0.186946         -0.430460
 Vib (Bot)    6  0.531345D+00         -0.274623         -0.632344
 Vib (Bot)    7  0.387105D+00         -0.412171         -0.949059
 Vib (Bot)    8  0.383305D+00         -0.416456         -0.958925
 Vib (Bot)    9  0.343258D+00         -0.464379         -1.069273
 Vib (Bot)   10  0.309862D+00         -0.508832         -1.171629
 Vib (Bot)   11  0.287295D+00         -0.541672         -1.247245
 Vib (Bot)   12  0.247312D+00         -0.606755         -1.397106
 Vib (Bot)   13  0.236258D+00         -0.626614         -1.442833
 Vib (V=0)       0.519373D+02          1.715479          3.950037
 Vib (V=0)    1  0.236874D+01          0.374517          0.862357
 Vib (V=0)    2  0.224974D+01          0.352132          0.810814
 Vib (V=0)    3  0.167313D+01          0.223529          0.514694
 Vib (V=0)    4  0.161969D+01          0.209431          0.482233
 Vib (V=0)    5  0.132023D+01          0.120649          0.277804
 Vib (V=0)    6  0.122961D+01          0.089767          0.206695
 Vib (V=0)    7  0.113234D+01          0.053976          0.124284
 Vib (V=0)    8  0.113002D+01          0.053085          0.122233
 Vib (V=0)    9  0.110649D+01          0.043946          0.101190
 Vib (V=0)   10  0.108823D+01          0.036721          0.084552
 Vib (V=0)   11  0.107666D+01          0.032079          0.073865
 Vib (V=0)   12  0.105782D+01          0.024412          0.056210
 Vib (V=0)   13  0.105301D+01          0.022432          0.051651
 Electronic      0.100000D+01          0.000000          0.000000
 Translational   0.498039D+08          7.697264         17.723604
 Rotational      0.365716D+06          5.563144         12.809612
 ***** Axes restored to original set *****
 -------------------------------------------------------------------
 Center     Atomic                   Forces (Hartrees/Bohr)
 Number     Number              X              Y              Z
 -------------------------------------------------------------------
      1        6          -0.000495247   -0.000226518    0.000220102
      2        6          -0.000036501    0.000018488   -0.000146493
      3        6           0.000626112    0.000107641   -0.000174984
      4        6           0.000022574    0.000155498    0.000291854
      5        7          -0.000161760   -0.000748455   -0.000044995
      6        1          -0.000020325   -0.000201202   -0.000037462
      7        1          -0.000206353    0.000365031    0.000072167
      8        1          -0.000042735   -0.000090743    0.000164625
      9        1           0.000119251   -0.000130862    0.000115250
     10        1           0.000120932    0.000438405    0.000004722
     11        1          -0.000105142   -0.000061573   -0.000011123
     12        9          -0.000178483   -0.000318356   -0.000331296
     13        6           0.000159992   -0.000200245   -0.000423388
     14        1           0.000169262   -0.000064122    0.000081653
     15        1          -0.000048957    0.000102857    0.000246357
     16        1          -0.000080434    0.000078391    0.000022103
     17        6           0.000220090    0.000129029   -0.000156455
     18        1          -0.000001632    0.000220527   -0.000123449
     19        1           0.000049921    0.000469952    0.000191958
     20        1          -0.000110566   -0.000043743    0.000038854
 -------------------------------------------------------------------
 Cartesian Forces:  Max     0.000748455 RMS     0.000226236


 QED = W**5 (WHICH WAS WHAT WE WANTED)
 Error termination request processed by link 9999.
 Error termination via Lnk1e in /apps/gaussian/g16/C.01/g16/l9999.exe at Thu Jan 18 12:36:10 2024.
 Job cpu time:       0 days 13 hours 19 minutes  0.3 seconds.
 Elapsed time:       0 days  2 hours 10 minutes 14.0 seconds.
 File lengths (MBytes):  RWF=      6 Int=      0 D2E=      0 Chk=      2 Scr=      1
