Unloading slurm/anatra/current
  ERROR: No such file or directory on
    '/cm/local/modulefiles/slurm/anatra/current'
environment: line 0: unalias: gv: not found
environment: line 0: unalias: sl: not found
 Entering Gaussian System, Link 0=g16
 Initial command:
 /apps/gaussian/g16/C.01/g16/l1.exe "/local/jobs/1158153/Gau-1790508.inp" -scrdir="/local/jobs/1158153/"
 Entering Link 1 = /apps/gaussian/g16/C.01/g16/l1.exe PID=   1790511.
  
 Copyright (c) 1988-2019, Gaussian, Inc.  All Rights Reserved.
  
 This is part of the Gaussian(R) 16 program.  It is based on
 the Gaussian(R) 09 system (copyright 2009, Gaussian, Inc.),
 the Gaussian(R) 03 system (copyright 2003, Gaussian, Inc.),
 the Gaussian(R) 98 system (copyright 1998, Gaussian, Inc.),
 the Gaussian(R) 94 system (copyright 1995, Gaussian, Inc.),
 the Gaussian 92(TM) system (copyright 1992, Gaussian, Inc.),
 the Gaussian 90(TM) system (copyright 1990, Gaussian, Inc.),
 the Gaussian 88(TM) system (copyright 1988, Gaussian, Inc.),
 the Gaussian 86(TM) system (copyright 1986, Carnegie Mellon
 University), and the Gaussian 82(TM) system (copyright 1983,
 Carnegie Mellon University). Gaussian is a federally registered
 trademark of Gaussian, Inc.
  
 This software contains proprietary and confidential information,
 including trade secrets, belonging to Gaussian, Inc.
  
 This software is provided under written license and may be
 used, copied, transmitted, or stored only in accord with that
 written license.
  
 The following legend is applicable only to US Government
 contracts under FAR:
  
                    RESTRICTED RIGHTS LEGEND
  
 Use, reproduction and disclosure by the US Government is
 subject to restrictions as set forth in subparagraphs (a)
 and (c) of the Commercial Computer Software - Restricted
 Rights clause in FAR 52.227-19.
  
 Gaussian, Inc.
 340 Quinnipiac St., Bldg. 40, Wallingford CT 06492
  
  
 ---------------------------------------------------------------
 Warning -- This program may not be used in any manner that
 competes with the business of Gaussian, Inc. or will provide
 assistance to any competitor of Gaussian, Inc.  The licensee
 of this program is prohibited from giving any competitor of
 Gaussian, Inc. access to this program.  By using this program,
 the user acknowledges that Gaussian, Inc. is engaged in the
 business of creating and licensing software in the field of
 computational chemistry and represents and warrants to the
 licensee that it is not a competitor of Gaussian, Inc. and that
 it will not use this program in any manner prohibited above.
 ---------------------------------------------------------------
  

 Cite this work as:
 Gaussian 16, Revision C.01,
 M. J. Frisch, G. W. Trucks, H. B. Schlegel, G. E. Scuseria, 
 M. A. Robb, J. R. Cheeseman, G. Scalmani, V. Barone, 
 G. A. Petersson, H. Nakatsuji, X. Li, M. Caricato, A. V. Marenich, 
 J. Bloino, B. G. Janesko, R. Gomperts, B. Mennucci, H. P. Hratchian, 
 J. V. Ortiz, A. F. Izmaylov, J. L. Sonnenberg, D. Williams-Young, 
 F. Ding, F. Lipparini, F. Egidi, J. Goings, B. Peng, A. Petrone, 
 T. Henderson, D. Ranasinghe, V. G. Zakrzewski, J. Gao, N. Rega, 
 G. Zheng, W. Liang, M. Hada, M. Ehara, K. Toyota, R. Fukuda, 
 J. Hasegawa, M. Ishida, T. Nakajima, Y. Honda, O. Kitao, H. Nakai, 
 T. Vreven, K. Throssell, J. A. Montgomery, Jr., J. E. Peralta, 
 F. Ogliaro, M. J. Bearpark, J. J. Heyd, E. N. Brothers, K. N. Kudin, 
 V. N. Staroverov, T. A. Keith, R. Kobayashi, J. Normand, 
 K. Raghavachari, A. P. Rendell, J. C. Burant, S. S. Iyengar, 
 J. Tomasi, M. Cossi, J. M. Millam, M. Klene, C. Adamo, R. Cammi, 
 J. W. Ochterski, R. L. Martin, K. Morokuma, O. Farkas, 
 J. B. Foresman, and D. J. Fox, Gaussian, Inc., Wallingford CT, 2019.
 
 ******************************************
 Gaussian 16:  ES64L-G16RevC.01  3-Jul-2019
                18-Jan-2024 
 ******************************************
 %nprocshared=12
 Will use up to   12 processors via shared memory.
 %mem=48GB
 ----------------------------------------------------------------------
 # external="~/scripts/MiMe -H 'pbepbe def2svp' -EF 'wb97xd def2svp' -c
  12 -m 48GB" opt=(calcall,ts,noeigen,maxcycles=50,maxstep=10,nomicro)
 ----------------------------------------------------------------------
 1/5=1,6=50,8=10,10=4,11=1,18=20,26=1,38=1/1,3;
 2/9=110,12=2,17=6,18=5,40=1/2;
 3/11=9,25=1,30=1,41=9900000,43=2,71=2,140=1/1;
 4/20=17,22=2,24=3,113=1,114=1/2;
 6/7=2,8=2,9=2,10=2,18=1/1;
 7/25=1,44=-1/16;
 1/5=1,6=50,8=10,10=4,11=1,18=20,26=1/3(3);
 2/9=110/2;
 7/8=1,9=1,25=1,44=-1/16;
 99//99;
 2/9=110/2;
 3/11=9,25=1,30=1,41=9900000,43=2,71=2,140=1/1;
 4/16=2,20=17,22=2,24=3,113=1,114=1/2;
 7/25=1,44=-1/16;
 1/5=1,6=50,8=10,10=4,11=1,18=20,26=1/3(-4);
 2/9=110/2;
 6/7=2,8=2,9=2,10=2,18=1/1;
 7/8=1,9=1,25=1,44=-1/16;
 99//99;
 -----
 *****
 -----
 Symbolic Z-matrix:
 Charge =  0 Multiplicity = 1
 C                     1.926     0.1722   -0.005 
 C                     0.7332   -1.561     0.2678 
 C                     0.4112    1.2555    1.075 
 C                    -0.531    -1.0586    0.8293 
 N                     1.7025    0.7364    1.2998 
 H                     0.6664   -1.9557   -0.7531 
 H                     1.3297   -2.1646    0.9585 
 H                    -0.2593    1.6608    1.8195 
 H                    -0.6848   -1.0875    1.9035 
 O                     1.2051    0.8334   -1.0306 
 C                     0.2136    1.5119   -0.3666 
 O                    -0.6834    2.1731   -0.8537 
 C                    -1.7411   -0.9446   -0.0186 
 O                    -1.7938   -1.287    -1.187 
 O                    -2.7058   -0.3299    0.7041 
 C                    -3.864    -0.0087   -0.0696 
 H                    -4.6046    0.4407    0.5972 
 H                    -4.2985   -0.9112   -0.5123 
 H                    -3.6099    0.72     -0.8471 
 C                     3.2267   -0.349    -0.3333 
 N                     4.2764   -0.7867   -0.567 
 H                     2.014     0.283     2.1522 
 
 Add virtual bond connecting atoms C2         and C1         Dist= 4.01D+00.

 GradGradGradGradGradGradGradGradGradGradGradGradGradGradGradGradGradGrad
 Berny optimization.
 Initialization pass.
                           ----------------------------
                           !    Initial Parameters    !
                           ! (Angstroms and Degrees)  !
 --------------------------                            --------------------------
 ! Name  Definition              Value          Derivative Info.                !
 --------------------------------------------------------------------------------
 ! R1    R(1,2)                  2.1216         calculate D2E/DX2 analytically  !
 ! R2    R(1,5)                  1.439          calculate D2E/DX2 analytically  !
 ! R3    R(1,10)                 1.4173         calculate D2E/DX2 analytically  !
 ! R4    R(1,20)                 1.4392         calculate D2E/DX2 analytically  !
 ! R5    R(2,4)                  1.4717         calculate D2E/DX2 analytically  !
 ! R6    R(2,6)                  1.0966         calculate D2E/DX2 analytically  !
 ! R7    R(2,7)                  1.0942         calculate D2E/DX2 analytically  !
 ! R8    R(3,5)                  1.4098         calculate D2E/DX2 analytically  !
 ! R9    R(3,8)                  1.0808         calculate D2E/DX2 analytically  !
 ! R10   R(3,11)                 1.4775         calculate D2E/DX2 analytically  !
 ! R11   R(4,9)                  1.0855         calculate D2E/DX2 analytically  !
 ! R12   R(4,13)                 1.482          calculate D2E/DX2 analytically  !
 ! R13   R(5,22)                 1.0145         calculate D2E/DX2 analytically  !
 ! R14   R(10,11)                1.3727         calculate D2E/DX2 analytically  !
 ! R15   R(11,12)                1.2162         calculate D2E/DX2 analytically  !
 ! R16   R(13,14)                1.2187         calculate D2E/DX2 analytically  !
 ! R17   R(13,15)                1.3531         calculate D2E/DX2 analytically  !
 ! R18   R(15,16)                1.4294         calculate D2E/DX2 analytically  !
 ! R19   R(16,17)                1.0932         calculate D2E/DX2 analytically  !
 ! R20   R(16,18)                1.0951         calculate D2E/DX2 analytically  !
 ! R21   R(16,19)                1.0955         calculate D2E/DX2 analytically  !
 ! R22   R(20,21)                1.1611         calculate D2E/DX2 analytically  !
 ! A1    A(2,1,5)               96.6836         calculate D2E/DX2 analytically  !
 ! A2    A(2,1,10)             100.8474         calculate D2E/DX2 analytically  !
 ! A3    A(2,1,20)             103.9809         calculate D2E/DX2 analytically  !
 ! A4    A(5,1,10)             113.2177         calculate D2E/DX2 analytically  !
 ! A5    A(5,1,20)             119.2878         calculate D2E/DX2 analytically  !
 ! A6    A(10,1,20)            117.6183         calculate D2E/DX2 analytically  !
 ! A7    A(1,2,4)              104.6627         calculate D2E/DX2 analytically  !
 ! A8    A(1,2,6)              102.0394         calculate D2E/DX2 analytically  !
 ! A9    A(1,2,7)              103.0222         calculate D2E/DX2 analytically  !
 ! A10   A(4,2,6)              115.1979         calculate D2E/DX2 analytically  !
 ! A11   A(4,2,7)              114.5681         calculate D2E/DX2 analytically  !
 ! A12   A(6,2,7)              114.9823         calculate D2E/DX2 analytically  !
 ! A13   A(5,3,8)              126.6183         calculate D2E/DX2 analytically  !
 ! A14   A(5,3,11)             109.9978         calculate D2E/DX2 analytically  !
 ! A15   A(8,3,11)             121.6052         calculate D2E/DX2 analytically  !
 ! A16   A(2,4,9)              119.3514         calculate D2E/DX2 analytically  !
 ! A17   A(2,4,13)             120.623          calculate D2E/DX2 analytically  !
 ! A18   A(9,4,13)             116.9056         calculate D2E/DX2 analytically  !
 ! A19   A(1,5,3)               98.1661         calculate D2E/DX2 analytically  !
 ! A20   A(1,5,22)             122.6115         calculate D2E/DX2 analytically  !
 ! A21   A(3,5,22)             125.436          calculate D2E/DX2 analytically  !
 ! A22   A(1,10,11)            104.3563         calculate D2E/DX2 analytically  !
 ! A23   A(3,11,10)            106.8333         calculate D2E/DX2 analytically  !
 ! A24   A(3,11,12)            125.7168         calculate D2E/DX2 analytically  !
 ! A25   A(10,11,12)           127.4253         calculate D2E/DX2 analytically  !
 ! A26   A(4,13,14)            124.2103         calculate D2E/DX2 analytically  !
 ! A27   A(4,13,15)            108.1513         calculate D2E/DX2 analytically  !
 ! A28   A(14,13,15)           127.5095         calculate D2E/DX2 analytically  !
 ! A29   A(13,15,16)           112.9966         calculate D2E/DX2 analytically  !
 ! A30   A(15,16,17)           108.1285         calculate D2E/DX2 analytically  !
 ! A31   A(15,16,18)           110.7999         calculate D2E/DX2 analytically  !
 ! A32   A(15,16,19)           110.2239         calculate D2E/DX2 analytically  !
 ! A33   A(17,16,18)           108.4554         calculate D2E/DX2 analytically  !
 ! A34   A(17,16,19)           108.4572         calculate D2E/DX2 analytically  !
 ! A35   A(18,16,19)           110.6899         calculate D2E/DX2 analytically  !
 ! A36   L(1,20,21,7,-1)       178.6613         calculate D2E/DX2 analytically  !
 ! A37   L(1,20,21,7,-2)       181.2752         calculate D2E/DX2 analytically  !
 ! D1    D(5,1,2,4)             48.0218         calculate D2E/DX2 analytically  !
 ! D2    D(5,1,2,6)            168.405          calculate D2E/DX2 analytically  !
 ! D3    D(5,1,2,7)            -72.0859         calculate D2E/DX2 analytically  !
 ! D4    D(10,1,2,4)           -67.2301         calculate D2E/DX2 analytically  !
 ! D5    D(10,1,2,6)            53.1531         calculate D2E/DX2 analytically  !
 ! D6    D(10,1,2,7)           172.6621         calculate D2E/DX2 analytically  !
 ! D7    D(20,1,2,4)           170.4849         calculate D2E/DX2 analytically  !
 ! D8    D(20,1,2,6)           -69.1319         calculate D2E/DX2 analytically  !
 ! D9    D(20,1,2,7)            50.3772         calculate D2E/DX2 analytically  !
 ! D10   D(2,1,5,3)            -77.6549         calculate D2E/DX2 analytically  !
 ! D11   D(2,1,5,22)            64.2671         calculate D2E/DX2 analytically  !
 ! D12   D(10,1,5,3)            27.2044         calculate D2E/DX2 analytically  !
 ! D13   D(10,1,5,22)          169.1264         calculate D2E/DX2 analytically  !
 ! D14   D(20,1,5,3)           172.1858         calculate D2E/DX2 analytically  !
 ! D15   D(20,1,5,22)          -45.8922         calculate D2E/DX2 analytically  !
 ! D16   D(2,1,10,11)           83.2911         calculate D2E/DX2 analytically  !
 ! D17   D(5,1,10,11)          -18.8984         calculate D2E/DX2 analytically  !
 ! D18   D(20,1,10,11)        -164.5064         calculate D2E/DX2 analytically  !
 ! D19   D(1,2,4,9)            -97.1235         calculate D2E/DX2 analytically  !
 ! D20   D(1,2,4,13)           103.4561         calculate D2E/DX2 analytically  !
 ! D21   D(6,2,4,9)            151.6908         calculate D2E/DX2 analytically  !
 ! D22   D(6,2,4,13)            -7.7296         calculate D2E/DX2 analytically  !
 ! D23   D(7,2,4,9)             14.9451         calculate D2E/DX2 analytically  !
 ! D24   D(7,2,4,13)          -144.4754         calculate D2E/DX2 analytically  !
 ! D25   D(8,3,5,1)            170.3514         calculate D2E/DX2 analytically  !
 ! D26   D(8,3,5,22)            29.9653         calculate D2E/DX2 analytically  !
 ! D27   D(11,3,5,1)           -24.7896         calculate D2E/DX2 analytically  !
 ! D28   D(11,3,5,22)         -165.1757         calculate D2E/DX2 analytically  !
 ! D29   D(5,3,11,10)           15.7905         calculate D2E/DX2 analytically  !
 ! D30   D(5,3,11,12)         -165.9069         calculate D2E/DX2 analytically  !
 ! D31   D(8,3,11,10)         -178.4594         calculate D2E/DX2 analytically  !
 ! D32   D(8,3,11,12)           -0.1568         calculate D2E/DX2 analytically  !
 ! D33   D(2,4,13,14)            2.5317         calculate D2E/DX2 analytically  !
 ! D34   D(2,4,13,15)         -173.6078         calculate D2E/DX2 analytically  !
 ! D35   D(9,4,13,14)         -157.3735         calculate D2E/DX2 analytically  !
 ! D36   D(9,4,13,15)           26.4871         calculate D2E/DX2 analytically  !
 ! D37   D(1,10,11,3)            1.736          calculate D2E/DX2 analytically  !
 ! D38   D(1,10,11,12)        -176.5286         calculate D2E/DX2 analytically  !
 ! D39   D(4,13,15,16)         172.3219         calculate D2E/DX2 analytically  !
 ! D40   D(14,13,15,16)         -3.6532         calculate D2E/DX2 analytically  !
 ! D41   D(13,15,16,17)        177.5006         calculate D2E/DX2 analytically  !
 ! D42   D(13,15,16,18)         58.77           calculate D2E/DX2 analytically  !
 ! D43   D(13,15,16,19)        -64.0987         calculate D2E/DX2 analytically  !
 --------------------------------------------------------------------------------
 Trust Radius=1.00D-01 FncErr=1.00D-07 GrdErr=1.00D-07 EigMax=2.50D+02 EigMin=1.00D-04
 Number of steps in this run=     50 maximum allowed number of steps=    132.
 Search for a saddle point of order  1.
 GradGradGradGradGradGradGradGradGradGradGradGradGradGradGradGradGradGrad

                          Input orientation:                          
 ---------------------------------------------------------------------
 Center     Atomic      Atomic             Coordinates (Angstroms)
 Number     Number       Type             X           Y           Z
 ---------------------------------------------------------------------
      1          6           0        1.926000    0.172200   -0.005000
      2          6           0        0.733200   -1.561000    0.267800
      3          6           0        0.411200    1.255500    1.075000
      4          6           0       -0.531000   -1.058600    0.829300
      5          7           0        1.702500    0.736400    1.299800
      6          1           0        0.666400   -1.955700   -0.753100
      7          1           0        1.329700   -2.164600    0.958500
      8          1           0       -0.259300    1.660800    1.819500
      9          1           0       -0.684800   -1.087500    1.903500
     10          8           0        1.205100    0.833400   -1.030600
     11          6           0        0.213600    1.511900   -0.366600
     12          8           0       -0.683400    2.173100   -0.853700
     13          6           0       -1.741100   -0.944600   -0.018600
     14          8           0       -1.793800   -1.287000   -1.187000
     15          8           0       -2.705800   -0.329900    0.704100
     16          6           0       -3.864000   -0.008700   -0.069600
     17          1           0       -4.604600    0.440700    0.597200
     18          1           0       -4.298500   -0.911200   -0.512300
     19          1           0       -3.609900    0.720000   -0.847100
     20          6           0        3.226700   -0.349000   -0.333300
     21          7           0        4.276400   -0.786700   -0.567000
     22          1           0        2.014000    0.283000    2.152200
 ---------------------------------------------------------------------
                    Distance matrix (angstroms):
                    1          2          3          4          5
     1  C    0.000000
     2  C    2.121597   0.000000
     3  C    2.152802   2.947529   0.000000
     4  C    2.871894   1.471696   2.510611   0.000000
     5  N    1.439019   2.698632   1.409771   2.903776   0.000000
     6  H    2.583448   1.096580   3.703901   2.177738   3.540523
     7  H    2.597025   1.094172   3.543205   2.168440   2.944701
     8  H    3.212517   3.711176   1.080795   2.906794   2.230081
     9  H    3.470662   2.215951   2.716114   1.085539   3.064354
    10  O    1.417299   2.764360   2.289541   3.170636   2.384865
    11  C    2.204056   3.180434   1.477497   2.931224   2.365399
    12  O    3.396007   4.148255   2.400005   3.646862   3.520538
    13  C    3.833412   2.565957   3.266312   1.481983   4.052446
    14  O    4.166929   2.928694   4.054994   2.390041   4.743673
    15  O    4.712589   3.678680   3.516639   2.297049   4.574381
    16  C    5.793185   4.863920   4.602787   3.608213   5.780688
    17  H    6.563800   5.710290   5.103963   4.346952   6.352999
    18  H    6.338415   5.133108   5.421751   4.001959   6.481535
    19  H    5.626314   5.030753   4.488928   3.931076   5.729838
    20  C    1.439184   2.836866   3.533379   3.996934   2.483605
    21  N    2.599945   3.721653   4.669745   5.013450   3.525583
    22  H    2.161835   2.931168   2.162194   3.166541   1.014490
                    6          7          8          9         10
     6  H    0.000000
     7  H    1.847480   0.000000
     8  H    4.533681   4.230831   0.000000
     9  H    3.104358   2.472120   2.782312   0.000000
    10  O    2.854169   3.600007   3.309400   3.983782   0.000000
    11  C    3.518332   4.064261   2.241615   3.566140   1.372709
    12  O    4.345005   5.113930   2.754689   4.270090   2.322180
    13  C    2.712539   3.445713   3.516028   2.197876   3.586854
    14  O    2.586119   3.889679   4.481435   3.289509   3.676134
    15  O    4.017262   4.440282   3.345499   2.469202   4.433688
    16  C    4.978203   5.716591   4.398840   3.894130   5.227660
    17  H    5.945543   6.491074   4.675927   4.405298   6.046202
    18  H    5.079291   5.950706   5.326125   4.350402   5.796713
    19  H    5.045290   5.998396   4.384334   4.403302   4.819830
    20  C    3.051697   2.926390   4.563556   4.566015   2.443596
    21  N    3.799118   3.592882   5.679631   5.550437   3.503217
    22  H    3.907502   2.807834   2.678976   3.037045   3.329786
                   11         12         13         14         15
    11  C    0.000000
    12  O    1.216166   0.000000
    13  C    3.158536   3.396494   0.000000
    14  O    3.540699   3.649160   1.218677   0.000000
    15  O    3.614073   3.575172   1.353070   2.307389   0.000000
    16  C    4.362024   3.935896   2.320606   2.677380   1.429408
    17  H    5.029059   4.525719   3.240046   3.750855   2.051997
    18  H    5.123640   4.764285   2.604832   2.621062   2.086680
    19  H    3.934099   3.267407   2.636232   2.727966   2.079882
    20  C    3.541586   4.681953   5.013264   5.178230   6.022551
    21  N    4.672266   5.782926   6.044500   6.122257   7.111644
    22  H    3.331064   4.459134   4.507788   5.302311   4.974852
                   16         17         18         19         20
    16  C    0.000000
    17  H    1.093193   0.000000
    18  H    1.095116   1.775478   0.000000
    19  H    1.095480   1.775793   1.801964   0.000000
    20  C    7.103757   7.925826   7.548294   6.938721   0.000000
    21  N    8.192607   9.040688   8.575978   8.033824   1.161063
    22  H    6.290657   6.800644   6.955094   6.388663   2.836860
                   21         22
    21  N    0.000000
    22  H    3.695505   0.000000
 Stoichiometry    C8H8N2O4
 Framework group  C1[X(C8H8N2O4)]
 Deg. of freedom    60
 Full point group                 C1      NOp   1
 Largest Abelian subgroup         C1      NOp   1
 Largest concise Abelian subgroup C1      NOp   1
                         Standard orientation:                         
 ---------------------------------------------------------------------
 Center     Atomic      Atomic             Coordinates (Angstroms)
 Number     Number       Type             X           Y           Z
 ---------------------------------------------------------------------
      1          6           0        1.901595    0.103954    0.015435
      2          6           0        0.662124   -1.607415    0.205441
      3          6           0        0.407708    1.179062    1.132128
      4          6           0       -0.592612   -1.096648    0.780457
      5          7           0        1.683388    0.616915    1.342097
      6          1           0        0.592488   -1.955723   -0.832018
      7          1           0        1.237674   -2.255800    0.872937
      8          1           0       -0.257403    1.569313    1.889393
      9          1           0       -0.754911   -1.167894    1.851428
     10          8           0        1.205623    0.827616   -0.984902
     11          6           0        0.227327    1.502648   -0.298170
     12          8           0       -0.648592    2.207669   -0.761604
     13          6           0       -1.793143   -0.914287   -0.069097
     14          8           0       -1.846252   -1.204357   -1.251558
     15          8           0       -2.746736   -0.306217    0.673673
     16          6           0       -3.890530    0.078505   -0.092442
     17          1           0       -4.624003    0.518004    0.588682
     18          1           0       -4.345153   -0.792264   -0.576548
     19          1           0       -3.611903    0.833189   -0.836012
     20          6           0        3.190634   -0.436629   -0.327198
     21          7           0        4.230253   -0.891301   -0.573236
     22          1           0        1.976778    0.119051    2.175910
 ---------------------------------------------------------------------
 Rotational constants (GHZ):           1.3537180           0.4678392           0.4214048
 Standard basis: STO-3G (5D, 7F)
 There are    78 symmetry adapted cartesian basis functions of A   symmetry.
 There are    78 symmetry adapted basis functions of A   symmetry.
    78 basis functions,   234 primitive gaussians,    78 cartesian basis functions
    51 alpha electrons       51 beta electrons
       nuclear repulsion energy       892.5014373949 Hartrees.
 NAtoms=   22 NActive=   22 NUniq=   22 SFac= 1.00D+00 NAtFMM=   60 NAOKFM=F Big=F
 Integral buffers will be    131072 words long.
 Raffenetti 1 integral format.
 Two-electron integral symmetry is turned on.
 External calculation of energy, first and second derivatives.
 Running external command "~/scripts/MiMe -H 'pbepbe def2svp' -EF 'wb97xd def2svp' -c 12 -m 48GB R"
         input file       "/local/jobs/1158153/Gau-1790511.EIn"
         output file      "/local/jobs/1158153/Gau-1790511.EOu"
         message file     "/local/jobs/1158153/Gau-1790511.EMs"
         fchk file        "/local/jobs/1158153/Gau-1790511.EFC"
         mat. el file     "/local/jobs/1158153/Gau-1790511.EUF"
 Read checkpoint file Gau-1790511_H.chk type G16
 Write formatted file Gau-1790511_H.fchk

deriv: 2

spelevel: wb97xd def2svp
gradlevel: wb97xd def2svp
hesslevel: pbepbe def2svp

runspe: False
runforce: True
runfreq: True

Running Gaussian ...

Parsing files ...
SPE file: Gau-1790511_F.out
FORCE file: Gau-1790511_F.out
HESS file: Gau-1790511_H.out

 ExternalExternalExternalExternalExternalExternalExternalExternalExternalExternal
 Output from external command:
 "~/scripts/MiMe -H 'pbepbe def2svp' -EF 'wb97xd def2svp' -c 12 -m 48GB R /local/jobs/1158153/Gau-1790511.EIn /local/jobs/1158153/Gau-1790511.EOu /local/jobs/1158153/Gau-1790511.EMs /local/jobs/1158153/Gau-1790511.EFC /local/jobs/1158153/Gau-1790511.EUF"
  
 --------------------------------------------------
 Force calculation at wb97xd def2svp
 Hessian calculation at pbepbe def2svp
 ExternalExternalExternalExternalExternalExternalExternalExternalExternalExternal

 Recovered energy= -719.169780601     dipole=     -0.727200000000     -0.282600000000      6.089500000000
 Energy=    -719.169781     NIter=   0.
 Dipole moment=      -0.727200      -0.282600       6.089500
 ***** Axes restored to original set *****
 -------------------------------------------------------------------
 Center     Atomic                   Forces (Hartrees/Bohr)
 Number     Number              X              Y              Z
 -------------------------------------------------------------------
      1        6          -0.007809128   -0.033880465    0.012001507
      2        6          -0.037738720    0.019364654    0.012982594
      3        6           0.021030036   -0.025659028    0.009116698
      4        6           0.052942876   -0.002016738   -0.024704305
      5        7          -0.053825496    0.022031473   -0.080129080
      6        1           0.001869437    0.003600916   -0.000072009
      7        1           0.006664384    0.004129268   -0.001545387
      8        1           0.003233376    0.004460791    0.006453284
      9        1          -0.001086389    0.001641267    0.004297616
     10        8           0.022565221   -0.008158445    0.048475282
     11        6          -0.036398399    0.019679857    0.014875119
     12        8           0.030671408   -0.023132674    0.001406252
     13        6           0.015579323    0.006459839   -0.005942299
     14        8          -0.009581802    0.010777451    0.027120315
     15        8          -0.006323560   -0.007241723   -0.024801972
     16        6          -0.002091419    0.001332276    0.006068176
     17        1           0.001420962    0.000504077    0.005021870
     18        1           0.000740954   -0.001497495   -0.003464945
     19        1           0.001600462   -0.000862124   -0.003344665
     20        6           0.006686364    0.007692508   -0.004444712
     21        7          -0.010283729    0.001597627    0.002580480
     22        1           0.000133837   -0.000823308   -0.001949818
 -------------------------------------------------------------------
 Cartesian Forces:  Max     0.080129080 RMS     0.020056788
 FormGI is forming the generalized inverse of G from B-inverse, IUseBI=4.

 GradGradGradGradGradGradGradGradGradGradGradGradGradGradGradGradGradGrad
 Berny optimization.
 Internal  Forces:  Max     0.056108454 RMS     0.014922348
 Search for a saddle point.
 Step number   1 out of a maximum of   50
 All quantities printed in internal units (Hartrees-Bohrs-Radians)
 Swapping is turned off.
 Second derivative matrix not updated -- analytic derivatives used.
 ITU=  0
     Eigenvalues ---   -0.12514  -0.08090  -0.04348  -0.03997  -0.01472
     Eigenvalues ---   -0.00839  -0.00652   0.00275   0.00669   0.00865
     Eigenvalues ---    0.01055   0.01278   0.01649   0.02275   0.03314
     Eigenvalues ---    0.03558   0.04107   0.04661   0.05096   0.05627
     Eigenvalues ---    0.06039   0.06534   0.07135   0.07635   0.07830
     Eigenvalues ---    0.08596   0.08763   0.10401   0.11354   0.11868
     Eigenvalues ---    0.15438   0.16456   0.16476   0.16809   0.18811
     Eigenvalues ---    0.19771   0.20721   0.21139   0.22373   0.23007
     Eigenvalues ---    0.27098   0.27716   0.32328   0.33936   0.34461
     Eigenvalues ---    0.35271   0.35525   0.35667   0.35719   0.35999
     Eigenvalues ---    0.37033   0.37125   0.37670   0.39372   0.42220
     Eigenvalues ---    0.46692   0.47060   0.82518   0.83161   1.25641
 Eigenvectors required to have negative eigenvalues:
                          A7        A36       A3        D10       D16
   1                   -0.40046   0.31698   0.28839   0.27814  -0.23975
                          A37       D34       D39       A9        R1
   1                    0.21241   0.19476  -0.19419   0.19234  -0.18950
 RFO step:  Lambda0=9.829138830D-03 Lambda=-8.48504694D-02.
 Linear search not attempted -- option 19 set.
 Maximum step size (   0.100) exceeded in Quadratic search.
    -- Step size scaled by   0.160
 Iteration  1 RMS(Cart)=  0.05529804 RMS(Int)=  0.00089095
 Iteration  2 RMS(Cart)=  0.00137631 RMS(Int)=  0.00001562
 Iteration  3 RMS(Cart)=  0.00000054 RMS(Int)=  0.00001562
 Variable       Old X    -DE/DX   Delta X   Delta X   Delta X     New X
                                 (Linear)    (Quad)   (Total)
    R1        4.00924  -0.04413   0.00000  -0.04663  -0.04663   3.96261
    R2        2.71935  -0.04058   0.00000  -0.01743  -0.01742   2.70194
    R3        2.67831  -0.04662   0.00000  -0.01908  -0.01909   2.65922
    R4        2.71966  -0.00619   0.00000  -0.00032  -0.00032   2.71934
    R5        2.78110  -0.05013   0.00000  -0.01863  -0.01863   2.76247
    R6        2.07224  -0.00134   0.00000  -0.00060  -0.00060   2.07164
    R7        2.06768   0.00036   0.00000   0.00028   0.00028   2.06797
    R8        2.66408  -0.03886   0.00000  -0.01630  -0.01628   2.64780
    R9        2.04241   0.00411   0.00000   0.00126   0.00126   2.04367
   R10        2.79206  -0.01716   0.00000  -0.00628  -0.00628   2.78578
   R11        2.05137   0.00436   0.00000   0.00111   0.00111   2.05248
   R12        2.80054  -0.00074   0.00000   0.00048   0.00048   2.80103
   R13        1.91711  -0.00123   0.00000  -0.00028  -0.00028   1.91682
   R14        2.59404   0.00473   0.00000   0.00506   0.00504   2.59909
   R15        2.29822  -0.03576   0.00000  -0.00717  -0.00717   2.29105
   R16        2.30297  -0.02862   0.00000  -0.00295  -0.00295   2.30001
   R17        2.55693  -0.01117   0.00000  -0.00661  -0.00661   2.55032
   R18        2.70119  -0.00379   0.00000  -0.00131  -0.00131   2.69988
   R19        2.06584   0.00231   0.00000   0.00041   0.00041   2.06624
   R20        2.06947   0.00234   0.00000   0.00111   0.00111   2.07058
   R21        2.07016   0.00217   0.00000   0.00069   0.00069   2.07085
   R22        2.19409  -0.01042   0.00000  -0.00150  -0.00150   2.19259
    A1        1.68745  -0.00818   0.00000   0.00581   0.00580   1.69324
    A2        1.76012  -0.00731   0.00000   0.00005   0.00007   1.76019
    A3        1.81481   0.01648   0.00000  -0.00992  -0.00993   1.80487
    A4        1.97602  -0.01403   0.00000  -0.01110  -0.01109   1.96494
    A5        2.08196   0.00871   0.00000   0.01112   0.01115   2.09311
    A6        2.05283   0.00354   0.00000   0.00242   0.00240   2.05523
    A7        1.82671  -0.05611   0.00000  -0.00543  -0.00544   1.82127
    A8        1.78092   0.01303   0.00000  -0.00359  -0.00363   1.77730
    A9        1.79808   0.01458   0.00000  -0.00274  -0.00273   1.79535
   A10        2.01058   0.01196   0.00000  -0.00590  -0.00594   2.00465
   A11        1.99959   0.01495   0.00000   0.01505   0.01505   2.01464
   A12        2.00682  -0.00586   0.00000  -0.00060  -0.00061   2.00621
   A13        2.20991   0.00335   0.00000  -0.00258  -0.00259   2.20732
   A14        1.91982  -0.01668   0.00000  -0.00764  -0.00763   1.91220
   A15        2.12241   0.01251   0.00000   0.00885   0.00883   2.13124
   A16        2.08307   0.00154   0.00000   0.01329   0.01328   2.09635
   A17        2.10527  -0.00194   0.00000  -0.02742  -0.02743   2.07783
   A18        2.04039   0.00136   0.00000   0.01127   0.01127   2.05165
   A19        1.71332   0.02895   0.00000   0.01571   0.01574   1.72906
   A20        2.13997  -0.01329   0.00000  -0.00689  -0.00689   2.13308
   A21        2.18927  -0.01672   0.00000  -0.00823  -0.00824   2.18103
   A22        1.82136   0.00994   0.00000   0.00825   0.00822   1.82958
   A23        1.86459  -0.00893   0.00000  -0.00685  -0.00687   1.85772
   A24        2.19417   0.02058   0.00000   0.01459   0.01460   2.20877
   A25        2.22399  -0.01156   0.00000  -0.00759  -0.00759   2.21640
   A26        2.16788   0.00471   0.00000  -0.00861  -0.00863   2.15925
   A27        1.88760   0.01642   0.00000   0.02135   0.02133   1.90892
   A28        2.22546  -0.02089   0.00000  -0.01202  -0.01204   2.21342
   A29        1.97216   0.01238   0.00000  -0.00183  -0.00183   1.97034
   A30        1.88720  -0.00596   0.00000  -0.00153  -0.00154   1.88566
   A31        1.93382   0.00087   0.00000  -0.00229  -0.00229   1.93153
   A32        1.92377  -0.00029   0.00000   0.00054   0.00053   1.92430
   A33        1.89290   0.00372   0.00000   0.00324   0.00324   1.89614
   A34        1.89293   0.00385   0.00000   0.00404   0.00404   1.89698
   A35        1.93190  -0.00213   0.00000  -0.00375  -0.00375   1.92815
   A36        3.11823  -0.00543   0.00000  -0.03340  -0.03340   3.08483
   A37        3.16385  -0.00107   0.00000  -0.04309  -0.04309   3.12076
    D1        0.83814  -0.00940   0.00000   0.00755   0.00756   0.84570
    D2        2.93922  -0.01304   0.00000  -0.00270  -0.00268   2.93654
    D3       -1.25814  -0.00892   0.00000  -0.00577  -0.00576  -1.26389
    D4       -1.17339   0.00901   0.00000   0.01755   0.01754  -1.15584
    D5        0.92770   0.00537   0.00000   0.00730   0.00730   0.93500
    D6        3.01352   0.00948   0.00000   0.00423   0.00423   3.01775
    D7        2.97552   0.00183   0.00000   0.01867   0.01866   2.99418
    D8       -1.20658  -0.00181   0.00000   0.00843   0.00842  -1.19816
    D9        0.87925   0.00230   0.00000   0.00536   0.00534   0.88459
   D10       -1.35533   0.01967   0.00000   0.00406   0.00409  -1.35124
   D11        1.12167   0.01457   0.00000   0.00297   0.00299   1.12466
   D12        0.47481   0.00435   0.00000   0.00426   0.00427   0.47907
   D13        2.95181  -0.00075   0.00000   0.00317   0.00317   2.95498
   D14        3.00521   0.00236   0.00000   0.00849   0.00850   3.01371
   D15       -0.80097  -0.00274   0.00000   0.00740   0.00740  -0.79357
   D16        1.45370  -0.01504   0.00000   0.00133   0.00136   1.45506
   D17       -0.32984   0.00173   0.00000  -0.00203  -0.00200  -0.33183
   D18       -2.87118   0.00160   0.00000  -0.00957  -0.00956  -2.88073
   D19       -1.69512  -0.00218   0.00000  -0.00861  -0.00859  -1.70372
   D20        1.80565  -0.00551   0.00000  -0.00191  -0.00189   1.80376
   D21        2.64750   0.01067   0.00000   0.00171   0.00170   2.64920
   D22       -0.13491   0.00734   0.00000   0.00841   0.00840  -0.12651
   D23        0.26084  -0.01140   0.00000  -0.00810  -0.00812   0.25272
   D24       -2.52157  -0.01473   0.00000  -0.00141  -0.00141  -2.52298
   D25        2.97319  -0.00104   0.00000   0.00092   0.00089   2.97408
   D26        0.52299   0.00155   0.00000   0.00087   0.00086   0.52386
   D27       -0.43266  -0.00296   0.00000  -0.00351  -0.00351  -0.43617
   D28       -2.88286  -0.00038   0.00000  -0.00356  -0.00354  -2.88640
   D29        0.27560  -0.00359   0.00000  -0.00242  -0.00244   0.27316
   D30       -2.89562  -0.00078   0.00000   0.00249   0.00252  -2.89310
   D31       -3.11470  -0.00672   0.00000  -0.00844  -0.00849  -3.12319
   D32       -0.00274  -0.00391   0.00000  -0.00353  -0.00353  -0.00627
   D33        0.04419   0.00199   0.00000  -0.00929  -0.00928   0.03491
   D34       -3.03003  -0.00084   0.00000  -0.01964  -0.01964  -3.04967
   D35       -2.74669  -0.00132   0.00000  -0.00341  -0.00341  -2.75009
   D36        0.46229  -0.00415   0.00000  -0.01375  -0.01377   0.44852
   D37        0.03030   0.00136   0.00000   0.00303   0.00303   0.03333
   D38       -3.08100  -0.00223   0.00000  -0.00249  -0.00245  -3.08346
   D39        3.00758   0.00274   0.00000   0.01584   0.01583   3.02342
   D40       -0.06376  -0.00156   0.00000   0.00482   0.00483  -0.05893
   D41        3.09797   0.00021   0.00000  -0.00238  -0.00238   3.09560
   D42        1.02573  -0.00117   0.00000  -0.00405  -0.00405   1.02168
   D43       -1.11873   0.00115   0.00000   0.00191   0.00190  -1.11683
         Item               Value     Threshold  Converged?
 Maximum Force            0.056108     0.000450     NO 
 RMS     Force            0.014922     0.000300     NO 
 Maximum Displacement     0.185946     0.001800     NO 
 RMS     Displacement     0.055523     0.001200     NO 
 Predicted change in Energy=-9.074498D-03
 GradGradGradGradGradGradGradGradGradGradGradGradGradGradGradGradGradGrad

                          Input orientation:                          
 ---------------------------------------------------------------------
 Center     Atomic      Atomic             Coordinates (Angstroms)
 Number     Number       Type             X           Y           Z
 ---------------------------------------------------------------------
      1          6           0        1.905883    0.167817   -0.007344
      2          6           0        0.723914   -1.538373    0.290888
      3          6           0        0.432077    1.265386    1.116180
      4          6           0       -0.518435   -1.022951    0.863499
      5          7           0        1.718826    0.738817    1.290079
      6          1           0        0.633530   -1.930264   -0.728938
      7          1           0        1.336461   -2.144264    0.965587
      8          1           0       -0.203533    1.677573    1.887972
      9          1           0       -0.672323   -1.042694    1.938487
     10          8           0        1.165259    0.832587   -1.002213
     11          6           0        0.193196    1.522100   -0.315678
     12          8           0       -0.702170    2.187549   -0.790383
     13          6           0       -1.719153   -0.917364    0.000852
     14          8           0       -1.747512   -1.270098   -1.163683
     15          8           0       -2.712665   -0.315759    0.688133
     16          6           0       -3.857143   -0.035856   -0.119982
     17          1           0       -4.625282    0.404335    0.521686
     18          1           0       -4.254397   -0.957221   -0.560259
     19          1           0       -3.600317    0.684369   -0.904961
     20          6           0        3.187228   -0.373948   -0.375328
     21          7           0        4.193123   -0.874206   -0.665398
     22          1           0        2.052033    0.284964    2.133806
 ---------------------------------------------------------------------
                    Distance matrix (angstroms):
                    1          2          3          4          5
     1  C    0.000000
     2  C    2.096921   0.000000
     3  C    2.153850   2.937233   0.000000
     4  C    2.837889   1.461839   2.490745   0.000000
     5  N    1.429803   2.678399   1.401156   2.879432   0.000000
     6  H    2.557641   1.096263   3.695568   2.164739   3.518279
     7  H    2.572266   1.094320   3.530765   2.169885   2.926371
     8  H    3.212666   3.708523   1.081462   2.905433   2.221306
     9  H    3.449455   2.215797   2.687586   1.086126   3.051525
    10  O    1.407199   2.736484   2.283081   3.123896   2.360049
    11  C    2.205097   3.164819   1.474172   2.893815   2.349369
    12  O    3.390341   4.133443   2.402474   3.616130   3.505477
    13  C    3.783989   2.537390   3.261310   1.482239   4.027994
    14  O    4.092923   2.880225   4.046858   2.383523   4.698104
    15  O    4.695585   3.669150   3.545793   2.312038   4.594842
    16  C    5.767725   4.838642   4.649595   3.617813   5.803432
    17  H    6.556823   5.695724   5.164466   4.361213   6.399219
    18  H    6.286531   5.083873   5.451005   3.998602   6.479172
    19  H    5.602748   5.006956   4.547834   3.942131   5.754515
    20  C    1.439015   2.804932   3.535940   3.960786   2.483552
    21  N    2.598136   3.659373   4.679459   4.955646   3.542299
    22  H    2.149327   2.912869   2.149663   3.151449   1.014340
                    6          7          8          9         10
     6  H    0.000000
     7  H    1.846977   0.000000
     8  H    4.534907   4.222417   0.000000
     9  H    3.099707   2.489016   2.760827   0.000000
    10  O    2.826794   3.572561   3.307682   3.942220   0.000000
    11  C    3.504782   4.048570   2.244469   3.522577   1.375379
    12  O    4.329464   5.099417   2.771697   4.228722   2.316913
    13  C    2.663396   3.431148   3.548524   2.205899   3.519702
    14  O    2.508821   3.848227   4.515001   3.291080   3.596052
    15  O    3.976397   4.451498   3.421802   2.500963   4.383407
    16  C    4.911797   5.709411   4.507393   3.923532   5.172721
    17  H    5.888082   6.498829   4.799973   4.441520   6.003002
    18  H    4.986691   5.915654   5.417146   4.368328   5.724631
    19  H    4.979232   5.989315   4.508334   4.431828   4.768872
    20  C    3.011400   2.890918   4.563828   4.549405   2.436611
    21  N    3.713489   3.526142   5.688748   5.520975   3.492069
    22  H    3.887762   2.788894   2.662211   3.036929   3.304675
                   11         12         13         14         15
    11  C    0.000000
    12  O    1.212372   0.000000
    13  C    3.115807   3.361665   0.000000
    14  O    3.504544   3.631448   1.217115   0.000000
    15  O    3.581814   3.534777   1.349573   2.295976   0.000000
    16  C    4.344050   3.917502   2.315742   2.657670   1.428715
    17  H    5.016802   4.504685   3.234770   3.731723   2.050450
    18  H    5.097836   4.749826   2.596901   2.597399   2.084920
    19  H    3.929350   3.266793   2.631506   2.705507   2.079936
    20  C    3.544402   4.675570   4.950695   5.077031   5.995254
    21  N    4.675896   5.775280   5.949854   5.974627   7.059307
    22  H    3.314477   4.444811   4.496324   5.265757   5.015295
                   16         17         18         19         20
    16  C    0.000000
    17  H    1.093409   0.000000
    18  H    1.095704   1.778200   0.000000
    19  H    1.095845   1.778846   1.800405   0.000000
    20  C    7.057101   7.902257   7.466738   6.889943   0.000000
    21  N    8.112157   8.989332   8.448582   7.951368   1.160269
    22  H    6.332524   6.870205   6.969366   6.429829   2.831711
                   21         22
    21  N    0.000000
    22  H    3.709917   0.000000
 Stoichiometry    C8H8N2O4
 Framework group  C1[X(C8H8N2O4)]
 Deg. of freedom    60
 Full point group                 C1      NOp   1
 Largest Abelian subgroup         C1      NOp   1
 Largest concise Abelian subgroup C1      NOp   1
                         Standard orientation:                         
 ---------------------------------------------------------------------
 Center     Atomic      Atomic             Coordinates (Angstroms)
 Number     Number       Type             X           Y           Z
 ---------------------------------------------------------------------
      1          6           0        1.887060    0.115877    0.009248
      2          6           0        0.672271   -1.568832    0.297552
      3          6           0        0.421795    1.240659    1.116918
      4          6           0       -0.566400   -1.030873    0.857255
      5          7           0        1.697265    0.691696    1.304141
      6          1           0        0.585091   -1.960334   -0.722702
      7          1           0        1.267318   -2.184594    0.978943
      8          1           0       -0.214056    1.664947    1.881925
      9          1           0       -0.731253   -1.046564    1.930683
     10          8           0        1.168171    0.792370   -0.993631
     11          6           0        0.201675    1.499769   -0.317513
     12          8           0       -0.677063    2.180315   -0.801790
     13          6           0       -1.756465   -0.905197   -0.017379
     14          8           0       -1.779508   -1.258821   -1.181762
     15          8           0       -2.745965   -0.285313    0.659365
     16          6           0       -3.877265    0.013726   -0.160367
     17          1           0       -4.643835    0.468190    0.473176
     18          1           0       -4.286335   -0.901036   -0.603582
     19          1           0       -3.600008    0.728336   -0.943525
     20          6           0        3.162226   -0.448856   -0.345423
     21          7           0        4.161961   -0.967134   -0.624962
     22          1           0        2.014039    0.233085    2.151617
 ---------------------------------------------------------------------
 Rotational constants (GHZ):           1.3510188           0.4758052           0.4276509
 Standard basis: STO-3G (5D, 7F)
 There are    78 symmetry adapted cartesian basis functions of A   symmetry.
 There are    78 symmetry adapted basis functions of A   symmetry.
    78 basis functions,   234 primitive gaussians,    78 cartesian basis functions
    51 alpha electrons       51 beta electrons
       nuclear repulsion energy       896.7510411770 Hartrees.
 NAtoms=   22 NActive=   22 NUniq=   22 SFac= 1.00D+00 NAtFMM=   60 NAOKFM=F Big=F
 Integral buffers will be    131072 words long.
 Raffenetti 1 integral format.
 Two-electron integral symmetry is turned on.
 External calculation of energy, first and second derivatives.
 Running external command "~/scripts/MiMe -H 'pbepbe def2svp' -EF 'wb97xd def2svp' -c 12 -m 48GB R"
         input file       "/local/jobs/1158153/Gau-1790511.EIn"
         output file      "/local/jobs/1158153/Gau-1790511.EOu"
         message file     "/local/jobs/1158153/Gau-1790511.EMs"
         fchk file        "/local/jobs/1158153/Gau-1790511.EFC"
         mat. el file     "/local/jobs/1158153/Gau-1790511.EUF"
 Read checkpoint file Gau-1790511_H.chk type G16
 Write formatted file Gau-1790511_H.fchk

deriv: 2

spelevel: wb97xd def2svp
gradlevel: wb97xd def2svp
hesslevel: pbepbe def2svp

runspe: False
runforce: True
runfreq: True

Running Gaussian ...

Parsing files ...
SPE file: Gau-1790511_F.out
FORCE file: Gau-1790511_F.out
HESS file: Gau-1790511_H.out

 ExternalExternalExternalExternalExternalExternalExternalExternalExternalExternal
 Output from external command:
 "~/scripts/MiMe -H 'pbepbe def2svp' -EF 'wb97xd def2svp' -c 12 -m 48GB R /local/jobs/1158153/Gau-1790511.EIn /local/jobs/1158153/Gau-1790511.EOu /local/jobs/1158153/Gau-1790511.EMs /local/jobs/1158153/Gau-1790511.EFC /local/jobs/1158153/Gau-1790511.EUF"
  
 --------------------------------------------------
 Force calculation at wb97xd def2svp
 Hessian calculation at pbepbe def2svp
 ExternalExternalExternalExternalExternalExternalExternalExternalExternalExternal

 Recovered energy= -719.178334753     dipole=     -0.595700000000      0.054300000000      6.119600000000
 Energy=    -719.178335     NIter=   0.
 Dipole moment=      -0.595700       0.054300       6.119600
 ***** Axes restored to original set *****
 -------------------------------------------------------------------
 Center     Atomic                   Forces (Hartrees/Bohr)
 Number     Number              X              Y              Z
 -------------------------------------------------------------------
      1        6          -0.008742294   -0.033575650    0.011098585
      2        6          -0.030324583    0.018292862    0.012051394
      3        6           0.017182464   -0.024460147    0.006812130
      4        6           0.045398137   -0.000228866   -0.022454905
      5        7          -0.048351629    0.020447866   -0.068032924
      6        1           0.001974101    0.003029137   -0.000078674
      7        1           0.005837845    0.003830729   -0.001347854
      8        1           0.003480483    0.004135075    0.005543827
      9        1          -0.001352645    0.000961383    0.003592189
     10        8           0.021591745   -0.005902885    0.041870695
     11        6          -0.030926597    0.017690803    0.013819830
     12        8           0.025948673   -0.020425481    0.000074996
     13        6           0.013289028    0.005401350   -0.004483044
     14        8          -0.009239888    0.009723127    0.022572148
     15        8          -0.004182324   -0.006563536   -0.021661593
     16        6          -0.002535468    0.001238538    0.005568147
     17        1           0.001313124    0.000624136    0.004674670
     18        1           0.000691569   -0.001135360   -0.003065640
     19        1           0.001530149   -0.000797223   -0.002835086
     20        6           0.004584832    0.004994691   -0.005332640
     21        7          -0.007528235    0.003153948    0.003305554
     22        1           0.000361512   -0.000434499   -0.001691804
 -------------------------------------------------------------------
 Cartesian Forces:  Max     0.068032924 RMS     0.017514406
 FormGI is forming the generalized inverse of G from B-inverse, IUseBI=4.

 GradGradGradGradGradGradGradGradGradGradGradGradGradGradGradGradGradGrad
 Berny optimization.
 Internal  Forces:  Max     0.051716345 RMS     0.013196768
 Search for a saddle point.
 Step number   2 out of a maximum of   50
 All quantities printed in internal units (Hartrees-Bohrs-Radians)
 Swapping is turned off.
 Second derivative matrix not updated -- analytic derivatives used.
 ITU=  0  0
     Eigenvalues ---   -0.11357  -0.07360  -0.04224  -0.03867  -0.01326
     Eigenvalues ---   -0.00926  -0.00626   0.00328   0.00676   0.00965
     Eigenvalues ---    0.01088   0.01463   0.01719   0.02532   0.03384
     Eigenvalues ---    0.03718   0.04340   0.04800   0.05119   0.05784
     Eigenvalues ---    0.06171   0.06701   0.07142   0.07616   0.07984
     Eigenvalues ---    0.08673   0.09223   0.10584   0.11474   0.12755
     Eigenvalues ---    0.15664   0.16600   0.16715   0.17050   0.19262
     Eigenvalues ---    0.20364   0.21293   0.21801   0.23175   0.23307
     Eigenvalues ---    0.27799   0.28741   0.33388   0.34578   0.34997
     Eigenvalues ---    0.35177   0.35558   0.35700   0.35807   0.37191
     Eigenvalues ---    0.37301   0.37466   0.37869   0.39226   0.43227
     Eigenvalues ---    0.47054   0.47283   0.83926   0.84941   1.26304
 Eigenvectors required to have negative eigenvalues:
                          A7        A36       A3        A37       D10
   1                   -0.35393   0.30949   0.27896   0.26710   0.26144
                          D16       A17       D39       D34       A9
   1                   -0.23075   0.20665  -0.19066   0.18668   0.17708
 RFO step:  Lambda0=1.051040877D-02 Lambda=-7.55094408D-02.
 Linear search not attempted -- option 19 set.
 Maximum step size (   0.100) exceeded in Quadratic search.
    -- Step size scaled by   0.168
 Iteration  1 RMS(Cart)=  0.05674904 RMS(Int)=  0.00097047
 Iteration  2 RMS(Cart)=  0.00145615 RMS(Int)=  0.00001561
 Iteration  3 RMS(Cart)=  0.00000072 RMS(Int)=  0.00001561
 Variable       Old X    -DE/DX   Delta X   Delta X   Delta X     New X
                                 (Linear)    (Quad)   (Total)
    R1        3.96261  -0.04167   0.00000  -0.04862  -0.04862   3.91398
    R2        2.70194  -0.03504   0.00000  -0.01507  -0.01507   2.68687
    R3        2.65922  -0.04047   0.00000  -0.01595  -0.01596   2.64326
    R4        2.71934  -0.00517   0.00000   0.00036   0.00036   2.71970
    R5        2.76247  -0.04201   0.00000  -0.01506  -0.01506   2.74741
    R6        2.07164  -0.00117   0.00000  -0.00064  -0.00064   2.07099
    R7        2.06797   0.00033   0.00000   0.00022   0.00022   2.06819
    R8        2.64780  -0.03298   0.00000  -0.01417  -0.01415   2.63365
    R9        2.04367   0.00349   0.00000   0.00119   0.00119   2.04486
   R10        2.78578  -0.01474   0.00000  -0.00573  -0.00573   2.78005
   R11        2.05248   0.00373   0.00000   0.00092   0.00092   2.05340
   R12        2.80103  -0.00054   0.00000   0.00144   0.00144   2.80247
   R13        1.91682  -0.00109   0.00000  -0.00024  -0.00024   1.91658
   R14        2.59909   0.00366   0.00000   0.00441   0.00440   2.60349
   R15        2.29105  -0.03040   0.00000  -0.00624  -0.00624   2.28481
   R16        2.30001  -0.02420   0.00000  -0.00242  -0.00242   2.29759
   R17        2.55032  -0.00944   0.00000  -0.00614  -0.00614   2.54418
   R18        2.69988  -0.00327   0.00000  -0.00094  -0.00094   2.69894
   R19        2.06624   0.00207   0.00000   0.00035   0.00035   2.06660
   R20        2.07058   0.00194   0.00000   0.00096   0.00096   2.07154
   R21        2.07085   0.00187   0.00000   0.00068   0.00068   2.07152
   R22        2.19259  -0.00871   0.00000  -0.00123  -0.00123   2.19136
    A1        1.69324  -0.00861   0.00000   0.00624   0.00622   1.69947
    A2        1.76019  -0.00641   0.00000  -0.00022  -0.00020   1.75999
    A3        1.80487   0.01643   0.00000  -0.00928  -0.00931   1.79557
    A4        1.96494  -0.01213   0.00000  -0.01073  -0.01072   1.95422
    A5        2.09311   0.00754   0.00000   0.01249   0.01252   2.10563
    A6        2.05523   0.00261   0.00000   0.00026   0.00025   2.05548
    A7        1.82127  -0.05172   0.00000  -0.00535  -0.00538   1.81589
    A8        1.77730   0.01152   0.00000  -0.00579  -0.00584   1.77145
    A9        1.79535   0.01436   0.00000  -0.00069  -0.00068   1.79467
   A10        2.00465   0.01146   0.00000  -0.00696  -0.00702   1.99763
   A11        2.01464   0.01287   0.00000   0.01587   0.01588   2.03052
   A12        2.00621  -0.00543   0.00000  -0.00049  -0.00050   2.00571
   A13        2.20732   0.00252   0.00000  -0.00336  -0.00337   2.20395
   A14        1.91220  -0.01413   0.00000  -0.00656  -0.00655   1.90564
   A15        2.13124   0.01075   0.00000   0.00851   0.00849   2.13972
   A16        2.09635  -0.00066   0.00000   0.01294   0.01293   2.10928
   A17        2.07783   0.00287   0.00000  -0.02639  -0.02640   2.05143
   A18        2.05165  -0.00107   0.00000   0.01099   0.01098   2.06264
   A19        1.72906   0.02462   0.00000   0.01389   0.01391   1.74298
   A20        2.13308  -0.01136   0.00000  -0.00613  -0.00613   2.12695
   A21        2.18103  -0.01438   0.00000  -0.00728  -0.00728   2.17375
   A22        1.82958   0.00890   0.00000   0.00751   0.00748   1.83706
   A23        1.85772  -0.00825   0.00000  -0.00631  -0.00633   1.85140
   A24        2.20877   0.01878   0.00000   0.01368   0.01369   2.22246
   A25        2.21640  -0.01047   0.00000  -0.00728  -0.00727   2.20913
   A26        2.15925   0.00632   0.00000  -0.00849  -0.00850   2.15075
   A27        1.90892   0.01087   0.00000   0.02048   0.02047   1.92939
   A28        2.21342  -0.01705   0.00000  -0.01151  -0.01153   2.20189
   A29        1.97034   0.01357   0.00000  -0.00154  -0.00154   1.96879
   A30        1.88566  -0.00575   0.00000  -0.00144  -0.00144   1.88422
   A31        1.93153   0.00119   0.00000  -0.00180  -0.00180   1.92974
   A32        1.92430  -0.00033   0.00000  -0.00031  -0.00031   1.92400
   A33        1.89614   0.00338   0.00000   0.00352   0.00352   1.89966
   A34        1.89698   0.00346   0.00000   0.00403   0.00403   1.90100
   A35        1.92815  -0.00192   0.00000  -0.00376  -0.00377   1.92438
   A36        3.08483  -0.00210   0.00000  -0.02971  -0.02971   3.05512
   A37        3.12076   0.00170   0.00000  -0.05004  -0.05004   3.07072
    D1        0.84570  -0.00912   0.00000   0.01075   0.01075   0.85645
    D2        2.93654  -0.01177   0.00000  -0.00140  -0.00138   2.93516
    D3       -1.26389  -0.00802   0.00000  -0.00439  -0.00437  -1.26827
    D4       -1.15584   0.00726   0.00000   0.02032   0.02031  -1.13553
    D5        0.93500   0.00461   0.00000   0.00816   0.00817   0.94317
    D6        3.01775   0.00836   0.00000   0.00518   0.00518   3.02294
    D7        2.99418   0.00079   0.00000   0.02361   0.02359   3.01777
    D8       -1.19816  -0.00186   0.00000   0.01146   0.01145  -1.18671
    D9        0.88459   0.00189   0.00000   0.00847   0.00846   0.89305
   D10       -1.35124   0.01837   0.00000   0.00523   0.00527  -1.34598
   D11        1.12466   0.01359   0.00000   0.00417   0.00419   1.12885
   D12        0.47907   0.00439   0.00000   0.00533   0.00533   0.48440
   D13        2.95498  -0.00038   0.00000   0.00426   0.00426   2.95923
   D14        3.01371   0.00171   0.00000   0.00805   0.00805   3.02175
   D15       -0.79357  -0.00307   0.00000   0.00699   0.00698  -0.78660
   D16        1.45506  -0.01509   0.00000   0.00018   0.00020   1.45526
   D17       -0.33183   0.00104   0.00000  -0.00363  -0.00359  -0.33543
   D18       -2.88073   0.00164   0.00000  -0.01102  -0.01101  -2.89175
   D19       -1.70372  -0.00218   0.00000  -0.01192  -0.01191  -1.71563
   D20        1.80376  -0.00546   0.00000  -0.00655  -0.00653   1.79723
   D21        2.64920   0.00956   0.00000   0.00124   0.00122   2.65042
   D22       -0.12651   0.00629   0.00000   0.00661   0.00660  -0.11990
   D23        0.25272  -0.01079   0.00000  -0.00861  -0.00862   0.24410
   D24       -2.52298  -0.01407   0.00000  -0.00324  -0.00324  -2.52623
   D25        2.97408  -0.00105   0.00000   0.00041   0.00038   2.97446
   D26        0.52386   0.00158   0.00000   0.00051   0.00050   0.52436
   D27       -0.43617  -0.00323   0.00000  -0.00405  -0.00405  -0.44022
   D28       -2.88640  -0.00059   0.00000  -0.00394  -0.00393  -2.89033
   D29        0.27316  -0.00274   0.00000  -0.00247  -0.00249   0.27068
   D30       -2.89310  -0.00048   0.00000   0.00131   0.00133  -2.89177
   D31       -3.12319  -0.00607   0.00000  -0.00872  -0.00876  -3.13196
   D32       -0.00627  -0.00381   0.00000  -0.00494  -0.00495  -0.01121
   D33        0.03491   0.00162   0.00000  -0.00948  -0.00946   0.02544
   D34       -3.04967  -0.00036   0.00000  -0.01769  -0.01769  -3.06735
   D35       -2.75009  -0.00163   0.00000  -0.00491  -0.00492  -2.75501
   D36        0.44852  -0.00361   0.00000  -0.01313  -0.01314   0.43538
   D37        0.03333   0.00123   0.00000   0.00402   0.00402   0.03735
   D38       -3.08346  -0.00158   0.00000  -0.00017  -0.00014  -3.08360
   D39        3.02342   0.00188   0.00000   0.01137   0.01136   3.03478
   D40       -0.05893  -0.00119   0.00000   0.00266   0.00267  -0.05626
   D41        3.09560   0.00034   0.00000  -0.00360  -0.00360   3.09199
   D42        1.02168  -0.00095   0.00000  -0.00596  -0.00595   1.01573
   D43       -1.11683   0.00089   0.00000   0.00023   0.00023  -1.11660
         Item               Value     Threshold  Converged?
 Maximum Force            0.051716     0.000450     NO 
 RMS     Force            0.013197     0.000300     NO 
 Maximum Displacement     0.207101     0.001800     NO 
 RMS     Displacement     0.056991     0.001200     NO 
 Predicted change in Energy=-7.030392D-03
 GradGradGradGradGradGradGradGradGradGradGradGradGradGradGradGradGradGrad

                          Input orientation:                          
 ---------------------------------------------------------------------
 Center     Atomic      Atomic             Coordinates (Angstroms)
 Number     Number       Type             X           Y           Z
 ---------------------------------------------------------------------
      1          6           0        1.883529    0.162689   -0.008469
      2          6           0        0.717120   -1.517320    0.318472
      3          6           0        0.451076    1.272552    1.157375
      4          6           0       -0.506528   -0.989554    0.899750
      5          7           0        1.734010    0.742394    1.281176
      6          1           0        0.604567   -1.906627   -0.699771
      7          1           0        1.345215   -2.124688    0.977561
      8          1           0       -0.148589    1.690823    1.955110
      9          1           0       -0.662252   -0.999885    1.975095
     10          8           0        1.120711    0.828868   -0.973264
     11          6           0        0.168112    1.526848   -0.263719
     12          8           0       -0.729864    2.192223   -0.724984
     13          6           0       -1.696896   -0.892378    0.020616
     14          8           0       -1.699203   -1.254138   -1.140149
     15          8           0       -2.717858   -0.303220    0.671085
     16          6           0       -3.844068   -0.058577   -0.172482
     17          1           0       -4.639313    0.371214    0.442998
     18          1           0       -4.204963   -0.994732   -0.614128
     19          1           0       -3.579329    0.655714   -0.960747
     20          6           0        3.144122   -0.397041   -0.419468
     21          7           0        4.097367   -0.953489   -0.774991
     22          1           0        2.091632    0.290825    2.115932
 ---------------------------------------------------------------------
                    Distance matrix (angstroms):
                    1          2          3          4          5
     1  C    0.000000
     2  C    2.071191   0.000000
     3  C    2.154742   2.925393   0.000000
     4  C    2.804442   1.453869   2.469919   0.000000
     5  N    1.421830   2.658415   1.393669   2.857471   0.000000
     6  H    2.528975   1.095923   3.685069   2.152677   3.495298
     7  H    2.548359   1.094439   3.517536   2.173370   2.909210
     8  H    3.212528   3.704081   1.082095   2.902813   2.213116
     9  H    3.430322   2.216936   2.659349   1.086612   3.042883
    10  O    1.398755   2.708518   2.277035   3.076157   2.337972
    11  C    2.206521   3.147588   1.471137   2.853257   2.335403
    12  O    3.385591   4.116221   2.404931   3.579573   3.492472
    13  C    3.732754   2.511323   3.254678   1.483002   4.004074
    14  O    4.015479   2.834688   4.035651   2.377744   4.651442
    15  O    4.674573   3.660253   3.572349   2.326655   4.613529
    16  C    5.734216   4.813876   4.689210   3.627061   5.819762
    17  H    6.541771   5.680971   5.218697   4.374954   6.438910
    18  H    6.227052   5.036838   5.473344   3.996282   6.471567
    19  H    5.567111   4.981762   4.594681   3.951008   5.767608
    20  C    1.439205   2.773070   3.539276   3.926659   2.485743
    21  N    2.595089   3.597171   4.688789   4.899174   3.562204
    22  H    2.138412   2.896469   2.138701   3.141481   1.014211
                    6          7          8          9         10
     6  H    0.000000
     7  H    1.846498   0.000000
     8  H    4.534014   4.212502   0.000000
     9  H    3.095468   2.508023   2.739372   0.000000
    10  O    2.797166   3.546775   3.305973   3.900785   0.000000
    11  C    3.488464   4.032377   2.247308   3.476518   1.377705
    12  O    4.310674   5.083339   2.787864   4.181454   2.311927
    13  C    2.616178   3.418884   3.579448   2.214054   3.448100
    14  O    2.434549   3.809335   4.545089   3.293123   3.509798
    15  O    3.935565   4.463209   3.496580   2.532055   4.326676
    16  C    4.845995   5.702637   4.609080   3.952480   5.106647
    17  H    5.830330   6.506140   4.918785   4.477080   5.949212
    18  H    4.895964   5.883430   5.501578   4.388041   5.640683
    19  H    4.913114   5.978195   4.619919   4.457524   4.703245
    20  C    2.967619   2.858762   4.565056   4.537162   2.429760
    21  N    3.621296   3.466625   5.698594   5.497191   3.475139
    22  H    3.868894   2.772676   2.646591   3.044610   3.282576
                   11         12         13         14         15
    11  C    0.000000
    12  O    1.209070   0.000000
    13  C    3.067858   3.317504   0.000000
    14  O    3.462496   3.604079   1.215834   0.000000
    15  O    3.542857   3.482581   1.346322   2.285274   0.000000
    16  C    4.315030   3.881962   2.311463   2.639355   1.428217
    17  H    4.994625   4.468114   3.229998   3.713808   2.049115
    18  H    5.060132   4.716490   2.589165   2.573485   2.083612
    19  H    3.909992   3.245904   2.627398   2.686000   2.079559
    20  C    3.547145   4.669625   4.886152   4.971096   5.963298
    21  N    4.674667   5.761958   5.848949   5.815837   6.997234
    22  H    3.300063   4.432489   4.488124   5.230622   5.056844
                   16         17         18         19         20
    16  C    0.000000
    17  H    1.093595   0.000000
    18  H    1.096212   1.781006   0.000000
    19  H    1.096203   1.781855   1.798759   0.000000
    20  C    7.000740   7.868667   7.375918   6.826864   0.000000
    21  N    8.014379   8.920085   8.303991   7.845744   1.159615
    22  H    6.371142   6.936194   6.982334   6.462112   2.830043
                   21         22
    21  N    0.000000
    22  H    3.732121   0.000000
 Stoichiometry    C8H8N2O4
 Framework group  C1[X(C8H8N2O4)]
 Deg. of freedom    60
 Full point group                 C1      NOp   1
 Largest Abelian subgroup         C1      NOp   1
 Largest concise Abelian subgroup C1      NOp   1
                         Standard orientation:                         
 ---------------------------------------------------------------------
 Center     Atomic      Atomic             Coordinates (Angstroms)
 Number     Number       Type             X           Y           Z
 ---------------------------------------------------------------------
      1          6           0        1.871897    0.127757    0.003180
      2          6           0        0.686162   -1.523634    0.399126
      3          6           0        0.434847    1.307276    1.092460
      4          6           0       -0.539948   -0.956800    0.936794
      5          7           0        1.711216    0.773246    1.259813
      6          1           0        0.583074   -1.963023   -0.599552
      7          1           0        1.300239   -2.102143    1.096288
      8          1           0       -0.171117    1.770445    1.860062
      9          1           0       -0.709471   -0.911366    2.009138
     10          8           0        1.127552    0.750663   -1.004020
     11          6           0        0.172370    1.491689   -0.343277
     12          8           0       -0.713551    2.140423   -0.849379
     13          6           0       -1.718065   -0.894200    0.038230
     14          8           0       -1.708852   -1.314224   -1.102711
     15          8           0       -2.741839   -0.264265    0.644572
     16          6           0       -3.854917   -0.053133   -0.225075
     17          1           0       -4.654006    0.413967    0.357356
     18          1           0       -4.218655   -1.007362   -0.623601
     19          1           0       -3.573647    0.618077   -1.044846
     20          6           0        3.132484   -0.462690   -0.362339
     21          7           0        4.085083   -1.044455   -0.676684
     22          1           0        2.054029    0.361508    2.120960
 ---------------------------------------------------------------------
 Rotational constants (GHZ):           1.3477967           0.4848301           0.4350376
 Standard basis: STO-3G (5D, 7F)
 There are    78 symmetry adapted cartesian basis functions of A   symmetry.
 There are    78 symmetry adapted basis functions of A   symmetry.
    78 basis functions,   234 primitive gaussians,    78 cartesian basis functions
    51 alpha electrons       51 beta electrons
       nuclear repulsion energy       901.3087294033 Hartrees.
 NAtoms=   22 NActive=   22 NUniq=   22 SFac= 1.00D+00 NAtFMM=   60 NAOKFM=F Big=F
 Integral buffers will be    131072 words long.
 Raffenetti 1 integral format.
 Two-electron integral symmetry is turned on.
 External calculation of energy, first and second derivatives.
 Running external command "~/scripts/MiMe -H 'pbepbe def2svp' -EF 'wb97xd def2svp' -c 12 -m 48GB R"
         input file       "/local/jobs/1158153/Gau-1790511.EIn"
         output file      "/local/jobs/1158153/Gau-1790511.EOu"
         message file     "/local/jobs/1158153/Gau-1790511.EMs"
         fchk file        "/local/jobs/1158153/Gau-1790511.EFC"
         mat. el file     "/local/jobs/1158153/Gau-1790511.EUF"
 Read checkpoint file Gau-1790511_H.chk type G16
 Write formatted file Gau-1790511_H.fchk

deriv: 2

spelevel: wb97xd def2svp
gradlevel: wb97xd def2svp
hesslevel: pbepbe def2svp

runspe: False
runforce: True
runfreq: True

Running Gaussian ...

Parsing files ...
SPE file: Gau-1790511_F.out
FORCE file: Gau-1790511_F.out
HESS file: Gau-1790511_H.out

 ExternalExternalExternalExternalExternalExternalExternalExternalExternalExternal
 Output from external command:
 "~/scripts/MiMe -H 'pbepbe def2svp' -EF 'wb97xd def2svp' -c 12 -m 48GB R /local/jobs/1158153/Gau-1790511.EIn /local/jobs/1158153/Gau-1790511.EOu /local/jobs/1158153/Gau-1790511.EMs /local/jobs/1158153/Gau-1790511.EFC /local/jobs/1158153/Gau-1790511.EUF"
  
 --------------------------------------------------
 Force calculation at wb97xd def2svp
 Hessian calculation at pbepbe def2svp
 ExternalExternalExternalExternalExternalExternalExternalExternalExternalExternal

 Recovered energy= -719.184805020     dipole=     -0.441000000000      0.428100000000      6.137700000000
 Energy=    -719.184805     NIter=   0.
 Dipole moment=      -0.441000       0.428100       6.137700
 ***** Axes restored to original set *****
 -------------------------------------------------------------------
 Center     Atomic                   Forces (Hartrees/Bohr)
 Number     Number              X              Y              Z
 -------------------------------------------------------------------
      1        6          -0.009795758   -0.033655992    0.010465269
      2        6          -0.023337876    0.017491987    0.010700642
      3        6           0.013541824   -0.023213771    0.004944975
      4        6           0.038377173    0.001420687   -0.020193108
      5        7          -0.042682228    0.018906518   -0.056854491
      6        1           0.002120138    0.002323298    0.000008633
      7        1           0.004938147    0.003551172   -0.001007021
      8        1           0.003602079    0.003848436    0.004646899
      9        1          -0.001625834    0.000188614    0.002953971
     10        8           0.020590221   -0.003585921    0.035538091
     11        6          -0.025955711    0.015750442    0.012604781
     12        8           0.021773587   -0.017736771   -0.000981903
     13        6           0.011174997    0.004416799   -0.003363320
     14        8          -0.008879223    0.008713687    0.018552475
     15        8          -0.002371144   -0.005852000   -0.018576709
     16        6          -0.002808418    0.001154517    0.005031675
     17        1           0.001202739    0.000701363    0.004351503
     18        1           0.000601858   -0.000804126   -0.002656676
     19        1           0.001395604   -0.000709520   -0.002344754
     20        6           0.002263668    0.002861713   -0.006446583
     21        7          -0.004630007    0.004349229    0.004107927
     22        1           0.000504165   -0.000120363   -0.001482277
 -------------------------------------------------------------------
 Cartesian Forces:  Max     0.056854491 RMS     0.015200019
 FormGI is forming the generalized inverse of G from B-inverse, IUseBI=4.

 GradGradGradGradGradGradGradGradGradGradGradGradGradGradGradGradGradGrad
 Berny optimization.
 Internal  Forces:  Max     0.047026518 RMS     0.011644543
 Search for a saddle point.
 Step number   3 out of a maximum of   50
 All quantities printed in internal units (Hartrees-Bohrs-Radians)
 Swapping is turned off.
 Second derivative matrix not updated -- analytic derivatives used.
 ITU=  0  0  0
     Eigenvalues ---   -0.09963  -0.06591  -0.04101  -0.03687  -0.01245
     Eigenvalues ---   -0.00880  -0.00589   0.00387   0.00677   0.01069
     Eigenvalues ---    0.01120   0.01666   0.01831   0.02827   0.03434
     Eigenvalues ---    0.03825   0.04581   0.04996   0.05182   0.05928
     Eigenvalues ---    0.06317   0.06845   0.07151   0.07596   0.08160
     Eigenvalues ---    0.08693   0.09757   0.10882   0.11582   0.14008
     Eigenvalues ---    0.15877   0.16716   0.16806   0.17482   0.19619
     Eigenvalues ---    0.20979   0.21805   0.22493   0.23376   0.24113
     Eigenvalues ---    0.28353   0.29850   0.34253   0.34644   0.35083
     Eigenvalues ---    0.35535   0.35586   0.35683   0.36277   0.37307
     Eigenvalues ---    0.37531   0.37770   0.39082   0.39590   0.44347
     Eigenvalues ---    0.47064   0.47996   0.84924   0.86734   1.26856
 Eigenvectors required to have negative eigenvalues:
                          A37       A36       A7        A3        D10
   1                    0.33723   0.29797  -0.29390   0.26430   0.23791
                          A17       D16       D39       D7        D34
   1                    0.23273  -0.21308  -0.18246  -0.16839   0.16759
 RFO step:  Lambda0=1.200664781D-02 Lambda=-6.68296549D-02.
 Linear search not attempted -- option 19 set.
 Maximum step size (   0.100) exceeded in Quadratic search.
    -- Step size scaled by   0.175
 Iteration  1 RMS(Cart)=  0.05813485 RMS(Int)=  0.00106732
 Iteration  2 RMS(Cart)=  0.00154685 RMS(Int)=  0.00001585
 Iteration  3 RMS(Cart)=  0.00000105 RMS(Int)=  0.00001584
 Iteration  4 RMS(Cart)=  0.00000000 RMS(Int)=  0.00001584
 Variable       Old X    -DE/DX   Delta X   Delta X   Delta X     New X
                                 (Linear)    (Quad)   (Total)
    R1        3.91398  -0.03921   0.00000  -0.04927  -0.04927   3.86471
    R2        2.68687  -0.02977   0.00000  -0.01271  -0.01270   2.67417
    R3        2.64326  -0.03465   0.00000  -0.01301  -0.01302   2.63024
    R4        2.71970  -0.00419   0.00000   0.00117   0.00117   2.72087
    R5        2.74741  -0.03435   0.00000  -0.01191  -0.01191   2.73550
    R6        2.07099  -0.00105   0.00000  -0.00067  -0.00067   2.07032
    R7        2.06819   0.00029   0.00000   0.00013   0.00013   2.06832
    R8        2.63365  -0.02750   0.00000  -0.01220  -0.01219   2.62147
    R9        2.04486   0.00292   0.00000   0.00110   0.00110   2.04597
   R10        2.78005  -0.01243   0.00000  -0.00528  -0.00528   2.77477
   R11        2.05340   0.00315   0.00000   0.00074   0.00074   2.05414
   R12        2.80247  -0.00034   0.00000   0.00229   0.00229   2.80476
   R13        1.91658  -0.00099   0.00000  -0.00021  -0.00021   1.91637
   R14        2.60349   0.00263   0.00000   0.00379   0.00378   2.60726
   R15        2.28481  -0.02556   0.00000  -0.00526  -0.00526   2.27955
   R16        2.29759  -0.02029   0.00000  -0.00193  -0.00193   2.29566
   R17        2.54418  -0.00777   0.00000  -0.00553  -0.00553   2.53865
   R18        2.69894  -0.00284   0.00000  -0.00060  -0.00060   2.69834
   R19        2.06660   0.00185   0.00000   0.00029   0.00029   2.06688
   R20        2.07154   0.00156   0.00000   0.00080   0.00080   2.07234
   R21        2.07152   0.00156   0.00000   0.00064   0.00064   2.07217
   R22        2.19136  -0.00715   0.00000  -0.00094  -0.00094   2.19041
    A1        1.69947  -0.00902   0.00000   0.00648   0.00646   1.70593
    A2        1.75999  -0.00524   0.00000   0.00031   0.00033   1.76032
    A3        1.79557   0.01635   0.00000  -0.00858  -0.00862   1.78695
    A4        1.95422  -0.01039   0.00000  -0.01024  -0.01023   1.94399
    A5        2.10563   0.00636   0.00000   0.01381   0.01384   2.11947
    A6        2.05548   0.00170   0.00000  -0.00236  -0.00237   2.05311
    A7        1.81589  -0.04703   0.00000  -0.00467  -0.00471   1.81118
    A8        1.77145   0.01002   0.00000  -0.00819  -0.00825   1.76320
    A9        1.79467   0.01398   0.00000   0.00132   0.00131   1.79598
   A10        1.99763   0.01104   0.00000  -0.00781  -0.00787   1.98975
   A11        2.03052   0.01059   0.00000   0.01628   0.01628   2.04680
   A12        2.00571  -0.00497   0.00000  -0.00053  -0.00053   2.00518
   A13        2.20395   0.00181   0.00000  -0.00392  -0.00392   2.20003
   A14        1.90564  -0.01181   0.00000  -0.00540  -0.00540   1.90025
   A15        2.13972   0.00908   0.00000   0.00807   0.00805   2.14778
   A16        2.10928  -0.00306   0.00000   0.01234   0.01234   2.12162
   A17        2.05143   0.00802   0.00000  -0.02391  -0.02391   2.02752
   A18        2.06264  -0.00365   0.00000   0.01006   0.01006   2.07270
   A19        1.74298   0.02050   0.00000   0.01206   0.01208   1.75505
   A20        2.12695  -0.00958   0.00000  -0.00529  -0.00529   2.12166
   A21        2.17375  -0.01213   0.00000  -0.00593  -0.00593   2.16782
   A22        1.83706   0.00792   0.00000   0.00673   0.00671   1.84377
   A23        1.85140  -0.00751   0.00000  -0.00572  -0.00573   1.84567
   A24        2.22246   0.01697   0.00000   0.01255   0.01255   2.23500
   A25        2.20913  -0.00943   0.00000  -0.00677  -0.00677   2.20236
   A26        2.15075   0.00802   0.00000  -0.00787  -0.00788   2.14287
   A27        1.92939   0.00547   0.00000   0.01897   0.01896   1.94835
   A28        2.20189  -0.01341   0.00000  -0.01082  -0.01082   2.19107
   A29        1.96879   0.01477   0.00000  -0.00124  -0.00124   1.96755
   A30        1.88422  -0.00558   0.00000  -0.00132  -0.00132   1.88290
   A31        1.92974   0.00146   0.00000  -0.00125  -0.00126   1.92848
   A32        1.92400  -0.00028   0.00000  -0.00114  -0.00114   1.92285
   A33        1.89966   0.00304   0.00000   0.00372   0.00372   1.90338
   A34        1.90100   0.00306   0.00000   0.00390   0.00390   1.90490
   A35        1.92438  -0.00168   0.00000  -0.00369  -0.00369   1.92069
   A36        3.05512   0.00096   0.00000  -0.02536  -0.02536   3.02976
   A37        3.07072   0.00492   0.00000  -0.05751  -0.05751   3.01320
    D1        0.85645  -0.00909   0.00000   0.01490   0.01489   0.87134
    D2        2.93516  -0.01049   0.00000   0.00133   0.00136   2.93651
    D3       -1.26827  -0.00711   0.00000  -0.00184  -0.00182  -1.27009
    D4       -1.13553   0.00535   0.00000   0.02377   0.02376  -1.11177
    D5        0.94317   0.00396   0.00000   0.01020   0.01022   0.95340
    D6        3.02294   0.00734   0.00000   0.00704   0.00704   3.02998
    D7        3.01777  -0.00049   0.00000   0.02939   0.02936   3.04713
    D8       -1.18671  -0.00188   0.00000   0.01582   0.01582  -1.17089
    D9        0.89305   0.00149   0.00000   0.01266   0.01264   0.90569
   D10       -1.34598   0.01690   0.00000   0.00520   0.00524  -1.34074
   D11        1.12885   0.01246   0.00000   0.00489   0.00492   1.13377
   D12        0.48440   0.00453   0.00000   0.00600   0.00600   0.49040
   D13        2.95923   0.00009   0.00000   0.00569   0.00568   2.96492
   D14        3.02175   0.00092   0.00000   0.00640   0.00639   3.02814
   D15       -0.78660  -0.00352   0.00000   0.00609   0.00607  -0.78053
   D16        1.45526  -0.01510   0.00000  -0.00060  -0.00059   1.45467
   D17       -0.33543   0.00032   0.00000  -0.00504  -0.00501  -0.34043
   D18       -2.89175   0.00189   0.00000  -0.01167  -0.01167  -2.90342
   D19       -1.71563  -0.00210   0.00000  -0.01496  -0.01494  -1.73057
   D20        1.79723  -0.00527   0.00000  -0.01233  -0.01231   1.78492
   D21        2.65042   0.00832   0.00000   0.00074   0.00072   2.65115
   D22       -0.11990   0.00514   0.00000   0.00337   0.00335  -0.11655
[...]
    12   8    -0.00   0.00  -0.00     0.02   0.04  -0.00     0.00   0.01  -0.00
    13   6    -0.00  -0.00  -0.01    -0.01  -0.00  -0.02     0.00   0.00   0.00
    14   8     0.01  -0.00  -0.00     0.00  -0.00   0.00     0.00  -0.00  -0.00
    15   8    -0.01   0.01   0.02     0.00   0.00   0.01    -0.00  -0.00  -0.00
    16   6    -0.03   0.02   0.01     0.00   0.00   0.00     0.00  -0.00  -0.00
    17   1    -0.29   0.16  -0.28    -0.02   0.02  -0.02     0.00  -0.00   0.00
    18   1     0.51  -0.11  -0.39    -0.02  -0.02  -0.02     0.00   0.00   0.00
    19   1     0.31  -0.45   0.30    -0.01   0.01  -0.01     0.00  -0.00   0.00
    20   6    -0.00   0.00  -0.00     0.01  -0.03   0.02    -0.01  -0.01  -0.02
    21   7    -0.00   0.00  -0.00    -0.05  -0.09  -0.02    -0.04  -0.07  -0.01
    22   1    -0.00  -0.00  -0.00     0.46   0.42   0.27     0.30   0.52   0.10
                     49                     50                     51
                      A                      A                      A
 Frequencies --   1701.7999              1878.5023              1965.2438
 Red. masses --      6.0283                12.4202                12.6293
 Frc consts  --     10.2864                25.8227                28.7385
 IR Inten    --      0.0000                 0.0000                 0.0000
  Atom  AN      X      Y      Z        X      Y      Z        X      Y      Z
     1   6     0.00   0.01   0.00    -0.00   0.00  -0.00    -0.01  -0.03   0.01
     2   6    -0.07   0.34  -0.30     0.00  -0.01   0.01    -0.00  -0.00   0.00
     3   6     0.00   0.00   0.00     0.00  -0.00   0.00     0.04  -0.10   0.11
     4   6     0.14  -0.32   0.35    -0.06   0.02  -0.03     0.00   0.00  -0.00
     5   7    -0.00  -0.00  -0.00    -0.00  -0.00  -0.00    -0.00  -0.01   0.00
     6   1     0.39   0.02   0.25     0.00   0.00   0.04    -0.00  -0.00   0.01
     7   1    -0.38  -0.20  -0.08     0.01  -0.07  -0.02    -0.00   0.00   0.00
     8   1     0.00   0.00  -0.00     0.00   0.00   0.00     0.06   0.16  -0.02
     9   1    -0.32  -0.09  -0.15    -0.03  -0.01  -0.01    -0.02   0.02  -0.01
    10   8     0.00  -0.00   0.00     0.00  -0.00   0.00     0.02   0.00   0.03
    11   6    -0.00   0.00  -0.00    -0.00   0.02  -0.01    -0.06   0.68  -0.48
    12   8     0.00  -0.00   0.00     0.00  -0.01   0.01    -0.01  -0.42   0.25
    13   6    -0.01   0.01  -0.08     0.73  -0.23  -0.24    -0.02   0.01   0.00
    14   8    -0.02   0.00   0.01    -0.48   0.15   0.16     0.01  -0.00  -0.00
    15   8    -0.00   0.00   0.01    -0.03   0.03   0.05     0.00  -0.00  -0.00
    16   6     0.00   0.00   0.00     0.02   0.00   0.00    -0.00  -0.00  -0.00
    17   1    -0.02  -0.00  -0.00    -0.16  -0.01  -0.05     0.00   0.00  -0.00
    18   1    -0.00  -0.01   0.00    -0.06  -0.07  -0.05     0.01   0.00  -0.00
    19   1    -0.01  -0.01  -0.02    -0.01  -0.06  -0.12     0.00  -0.00   0.01
    20   6     0.00   0.00   0.00    -0.00   0.00   0.00     0.00   0.01   0.00
    21   7    -0.00  -0.00  -0.00    -0.00  -0.00  -0.00    -0.00  -0.00  -0.00
    22   1     0.00  -0.00  -0.00    -0.00   0.00   0.00    -0.00  -0.01  -0.00
                     52                     53                     54
                      A                      A                      A
 Frequencies --   2381.5426              3060.7846              3142.5526
 Red. masses --     12.6619                 1.0312                 1.0605
 Frc consts  --     42.3121                 5.6919                 6.1704
 IR Inten    --      0.0000                 0.0000                 0.0000
  Atom  AN      X      Y      Z        X      Y      Z        X      Y      Z
     1   6    -0.06  -0.11  -0.02    -0.00   0.00  -0.00     0.00  -0.00   0.00
     2   6     0.00  -0.00   0.00     0.00  -0.00   0.00    -0.00  -0.05   0.04
     3   6     0.00   0.02  -0.01    -0.00   0.00  -0.00    -0.00  -0.00   0.00
     4   6    -0.00   0.00  -0.00    -0.00  -0.00   0.00    -0.01  -0.00  -0.00
     5   7    -0.01  -0.01  -0.00    -0.00  -0.00  -0.00    -0.00   0.00  -0.00
     6   1    -0.00   0.00   0.00     0.00   0.00   0.00     0.54   0.52  -0.06
     7   1     0.00   0.00   0.00    -0.00  -0.00  -0.00    -0.52   0.05  -0.38
     8   1     0.01   0.01   0.01     0.00   0.00   0.00    -0.00  -0.00  -0.00
     9   1     0.00  -0.01   0.00     0.00   0.00  -0.00     0.08   0.09  -0.02
    10   8    -0.00  -0.01   0.00     0.00  -0.00   0.00    -0.00   0.00  -0.00
    11   6     0.01   0.00   0.01    -0.00  -0.00   0.00     0.00  -0.00   0.00
    12   8    -0.00   0.00  -0.00     0.00   0.00  -0.00    -0.00   0.00  -0.00
    13   6    -0.00   0.00   0.00     0.00  -0.00  -0.00    -0.00  -0.00  -0.00
    14   8     0.00  -0.00  -0.00    -0.00   0.00   0.00     0.00  -0.00  -0.00
    15   8     0.00  -0.00  -0.00     0.00   0.00   0.00     0.00   0.00   0.00
    16   6    -0.00   0.00  -0.00     0.04  -0.00   0.03    -0.00  -0.00  -0.00
    17   1    -0.00   0.00  -0.00     0.12  -0.35  -0.29    -0.00   0.00   0.00
    18   1    -0.00   0.00  -0.00    -0.11   0.55  -0.34     0.00  -0.00   0.00
    19   1    -0.00   0.00   0.00    -0.47  -0.15   0.31     0.00   0.00  -0.00
    20   6     0.38   0.70   0.13    -0.00  -0.00  -0.00    -0.00  -0.00  -0.00
    21   7    -0.28  -0.50  -0.09     0.00   0.00   0.00     0.00   0.00   0.00
    22   1     0.00  -0.00   0.01    -0.00  -0.00   0.00    -0.00  -0.00   0.00
                     55                     56                     57
                      A                      A                      A
 Frequencies --   3160.4016              3185.3088              3192.1375
 Red. masses --      1.1067                 1.0944                 1.1077
 Frc consts  --      6.5128                 6.5423                 6.6503
 IR Inten    --      0.0000                 0.0000                 0.0000
  Atom  AN      X      Y      Z        X      Y      Z        X      Y      Z
     1   6     0.00  -0.00   0.00     0.00  -0.00  -0.00    -0.00   0.00  -0.00
     2   6     0.00   0.00   0.00     0.01   0.02  -0.00    -0.00  -0.00  -0.00
     3   6    -0.00   0.00  -0.00    -0.00   0.00  -0.00    -0.00   0.00  -0.00
     4   6     0.00   0.00   0.00    -0.06  -0.06   0.02     0.00   0.00   0.00
     5   7    -0.00  -0.00  -0.00    -0.00  -0.00  -0.00    -0.00  -0.00  -0.00
     6   1    -0.00  -0.00  -0.00    -0.13  -0.13   0.02     0.00   0.00   0.00
     7   1    -0.00   0.00  -0.00    -0.03   0.00  -0.02     0.00  -0.00   0.00
     8   1     0.00   0.00   0.00     0.00   0.00   0.00     0.00   0.00   0.00
     9   1    -0.00  -0.00   0.00     0.67   0.69  -0.16    -0.00  -0.00   0.00
    10   8    -0.00   0.00  -0.00    -0.00   0.00   0.00     0.00   0.00   0.00
    11   6     0.00  -0.00   0.00     0.00   0.00   0.00    -0.00  -0.00   0.00
    12   8    -0.00   0.00  -0.00    -0.00  -0.00   0.00    -0.00   0.00   0.00
    13   6    -0.00   0.00   0.00     0.00   0.00   0.00     0.00  -0.00   0.00
    14   8     0.00   0.00   0.00     0.00  -0.00  -0.00    -0.00   0.00  -0.00
    15   8     0.00   0.00  -0.00    -0.00  -0.00   0.00    -0.00   0.00   0.00
    16   6    -0.03  -0.07   0.05    -0.00  -0.00  -0.00     0.05  -0.06  -0.06
    17   1    -0.05   0.12   0.12    -0.00   0.00   0.00    -0.22   0.64   0.54
    18   1    -0.13   0.60  -0.36    -0.00   0.00  -0.00    -0.03   0.17  -0.12
    19   1     0.55   0.15  -0.36     0.00   0.00  -0.00    -0.36  -0.12   0.24
    20   6    -0.00  -0.00  -0.00     0.00   0.00   0.00    -0.00  -0.00  -0.00
    21   7     0.00   0.00   0.00    -0.00  -0.00   0.00     0.00   0.00  -0.00
    22   1    -0.00  -0.00  -0.00    -0.00   0.00  -0.00     0.00  -0.00   0.00
                     58                     59                     60
                      A                      A                      A
 Frequencies --   3241.5099              3324.6996              3640.4906
 Red. masses --      1.1168                 1.0984                 1.0826
 Frc consts  --      6.9139                 7.1535                 8.4539
 IR Inten    --      0.0000                 0.0000                 0.0000
  Atom  AN      X      Y      Z        X      Y      Z        X      Y      Z
     1   6    -0.00  -0.00  -0.00     0.00   0.00   0.00     0.00   0.00   0.00
     2   6    -0.09  -0.03  -0.03     0.00   0.00   0.00    -0.00  -0.00  -0.00
     3   6    -0.00   0.00  -0.00    -0.06  -0.04  -0.05    -0.00  -0.00  -0.00
     4   6    -0.01  -0.01   0.00     0.00   0.00  -0.00    -0.00   0.00  -0.00
     5   7    -0.00  -0.00   0.00     0.00   0.00   0.00    -0.02   0.05  -0.06
     6   1     0.45   0.44  -0.06    -0.00  -0.00   0.00     0.00   0.00   0.00
     7   1     0.60  -0.07   0.45    -0.00   0.00  -0.00     0.00  -0.00   0.00
     8   1     0.00   0.00   0.00     0.68   0.40   0.60     0.01   0.00   0.01
     9   1     0.10   0.10  -0.02    -0.00  -0.00   0.00     0.00   0.00   0.00
    10   8    -0.00  -0.00   0.00     0.00   0.00   0.00     0.00  -0.00   0.00
    11   6     0.00   0.00   0.00     0.00  -0.00   0.00     0.00   0.00   0.00
    12   8     0.00  -0.00   0.00    -0.00   0.00  -0.00    -0.00  -0.00   0.00
    13   6     0.00   0.00   0.00    -0.00   0.00   0.00    -0.00   0.00   0.00
    14   8     0.00  -0.00  -0.00     0.00  -0.00  -0.00     0.00  -0.00  -0.00
    15   8    -0.00   0.00   0.00     0.00  -0.00  -0.00     0.00  -0.00  -0.00
    16   6    -0.00  -0.00   0.00    -0.00   0.00  -0.00    -0.00  -0.00  -0.00
    17   1    -0.00  -0.00  -0.00     0.00  -0.00  -0.00    -0.00   0.00   0.00
    18   1    -0.00   0.00  -0.00     0.00  -0.00   0.00     0.00  -0.00   0.00
    19   1     0.00   0.00  -0.00     0.00   0.00  -0.00     0.00   0.00  -0.00
    20   6    -0.00  -0.00  -0.00    -0.00  -0.00  -0.00    -0.00   0.00   0.00
    21   7     0.00   0.00  -0.00     0.00   0.00   0.00     0.00  -0.00  -0.00
    22   1     0.00   0.00  -0.00    -0.01   0.00  -0.01     0.21  -0.61   0.76

 -------------------
 - Thermochemistry -
 -------------------
 Temperature   298.150 Kelvin.  Pressure   1.00000 Atm.
 Atom     1 has atomic number  6 and mass  12.00000
 Atom     2 has atomic number  6 and mass  12.00000
 Atom     3 has atomic number  6 and mass  12.00000
 Atom     4 has atomic number  6 and mass  12.00000
 Atom     5 has atomic number  7 and mass  14.00307
 Atom     6 has atomic number  1 and mass   1.00783
 Atom     7 has atomic number  1 and mass   1.00783
 Atom     8 has atomic number  1 and mass   1.00783
 Atom     9 has atomic number  1 and mass   1.00783
 Atom    10 has atomic number  8 and mass  15.99491
 Atom    11 has atomic number  6 and mass  12.00000
 Atom    12 has atomic number  8 and mass  15.99491
 Atom    13 has atomic number  6 and mass  12.00000
 Atom    14 has atomic number  8 and mass  15.99491
 Atom    15 has atomic number  8 and mass  15.99491
 Atom    16 has atomic number  6 and mass  12.00000
 Atom    17 has atomic number  1 and mass   1.00783
 Atom    18 has atomic number  1 and mass   1.00783
 Atom    19 has atomic number  1 and mass   1.00783
 Atom    20 has atomic number  6 and mass  12.00000
 Atom    21 has atomic number  7 and mass  14.00307
 Atom    22 has atomic number  1 and mass   1.00783
 Molecular mass:   196.04841 amu.
 Principal axes and moments of inertia in atomic units:
                           1         2         3
     Eigenvalues --  2031.168083483.692513955.24537
           X            0.99916   0.00753   0.04021
           Y           -0.00688   0.99984  -0.01640
           Z           -0.04033   0.01611   0.99906
 This molecule is an asymmetric top.
 Rotational symmetry number  1.
 Warning -- assumption of classical behavior for rotation
           may cause significant error
 Rotational temperatures (Kelvin)      0.04264     0.02486     0.02190
 Rotational constants (GHZ):           0.88852     0.51805     0.45629
    8 imaginary frequencies ignored.
 Zero-point vibrational energy     400380.1 (Joules/Mol)
                                   95.69314 (Kcal/Mol)
 Warning -- explicit consideration of  15 degrees of freedom as
           vibrations may cause significant error
 Vibrational temperatures:     11.95    76.85   179.14   332.23   337.89
          (Kelvin)            393.23   473.58   582.83   592.72   751.07
                              769.42   809.86   849.38   869.31   892.86
                              952.73   958.93  1030.54  1032.96  1094.75
                             1244.21  1266.82  1369.75  1422.04  1429.10
                             1498.38  1521.98  1598.57  1607.14  1644.54
                             1752.68  1853.19  1872.29  1967.28  1998.22
                             2027.63  2031.63  2036.78  2122.43  2313.90
                             2448.51  2702.75  2827.55  3426.51  4403.79
                             4521.43  4547.11  4582.95  4592.77  4663.81
                             4783.50  5237.85
 
 Zero-point correction=                           0.152497 (Hartree/Particle)
 Thermal correction to Energy=                    0.162313
 Thermal correction to Enthalpy=                  0.163257
 Thermal correction to Gibbs Free Energy=         0.114014
 Sum of electronic and zero-point Energies=           -719.049664
 Sum of electronic and thermal Energies=              -719.039848
 Sum of electronic and thermal Enthalpies=            -719.038904
 Sum of electronic and thermal Free Energies=         -719.088147
 
                     E (Thermal)             CV                S
                      KCal/Mol        Cal/Mol-Kelvin    Cal/Mol-Kelvin
 Total                  101.853             37.287            103.640
 Electronic               0.000              0.000              0.000
 Translational            0.889              2.981             41.725
 Rotational               0.889              2.981             31.704
 Vibrational            100.075             31.325             30.211
 Vibration     1          0.593              1.987              8.380
 Vibration     2          0.596              1.976              4.687
 Vibration     3          0.610              1.928              3.029
 Vibration     4          0.653              1.794              1.872
 Vibration     5          0.655              1.788              1.842
 Vibration     6          0.676              1.723              1.575
 Vibration     7          0.712              1.617              1.264
 Vibration     8          0.770              1.459              0.944
 Vibration     9          0.776              1.444              0.920
 Vibration    10          0.877              1.201              0.605
 Vibration    11          0.890              1.173              0.577
 Vibration    12          0.919              1.112              0.518
 Vibration    13          0.948              1.052              0.467
 Vibration    14          0.963              1.023              0.442
 Vibration    15          0.981              0.988              0.416
                       Q            Log10(Q)             Ln(Q)
 Total Bot       0.360785D-52        -52.442752       -120.753899
 Total V=0       0.502123D+18         17.700810         40.757621
 Vib (Bot)       0.176573D-66        -66.753076       -153.704637
 Vib (Bot)    1  0.249512D+02          1.397091          3.216921
 Vib (Bot)    2  0.386888D+01          0.587585          1.352966
 Vib (Bot)    3  0.163953D+01          0.214720          0.494411
 Vib (Bot)    4  0.852620D+00         -0.069245         -0.159442
 Vib (Bot)    5  0.836879D+00         -0.077337         -0.178075
 Vib (Bot)    6  0.705920D+00         -0.151244         -0.348253
 Vib (Bot)    7  0.567953D+00         -0.245688         -0.565717
 Vib (Bot)    8  0.438354D+00         -0.358175         -0.824729
 Vib (Bot)    9  0.428836D+00         -0.367709         -0.846680
 Vib (Bot)   10  0.308634D+00         -0.510556         -1.175599
 Vib (Bot)   11  0.297729D+00         -0.526178         -1.211571
 Vib (Bot)   12  0.275343D+00         -0.560126         -1.289737
 Vib (Bot)   13  0.255441D+00         -0.592709         -1.364762
 Vib (Bot)   14  0.246067D+00         -0.608947         -1.402151
 Vib (Bot)   15  0.235513D+00         -0.627985         -1.445989
 Vib (V=0)       0.245746D+04          3.390486          7.806883
 Vib (V=0)    1  0.254562D+02          1.405793          3.236959
 Vib (V=0)    2  0.440106D+01          0.643557          1.481845
 Vib (V=0)    3  0.221408D+01          0.345193          0.794836
 Vib (V=0)    4  0.148841D+01          0.172723          0.397710
 Vib (V=0)    5  0.147487D+01          0.168753          0.388568
 Vib (V=0)    6  0.136506D+01          0.135151          0.311196
 Vib (V=0)    7  0.125668D+01          0.099226          0.228476
 Vib (V=0)    8  0.116495D+01          0.066306          0.152675
 Vib (V=0)    9  0.115871D+01          0.063975          0.147308
 Vib (V=0)   10  0.108758D+01          0.036463          0.083959
 Vib (V=0)   11  0.108193D+01          0.034199          0.078747
 Vib (V=0)   12  0.107080D+01          0.029709          0.068407
 Vib (V=0)   13  0.106147D+01          0.025908          0.059656
 Vib (V=0)   14  0.105727D+01          0.024186          0.055689
 Vib (V=0)   15  0.105269D+01          0.022301          0.051349
 Electronic      0.100000D+01          0.000000          0.000000
 Translational   0.107894D+09          8.032999         18.496663
 Rotational      0.189376D+07          6.277325         14.454075
 ***** Axes restored to original set *****
 -------------------------------------------------------------------
 Center     Atomic                   Forces (Hartrees/Bohr)
 Number     Number              X              Y              Z
 -------------------------------------------------------------------
      1        6           0.006685834    0.013386568   -0.004450863
      2        6          -0.002200254   -0.007664545    0.000138169
      3        6           0.000422743    0.001768038   -0.000455012
      4        6           0.000060229    0.001437905   -0.002772904
      5        7          -0.003223661   -0.006546769    0.001622293
      6        1           0.002728738   -0.000955345    0.000795639
      7        1          -0.001489226    0.002406070    0.002012419
      8        1           0.000031806   -0.000013304   -0.000033006
      9        1          -0.001181088   -0.001859105    0.002251673
     10        8           0.001182911   -0.000977767    0.001010754
     11        6           0.000316260    0.000150705    0.001604435
     12        8          -0.000647005   -0.000423637   -0.000998554
     13        6           0.000920324   -0.001367120   -0.000664329
     14        8          -0.000853847    0.001007605    0.000908731
     15        8           0.000122210   -0.000076399   -0.000023890
     16        6          -0.000207556    0.000255027    0.000000809
     17        1          -0.000289516    0.000585470    0.000218679
     18        1          -0.000096414    0.000018297    0.000343499
     19        1          -0.000032790    0.000236579   -0.000222637
     20        6          -0.006568382   -0.003838443   -0.000137870
     21        7           0.002519066    0.000244556   -0.000241937
     22        1           0.001799619    0.002225614   -0.000906097
 -------------------------------------------------------------------
 Cartesian Forces:  Max     0.013386568 RMS     0.002738757


 IF NO USE IS MADE OF THE LABOR OF PAST AGES,
 THE WORLD MUST REMAIN ALWAYS IN THE INFANCY OF KNOWLEDGE.

                          -- CICERO
 Error termination request processed by link 9999.
 Error termination via Lnk1e in /apps/gaussian/g16/C.01/g16/l9999.exe at Thu Jan 18 14:24:12 2024.
 Job cpu time:       0 days 23 hours 30 minutes 17.8 seconds.
 Elapsed time:       0 days  3 hours 49 minutes  0.4 seconds.
 File lengths (MBytes):  RWF=      6 Int=      0 D2E=      0 Chk=      2 Scr=      1
