Unloading slurm/anatra/current
  ERROR: No such file or directory on
    '/cm/local/modulefiles/slurm/anatra/current'
environment: line 0: unalias: gv: not found
environment: line 0: unalias: sl: not found
 Entering Gaussian System, Link 0=g16
 Initial command:
 /apps/gaussian/g16/C.01/g16/l1.exe "/local/jobs/1158154/Gau-76662.inp" -scrdir="/local/jobs/1158154/"
 Entering Link 1 = /apps/gaussian/g16/C.01/g16/l1.exe PID=     76663.
  
 Copyright (c) 1988-2019, Gaussian, Inc.  All Rights Reserved.
  
 This is part of the Gaussian(R) 16 program.  It is based on
 the Gaussian(R) 09 system (copyright 2009, Gaussian, Inc.),
 the Gaussian(R) 03 system (copyright 2003, Gaussian, Inc.),
 the Gaussian(R) 98 system (copyright 1998, Gaussian, Inc.),
 the Gaussian(R) 94 system (copyright 1995, Gaussian, Inc.),
 the Gaussian 92(TM) system (copyright 1992, Gaussian, Inc.),
 the Gaussian 90(TM) system (copyright 1990, Gaussian, Inc.),
 the Gaussian 88(TM) system (copyright 1988, Gaussian, Inc.),
 the Gaussian 86(TM) system (copyright 1986, Carnegie Mellon
 University), and the Gaussian 82(TM) system (copyright 1983,
 Carnegie Mellon University). Gaussian is a federally registered
 trademark of Gaussian, Inc.
  
 This software contains proprietary and confidential information,
 including trade secrets, belonging to Gaussian, Inc.
  
 This software is provided under written license and may be
 used, copied, transmitted, or stored only in accord with that
 written license.
  
 The following legend is applicable only to US Government
 contracts under FAR:
  
                    RESTRICTED RIGHTS LEGEND
  
 Use, reproduction and disclosure by the US Government is
 subject to restrictions as set forth in subparagraphs (a)
 and (c) of the Commercial Computer Software - Restricted
 Rights clause in FAR 52.227-19.
  
 Gaussian, Inc.
 340 Quinnipiac St., Bldg. 40, Wallingford CT 06492
  
  
 ---------------------------------------------------------------
 Warning -- This program may not be used in any manner that
 competes with the business of Gaussian, Inc. or will provide
 assistance to any competitor of Gaussian, Inc.  The licensee
 of this program is prohibited from giving any competitor of
 Gaussian, Inc. access to this program.  By using this program,
 the user acknowledges that Gaussian, Inc. is engaged in the
 business of creating and licensing software in the field of
 computational chemistry and represents and warrants to the
 licensee that it is not a competitor of Gaussian, Inc. and that
 it will not use this program in any manner prohibited above.
 ---------------------------------------------------------------
  

 Cite this work as:
 Gaussian 16, Revision C.01,
 M. J. Frisch, G. W. Trucks, H. B. Schlegel, G. E. Scuseria, 
 M. A. Robb, J. R. Cheeseman, G. Scalmani, V. Barone, 
 G. A. Petersson, H. Nakatsuji, X. Li, M. Caricato, A. V. Marenich, 
 J. Bloino, B. G. Janesko, R. Gomperts, B. Mennucci, H. P. Hratchian, 
 J. V. Ortiz, A. F. Izmaylov, J. L. Sonnenberg, D. Williams-Young, 
 F. Ding, F. Lipparini, F. Egidi, J. Goings, B. Peng, A. Petrone, 
 T. Henderson, D. Ranasinghe, V. G. Zakrzewski, J. Gao, N. Rega, 
 G. Zheng, W. Liang, M. Hada, M. Ehara, K. Toyota, R. Fukuda, 
 J. Hasegawa, M. Ishida, T. Nakajima, Y. Honda, O. Kitao, H. Nakai, 
 T. Vreven, K. Throssell, J. A. Montgomery, Jr., J. E. Peralta, 
 F. Ogliaro, M. J. Bearpark, J. J. Heyd, E. N. Brothers, K. N. Kudin, 
 V. N. Staroverov, T. A. Keith, R. Kobayashi, J. Normand, 
 K. Raghavachari, A. P. Rendell, J. C. Burant, S. S. Iyengar, 
 J. Tomasi, M. Cossi, J. M. Millam, M. Klene, C. Adamo, R. Cammi, 
 J. W. Ochterski, R. L. Martin, K. Morokuma, O. Farkas, 
 J. B. Foresman, and D. J. Fox, Gaussian, Inc., Wallingford CT, 2019.
 
 ******************************************
 Gaussian 16:  ES64L-G16RevC.01  3-Jul-2019
                18-Jan-2024 
 ******************************************
 %nprocshared=12
 Will use up to   12 processors via shared memory.
 %mem=48GB
 ----------------------------------------------------------------------
 # external="~/scripts/MiMe -H 'pbepbe def2svp' -EF 'wb97xd def2svp' -c
  12 -m 48GB" opt=(calcall,ts,noeigen,maxcycles=50,maxstep=10,nomicro)
 ----------------------------------------------------------------------
 1/5=1,6=50,8=10,10=4,11=1,18=20,26=1,38=1/1,3;
 2/9=110,12=2,17=6,18=5,40=1/2;
 3/11=9,25=1,30=1,41=9900000,43=2,71=2,140=1/1;
 4/20=17,22=2,24=3,113=1,114=1/2;
 6/7=2,8=2,9=2,10=2,18=1/1;
 7/25=1,44=-1/16;
 1/5=1,6=50,8=10,10=4,11=1,18=20,26=1/3(3);
 2/9=110/2;
 7/8=1,9=1,25=1,44=-1/16;
 99//99;
 2/9=110/2;
 3/11=9,25=1,30=1,41=9900000,43=2,71=2,140=1/1;
 4/16=2,20=17,22=2,24=3,113=1,114=1/2;
 7/25=1,44=-1/16;
 1/5=1,6=50,8=10,10=4,11=1,18=20,26=1/3(-4);
 2/9=110/2;
 6/7=2,8=2,9=2,10=2,18=1/1;
 7/8=1,9=1,25=1,44=-1/16;
 99//99;
 -----
 *****
 -----
 Symbolic Z-matrix:
 Charge =  0 Multiplicity = 1
 O                     1.4571    1.0277   -0.4703 
 C                    -0.2447    1.596     0.2715 
 C                     0.5243   -1.1064    1.1767 
 C                    -0.9704    0.443     0.8253 
 C                     1.7089   -0.117    -0.8424 
 C                     1.2547   -1.2973   -0.0698 
 H                     2.2458   -0.3433   -1.7784 
 H                     1.0475   -0.4791    1.9054 
 H                     1.2246   -2.2497   -0.583 
 H                     0.1869    2.2996    0.9795 
 H                    -0.5702    1.9784   -0.6958 
 H                    -1.207     0.503     1.8865 
 C                    -2.0063   -0.2391   -0.0068 
 O                    -1.9637   -0.3005   -1.2288 
 H                     0.0393   -1.9945    1.5795 
 H                    -2.818    -0.7085    0.5735 
 
 Add virtual bond connecting atoms C2         and O1         Dist= 3.67D+00.

 GradGradGradGradGradGradGradGradGradGradGradGradGradGradGradGradGradGrad
 Berny optimization.
 Initialization pass.
                           ----------------------------
                           !    Initial Parameters    !
                           ! (Angstroms and Degrees)  !
 --------------------------                            --------------------------
 ! Name  Definition              Value          Derivative Info.                !
 --------------------------------------------------------------------------------
 ! R1    R(1,2)                  1.9415         calculate D2E/DX2 analytically  !
 ! R2    R(1,5)                  1.2297         calculate D2E/DX2 analytically  !
 ! R3    R(2,4)                  1.4706         calculate D2E/DX2 analytically  !
 ! R4    R(2,10)                 1.0875         calculate D2E/DX2 analytically  !
 ! R5    R(2,11)                 1.0899         calculate D2E/DX2 analytically  !
 ! R6    R(3,6)                  1.4573         calculate D2E/DX2 analytically  !
 ! R7    R(3,8)                  1.0946         calculate D2E/DX2 analytically  !
 ! R8    R(3,15)                 1.0891         calculate D2E/DX2 analytically  !
 ! R9    R(4,12)                 1.0889         calculate D2E/DX2 analytically  !
 ! R10   R(4,13)                 1.4936         calculate D2E/DX2 analytically  !
 ! R11   R(5,6)                  1.482          calculate D2E/DX2 analytically  !
 ! R12   R(5,7)                  1.1025         calculate D2E/DX2 analytically  !
 ! R13   R(6,9)                  1.0823         calculate D2E/DX2 analytically  !
 ! R14   R(13,14)                1.2243         calculate D2E/DX2 analytically  !
 ! R15   R(13,16)                1.1027         calculate D2E/DX2 analytically  !
 ! A1    A(2,1,5)              124.5813         calculate D2E/DX2 analytically  !
 ! A2    A(1,2,4)              110.2997         calculate D2E/DX2 analytically  !
 ! A3    A(1,2,10)              95.1782         calculate D2E/DX2 analytically  !
 ! A4    A(1,2,11)              91.4545         calculate D2E/DX2 analytically  !
 ! A5    A(4,2,10)             117.2544         calculate D2E/DX2 analytically  !
 ! A6    A(4,2,11)             117.5115         calculate D2E/DX2 analytically  !
 ! A7    A(10,2,11)            117.9918         calculate D2E/DX2 analytically  !
 ! A8    A(6,3,8)              113.886          calculate D2E/DX2 analytically  !
 ! A9    A(6,3,15)             115.6401         calculate D2E/DX2 analytically  !
 ! A10   A(8,3,15)             115.7174         calculate D2E/DX2 analytically  !
 ! A11   A(2,4,12)             115.5318         calculate D2E/DX2 analytically  !
 ! A12   A(2,4,13)             119.3742         calculate D2E/DX2 analytically  !
 ! A13   A(12,4,13)            114.6711         calculate D2E/DX2 analytically  !
 ! A14   A(1,5,6)              121.3901         calculate D2E/DX2 analytically  !
 ! A15   A(1,5,7)              123.207          calculate D2E/DX2 analytically  !
 ! A16   A(6,5,7)              115.3633         calculate D2E/DX2 analytically  !
 ! A17   A(3,6,5)              119.6827         calculate D2E/DX2 analytically  !
 ! A18   A(3,6,9)              120.4595         calculate D2E/DX2 analytically  !
 ! A19   A(5,6,9)              117.527          calculate D2E/DX2 analytically  !
 ! A20   A(4,13,14)            123.7007         calculate D2E/DX2 analytically  !
 ! A21   A(4,13,16)            114.3155         calculate D2E/DX2 analytically  !
 ! A22   A(14,13,16)           121.9743         calculate D2E/DX2 analytically  !
 ! D1    D(5,1,2,4)             22.8218         calculate D2E/DX2 analytically  !
 ! D2    D(5,1,2,10)           144.4087         calculate D2E/DX2 analytically  !
 ! D3    D(5,1,2,11)           -97.3151         calculate D2E/DX2 analytically  !
 ! D4    D(2,1,5,6)            -41.0115         calculate D2E/DX2 analytically  !
 ! D5    D(2,1,5,7)            136.5934         calculate D2E/DX2 analytically  !
 ! D6    D(1,2,4,12)           120.4906         calculate D2E/DX2 analytically  !
 ! D7    D(1,2,4,13)           -96.409          calculate D2E/DX2 analytically  !
 ! D8    D(10,2,4,12)           13.1052         calculate D2E/DX2 analytically  !
 ! D9    D(10,2,4,13)          156.2056         calculate D2E/DX2 analytically  !
 ! D10   D(11,2,4,12)         -136.6141         calculate D2E/DX2 analytically  !
 ! D11   D(11,2,4,13)            6.4863         calculate D2E/DX2 analytically  !
 ! D12   D(8,3,6,5)            -54.9362         calculate D2E/DX2 analytically  !
 ! D13   D(8,3,6,9)            142.822          calculate D2E/DX2 analytically  !
 ! D14   D(15,3,6,5)           167.4198         calculate D2E/DX2 analytically  !
 ! D15   D(15,3,6,9)             5.1779         calculate D2E/DX2 analytically  !
 ! D16   D(2,4,13,14)           30.3105         calculate D2E/DX2 analytically  !
 ! D17   D(2,4,13,16)         -150.7955         calculate D2E/DX2 analytically  !
 ! D18   D(12,4,13,14)         173.712          calculate D2E/DX2 analytically  !
 ! D19   D(12,4,13,16)          -7.394          calculate D2E/DX2 analytically  !
 ! D20   D(1,5,6,3)             -1.6488         calculate D2E/DX2 analytically  !
 ! D21   D(1,5,6,9)            161.1057         calculate D2E/DX2 analytically  !
 ! D22   D(7,5,6,3)           -179.4312         calculate D2E/DX2 analytically  !
 ! D23   D(7,5,6,9)            -16.6767         calculate D2E/DX2 analytically  !
 --------------------------------------------------------------------------------
 Trust Radius=1.00D-01 FncErr=1.00D-07 GrdErr=1.00D-07 EigMax=2.50D+02 EigMin=1.00D-04
 Number of steps in this run=     50 maximum allowed number of steps=    100.
 Search for a saddle point of order  1.
 GradGradGradGradGradGradGradGradGradGradGradGradGradGradGradGradGradGrad

                          Input orientation:                          
 ---------------------------------------------------------------------
 Center     Atomic      Atomic             Coordinates (Angstroms)
 Number     Number       Type             X           Y           Z
 ---------------------------------------------------------------------
      1          8           0        1.457100    1.027700   -0.470300
      2          6           0       -0.244700    1.596000    0.271500
      3          6           0        0.524300   -1.106400    1.176700
      4          6           0       -0.970400    0.443000    0.825300
      5          6           0        1.708900   -0.117000   -0.842400
      6          6           0        1.254700   -1.297300   -0.069800
      7          1           0        2.245800   -0.343300   -1.778400
      8          1           0        1.047500   -0.479100    1.905400
      9          1           0        1.224600   -2.249700   -0.583000
     10          1           0        0.186900    2.299600    0.979500
     11          1           0       -0.570200    1.978400   -0.695800
     12          1           0       -1.207000    0.503000    1.886500
     13          6           0       -2.006300   -0.239100   -0.006800
     14          8           0       -1.963700   -0.300500   -1.228800
     15          1           0        0.039300   -1.994500    1.579500
     16          1           0       -2.818000   -0.708500    0.573500
 ---------------------------------------------------------------------
                    Distance matrix (angstroms):
                    1          2          3          4          5
     1  O    0.000000
     2  C    1.941483   0.000000
     3  C    2.852562   2.951900   0.000000
     4  C    2.813043   1.470627   2.181341   0.000000
     5  C    1.229715   2.826959   2.541447   3.205226   0.000000
     6  C    2.367909   3.276564   1.457288   2.963261   1.481997
     7  H    2.052514   3.763717   3.504069   4.212062   1.102529
     8  H    2.842916   2.940315   1.094645   2.467550   2.849381
     9  H    3.287569   4.204571   2.212261   3.748595   2.202327
    10  H    2.309341   1.087472   3.428347   2.193190   3.387589
    11  H    2.250472   1.089885   3.770965   2.198035   3.099434
    12  H    3.595448   2.174602   2.468073   1.088910   4.041506
    13  C    3.716820   2.558960   2.925204   1.493566   3.809967
    14  O    3.747174   2.966913   3.553315   2.399742   3.697427
    15  H    3.917337   3.831868   1.089126   2.744033   3.489723
    16  H    4.730792   3.467535   3.419524   2.191570   4.779903
                    6          7          8          9         10
     6  C    0.000000
     7  H    2.193561   0.000000
     8  H    2.147975   3.876177   0.000000
     9  H    1.082287   2.471071   3.059170   0.000000
    10  H    3.896013   4.339355   3.052720   4.920809   0.000000
    11  H    3.801624   3.806858   3.927149   4.594656   1.866280
    12  H    3.623280   5.105834   2.459197   4.425886   2.448138
    13  C    3.428976   4.607578   3.611067   3.848796   3.496843
    14  O    3.563003   4.245443   4.349992   3.792321   4.032640
    15  H    2.164134   4.344030   1.849085   2.479207   4.338327
    16  H    4.165022   5.595255   4.094957   4.478326   4.271174
                   11         12         13         14         15
    11  H    0.000000
    12  H    3.041479   0.000000
    13  C    2.730277   2.184989   0.000000
    14  O    2.723842   3.305042   1.224283   0.000000
    15  H    4.618703   2.808028   3.127660   3.842941   0.000000
    16  H    3.726011   2.405623   1.102697   2.035824   3.290896
                   16
    16  H    0.000000
 Stoichiometry    C6H8O2
 Framework group  C1[X(C6H8O2)]
 Deg. of freedom    42
 Full point group                 C1      NOp   1
 Largest Abelian subgroup         C1      NOp   1
 Largest concise Abelian subgroup C1      NOp   1
                         Standard orientation:                         
 ---------------------------------------------------------------------
 Center     Atomic      Atomic             Coordinates (Angstroms)
 Number     Number       Type             X           Y           Z
 ---------------------------------------------------------------------
      1          8           0        1.456663    1.150187   -0.166589
      2          6           0       -0.295156    1.484708    0.600602
      3          6           0        0.577324   -1.309812    0.978956
      4          6           0       -0.980385    0.214072    0.881122
      5          6           0        1.777583    0.115798   -0.749039
      6          6           0        1.357444   -1.214233   -0.248222
      7          1           0        2.355984    0.105909   -1.687615
      8          1           0        1.043980   -0.820927    1.840043
      9          1           0        1.392065   -2.043889   -0.942352
     10          1           0        0.076943    2.048562    1.452780
     11          1           0       -0.606967    2.040330   -0.283653
     12          1           0       -1.254887    0.048655    1.921800
     13          6           0       -1.952636   -0.329229   -0.114011
     14          8           0       -1.866360   -0.140930   -1.320646
     15          1           0        0.124155   -2.280601    1.174920
     16          1           0       -2.758742   -0.939929    0.325510
 ---------------------------------------------------------------------
 Rotational constants (GHZ):           2.7622736           1.6518644           1.4942764
 Standard basis: STO-3G (5D, 7F)
 There are    48 symmetry adapted cartesian basis functions of A   symmetry.
 There are    48 symmetry adapted basis functions of A   symmetry.
    48 basis functions,   144 primitive gaussians,    48 cartesian basis functions
    30 alpha electrons       30 beta electrons
       nuclear repulsion energy       354.7323196843 Hartrees.
 NAtoms=   16 NActive=   16 NUniq=   16 SFac= 1.00D+00 NAtFMM=   60 NAOKFM=F Big=F
 Integral buffers will be    131072 words long.
 Raffenetti 1 integral format.
 Two-electron integral symmetry is turned on.
 External calculation of energy, first and second derivatives.
 Running external command "~/scripts/MiMe -H 'pbepbe def2svp' -EF 'wb97xd def2svp' -c 12 -m 48GB R"
         input file       "/local/jobs/1158154/Gau-76663.EIn"
         output file      "/local/jobs/1158154/Gau-76663.EOu"
         message file     "/local/jobs/1158154/Gau-76663.EMs"
         fchk file        "/local/jobs/1158154/Gau-76663.EFC"
         mat. el file     "/local/jobs/1158154/Gau-76663.EUF"
 Read checkpoint file Gau-76663_H.chk type G16
 Write formatted file Gau-76663_H.fchk

deriv: 2

spelevel: wb97xd def2svp
gradlevel: wb97xd def2svp
hesslevel: pbepbe def2svp

runspe: False
runforce: True
runfreq: True

Running Gaussian ...

Parsing files ...
SPE file: Gau-76663_F.out
FORCE file: Gau-76663_F.out
HESS file: Gau-76663_H.out

 ExternalExternalExternalExternalExternalExternalExternalExternalExternalExternal
 Output from external command:
 "~/scripts/MiMe -H 'pbepbe def2svp' -EF 'wb97xd def2svp' -c 12 -m 48GB R /local/jobs/1158154/Gau-76663.EIn /local/jobs/1158154/Gau-76663.EOu /local/jobs/1158154/Gau-76663.EMs /local/jobs/1158154/Gau-76663.EFC /local/jobs/1158154/Gau-76663.EUF"
  
 --------------------------------------------------
 Force calculation at wb97xd def2svp
 Hessian calculation at pbepbe def2svp
 ExternalExternalExternalExternalExternalExternalExternalExternalExternalExternal

 Recovered energy= -383.350862788     dipole=      0.111200000000     -0.472700000000      2.721500000000
 Energy=    -383.350863     NIter=   0.
 Dipole moment=       0.111200      -0.472700       2.721500
 ***** Axes restored to original set *****
 -------------------------------------------------------------------
 Center     Atomic                   Forces (Hartrees/Bohr)
 Number     Number              X              Y              Z
 -------------------------------------------------------------------
      1        8          -0.000889665    0.042989829    0.009589756
      2        6          -0.017691260   -0.051241754    0.008575791
      3        6           0.032606798    0.006862943   -0.046765389
      4        6           0.013935932    0.018567655   -0.016312770
      5        6          -0.020384530   -0.081331990    0.036937832
      6        6          -0.011134781    0.049725083    0.007985470
      7        1          -0.002144649    0.007664424   -0.006353060
      8        1          -0.008803803    0.005326047    0.000881817
      9        1          -0.001567510   -0.006457468   -0.004267550
     10        1           0.003000679    0.001492007   -0.000928861
     11        1           0.002526325   -0.000292793   -0.001800962
     12        1           0.001019634    0.000014916    0.004672313
     13        6           0.024748504    0.010477005   -0.024056200
     14        8          -0.001929395    0.001653691    0.025999212
     15        1          -0.006487349    0.000170303    0.003095855
     16        1          -0.006804931   -0.005619897    0.002746746
 -------------------------------------------------------------------
 Cartesian Forces:  Max     0.081331990 RMS     0.021673989
 FormGI is forming the generalized inverse of G from B-inverse, IUseBI=4.

 GradGradGradGradGradGradGradGradGradGradGradGradGradGradGradGradGradGrad
 Berny optimization.
 Internal  Forces:  Max     0.092349869 RMS     0.021336701
 Search for a saddle point.
 Step number   1 out of a maximum of   50
 All quantities printed in internal units (Hartrees-Bohrs-Radians)
 Swapping is turned off.
 Second derivative matrix not updated -- analytic derivatives used.
 ITU=  0
     Eigenvalues ---   -0.30096  -0.01270  -0.00542   0.00037   0.00792
     Eigenvalues ---    0.00930   0.01395   0.01852   0.02846   0.03340
     Eigenvalues ---    0.03922   0.04640   0.05580   0.06649   0.07318
     Eigenvalues ---    0.07520   0.07776   0.09091   0.10444   0.11496
     Eigenvalues ---    0.11918   0.12605   0.13814   0.15492   0.19987
     Eigenvalues ---    0.20685   0.24393   0.28133   0.31874   0.33072
     Eigenvalues ---    0.33468   0.35611   0.36657   0.37025   0.37099
     Eigenvalues ---    0.37555   0.38481   0.40311   0.49965   0.52418
     Eigenvalues ---    0.80502   0.89175
 Eigenvectors required to have negative eigenvalues:
                          A1        R1        D4        R3        R6
   1                   -0.45112  -0.32621   0.27583   0.24921   0.24800
                          D12       A17       R11       D5        A14
   1                   -0.24159  -0.23397  -0.22177   0.18655  -0.18126
 RFO step:  Lambda0=2.487524271D-02 Lambda=-5.86981620D-02.
 Linear search not attempted -- option 19 set.
 Maximum step size (   0.100) exceeded in Quadratic search.
    -- Step size scaled by   0.239
 Iteration  1 RMS(Cart)=  0.05446205 RMS(Int)=  0.00100369
 Iteration  2 RMS(Cart)=  0.00153666 RMS(Int)=  0.00021758
 Iteration  3 RMS(Cart)=  0.00000093 RMS(Int)=  0.00021758
 Variable       Old X    -DE/DX   Delta X   Delta X   Delta X     New X
                                 (Linear)    (Quad)   (Total)
    R1        3.66887  -0.02421   0.00000   0.01819   0.01819   3.68707
    R2        2.32383   0.01569   0.00000   0.00618   0.00618   2.33000
    R3        2.77908  -0.03757   0.00000  -0.04274  -0.04274   2.73634
    R4        2.05502   0.00155   0.00000   0.00127   0.00127   2.05630
    R5        2.05958   0.00074   0.00000   0.00041   0.00041   2.06000
    R6        2.75388  -0.04366   0.00000  -0.04565  -0.04565   2.70823
    R7        2.06858  -0.00057   0.00000  -0.00124  -0.00124   2.06734
    R8        2.05815   0.00389   0.00000   0.00174   0.00174   2.05989
    R9        2.05774   0.00433   0.00000   0.00192   0.00192   2.05966
   R10        2.82243  -0.01669   0.00000  -0.01488  -0.01488   2.80755
   R11        2.80057  -0.06609   0.00000  -0.02919  -0.02919   2.77138
   R12        2.08348   0.00278   0.00000   0.00279   0.00279   2.08627
   R13        2.04523   0.00775   0.00000   0.00414   0.00414   2.04936
   R14        2.31356  -0.02610   0.00000  -0.00422  -0.00422   2.30934
   R15        2.08380   0.00885   0.00000   0.00564   0.00564   2.08943
    A1        2.17435  -0.09235   0.00000  -0.02357  -0.02357   2.15079
    A2        1.92509  -0.02602   0.00000   0.00448   0.00445   1.92954
    A3        1.66117   0.00893   0.00000   0.00274   0.00268   1.66385
    A4        1.59618   0.00518   0.00000  -0.02678  -0.02678   1.56940
    A5        2.04648   0.00056   0.00000   0.01100   0.01092   2.05740
    A6        2.05096   0.00829   0.00000   0.00258   0.00252   2.05348
    A7        2.05935  -0.00260   0.00000  -0.00425  -0.00433   2.05501
    A8        1.98769   0.01064   0.00000   0.02517   0.02436   2.01204
    A9        2.01830   0.00656   0.00000   0.01971   0.01891   2.03721
   A10        2.01965  -0.00426   0.00000   0.00421   0.00317   2.02282
   A11        2.01641   0.00307   0.00000   0.01793   0.01775   2.03416
   A12        2.08347  -0.00815   0.00000  -0.01730  -0.01746   2.06601
   A13        2.00139   0.00574   0.00000   0.02186   0.02169   2.02307
   A14        2.11866  -0.04313   0.00000   0.00719   0.00718   2.12584
   A15        2.15037   0.01302   0.00000  -0.01534  -0.01534   2.13503
   A16        2.01347   0.02956   0.00000   0.00801   0.00801   2.02148
   A17        2.08886  -0.03981   0.00000  -0.00182  -0.00184   2.08702
   A18        2.10242   0.01640   0.00000   0.00261   0.00259   2.10500
   A19        2.05123   0.01990   0.00000   0.00255   0.00252   2.05376
   A20        2.15898  -0.00054   0.00000  -0.01369  -0.01369   2.14529
   A21        1.99518   0.00268   0.00000   0.01586   0.01585   2.01104
   A22        2.12885  -0.00215   0.00000  -0.00223  -0.00224   2.12662
    D1        0.39832   0.01079   0.00000  -0.00819  -0.00817   0.39014
    D2        2.52041   0.00710   0.00000   0.00693   0.00691   2.52732
    D3       -1.69847   0.00578   0.00000  -0.00025  -0.00024  -1.69871
    D4       -0.71579   0.03512   0.00000  -0.02393  -0.02394  -0.73973
    D5        2.38401   0.01913   0.00000  -0.02793  -0.02791   2.35609
    D6        2.10296  -0.00009   0.00000   0.01164   0.01166   2.11461
    D7       -1.68265   0.00321   0.00000   0.05520   0.05523  -1.62742
    D8        0.22873   0.00549   0.00000  -0.00076  -0.00078   0.22795
    D9        2.72630   0.00878   0.00000   0.04280   0.04280   2.76910
   D10       -2.38437  -0.00568   0.00000  -0.01731  -0.01734  -2.40171
   D11        0.11321  -0.00238   0.00000   0.02624   0.02624   0.13945
   D12       -0.95882   0.00397   0.00000   0.06514   0.06543  -0.89339
   D13        2.49271   0.01354   0.00000   0.05233   0.05262   2.54533
   D14        2.92203  -0.00962   0.00000   0.00482   0.00453   2.92656
   D15        0.09037  -0.00005   0.00000  -0.00799  -0.00828   0.08209
   D16        0.52902  -0.00201   0.00000  -0.01609  -0.01612   0.51290
   D17       -2.63188  -0.00245   0.00000  -0.02013  -0.02016  -2.65204
   D18        3.03185   0.00038   0.00000   0.02590   0.02593   3.05778
   D19       -0.12905  -0.00006   0.00000   0.02185   0.02189  -0.10716
   D20       -0.02878   0.00508   0.00000  -0.00370  -0.00371  -0.03248
   D21        2.81182  -0.00443   0.00000   0.00878   0.00877   2.82059
   D22       -3.13166   0.02009   0.00000   0.00054   0.00055  -3.13111
   D23       -0.29106   0.01059   0.00000   0.01302   0.01303  -0.27803
         Item               Value     Threshold  Converged?
 Maximum Force            0.092350     0.000450     NO 
 RMS     Force            0.021337     0.000300     NO 
 Maximum Displacement     0.193251     0.001800     NO 
 RMS     Displacement     0.054244     0.001200     NO 
 Predicted change in Energy=-8.019114D-03
 GradGradGradGradGradGradGradGradGradGradGradGradGradGradGradGradGradGrad

                          Input orientation:                          
 ---------------------------------------------------------------------
 Center     Atomic      Atomic             Coordinates (Angstroms)
 Number     Number       Type             X           Y           Z
 ---------------------------------------------------------------------
      1          8           0        1.443881    1.017215   -0.468291
      2          6           0       -0.256468    1.587451    0.300135
      3          6           0        0.563470   -1.101681    1.189782
      4          6           0       -0.978067    0.452427    0.836550
      5          6           0        1.662094   -0.136334   -0.845067
      6          6           0        1.226835   -1.299495   -0.065082
      7          1           0        2.157121   -0.359795   -1.806232
      8          1           0        1.076471   -0.435330    1.889508
      9          1           0        1.171033   -2.255234   -0.574531
     10          1           0        0.181997    2.290977    1.005016
     11          1           0       -0.566001    1.970044   -0.672563
     12          1           0       -1.224531    0.489097    1.897608
     13          6           0       -1.966148   -0.232585   -0.036222
     14          8           0       -1.861436   -0.273494   -1.253088
     15          1           0        0.078425   -1.972719    1.630494
     16          1           0       -2.799873   -0.728243    0.494583
 ---------------------------------------------------------------------
                    Distance matrix (angstroms):
                    1          2          3          4          5
     1  O    0.000000
     2  C    1.951111   0.000000
     3  C    2.830909   2.948763   0.000000
     4  C    2.808457   1.448008   2.217287   0.000000
     5  C    1.232985   2.822021   2.505888   3.185110   0.000000
     6  C    2.361531   3.266195   1.433132   2.956985   1.466550
     7  H    2.048159   3.748862   3.473646   4.180121   1.104005
     8  H    2.793580   2.897322   1.093988   2.473451   2.812516
     9  H    3.285522   4.191543   2.193768   3.733793   2.191818
    10  H    2.320658   1.088145   3.419033   2.180458   3.391951
    11  H    2.233660   1.090104   3.765571   2.179537   3.070993
    12  H    3.605109   2.166899   2.495705   1.089924   4.030638
    13  C    3.657456   2.519657   2.942343   1.485691   3.718553
    14  O    3.634138   2.907153   3.540293   2.381993   3.549727
    15  H    3.899881   3.815340   1.090048   2.761857   3.465360
    16  H    4.688625   3.445165   3.454683   2.197703   4.696187
                    6          7          8          9         10
     6  C    0.000000
     7  H    2.186337   0.000000
     8  H    2.142385   3.851234   0.000000
     9  H    1.084477   2.466201   3.064715   0.000000
    10  H    3.889510   4.339450   3.002525   4.913370   0.000000
    11  H    3.777985   3.758823   3.879141   4.569450   1.864610
    12  H    3.613919   5.086711   2.479767   4.402449   2.453939
    13  C    3.366641   4.488927   3.606532   3.771312   3.473769
    14  O    3.464311   4.057366   4.305043   3.685594   3.981353
    15  H    2.155703   4.328232   1.851149   2.477043   4.310575
    16  H    4.105354   5.477344   4.130092   4.386662   4.274083
                   11         12         13         14         15
    11  H    0.000000
    12  H    3.038526   0.000000
    13  C    2.686431   2.193290   0.000000
    14  O    2.654924   3.303647   1.222048   0.000000
    15  H    4.611370   2.798140   3.160109   3.868523   0.000000
    16  H    3.692312   2.435590   1.105680   2.035145   3.335208
                   16
    16  H    0.000000
 Stoichiometry    C6H8O2
 Framework group  C1[X(C6H8O2)]
 Deg. of freedom    42
 Full point group                 C1      NOp   1
 Largest Abelian subgroup         C1      NOp   1
 Largest concise Abelian subgroup C1      NOp   1
                         Standard orientation:                         
 ---------------------------------------------------------------------
 Center     Atomic      Atomic             Coordinates (Angstroms)
 Number     Number       Type             X           Y           Z
 ---------------------------------------------------------------------
      1          8           0        1.401803    1.177726   -0.168140
      2          6           0       -0.357798    1.458810    0.626612
      3          6           0        0.644176   -1.290097    0.993710
      4          6           0       -1.003291    0.190543    0.894131
      5          6           0        1.719014    0.142874   -0.758658
      6          6           0        1.354505   -1.182037   -0.246299
      7          1           0        2.255644    0.154452   -1.723396
      8          1           0        1.084824   -0.744930    1.833610
      9          1           0        1.386847   -2.016140   -0.938625
     10          1           0        0.005541    2.033976    1.475862
     11          1           0       -0.669753    2.007838   -0.261971
     12          1           0       -1.280391   -0.006172    1.929724
     13          6           0       -1.911295   -0.371308   -0.138888
     14          8           0       -1.770936   -0.157152   -1.333810
     15          1           0        0.216519   -2.264427    1.230345
     16          1           0       -2.718029   -1.021897    0.246395
 ---------------------------------------------------------------------
 Rotational constants (GHZ):           2.7513167           1.7012062           1.5507811
 Standard basis: STO-3G (5D, 7F)
 There are    48 symmetry adapted cartesian basis functions of A   symmetry.
 There are    48 symmetry adapted basis functions of A   symmetry.
    48 basis functions,   144 primitive gaussians,    48 cartesian basis functions
    30 alpha electrons       30 beta electrons
       nuclear repulsion energy       357.2578329340 Hartrees.
 NAtoms=   16 NActive=   16 NUniq=   16 SFac= 1.00D+00 NAtFMM=   60 NAOKFM=F Big=F
 Integral buffers will be    131072 words long.
 Raffenetti 1 integral format.
 Two-electron integral symmetry is turned on.
 External calculation of energy, first and second derivatives.
 Running external command "~/scripts/MiMe -H 'pbepbe def2svp' -EF 'wb97xd def2svp' -c 12 -m 48GB R"
         input file       "/local/jobs/1158154/Gau-76663.EIn"
         output file      "/local/jobs/1158154/Gau-76663.EOu"
         message file     "/local/jobs/1158154/Gau-76663.EMs"
         fchk file        "/local/jobs/1158154/Gau-76663.EFC"
         mat. el file     "/local/jobs/1158154/Gau-76663.EUF"
 Read checkpoint file Gau-76663_H.chk type G16
 Write formatted file Gau-76663_H.fchk

deriv: 2

spelevel: wb97xd def2svp
gradlevel: wb97xd def2svp
hesslevel: pbepbe def2svp

runspe: False
runforce: True
runfreq: True

Running Gaussian ...

Parsing files ...
SPE file: Gau-76663_F.out
FORCE file: Gau-76663_F.out
HESS file: Gau-76663_H.out

 ExternalExternalExternalExternalExternalExternalExternalExternalExternalExternal
 Output from external command:
 "~/scripts/MiMe -H 'pbepbe def2svp' -EF 'wb97xd def2svp' -c 12 -m 48GB R /local/jobs/1158154/Gau-76663.EIn /local/jobs/1158154/Gau-76663.EOu /local/jobs/1158154/Gau-76663.EMs /local/jobs/1158154/Gau-76663.EFC /local/jobs/1158154/Gau-76663.EUF"
  
 --------------------------------------------------
 Force calculation at wb97xd def2svp
 Hessian calculation at pbepbe def2svp
 ExternalExternalExternalExternalExternalExternalExternalExternalExternalExternal

 Recovered energy= -383.358719581     dipole=      0.139100000000     -0.703700000000      2.688300000000
 Energy=    -383.358720     NIter=   0.
 Dipole moment=       0.139100      -0.703700       2.688300
 ***** Axes restored to original set *****
 -------------------------------------------------------------------
 Center     Atomic                   Forces (Hartrees/Bohr)
 Number     Number              X              Y              Z
 -------------------------------------------------------------------
      1        8           0.002713536    0.031556451    0.007343689
      2        6          -0.016970033   -0.040159380    0.007328719
      3        6           0.027091208    0.002702839   -0.037067191
      4        6           0.008198327    0.018295531   -0.012864304
      5        6          -0.014348424   -0.061988259    0.029330115
      6        6          -0.009428681    0.038389732    0.006930955
      7        1          -0.002538073    0.006559079   -0.005246013
      8        1          -0.008426164    0.005327699    0.000249064
      9        1          -0.001773665   -0.004856163   -0.003603838
     10        1           0.002946044    0.001071555   -0.000959895
     11        1           0.002686036   -0.000427839   -0.001573859
     12        1           0.001622337   -0.000970895    0.003843634
     13        6           0.022214768    0.008303181   -0.018021400
     14        8          -0.003545800    0.000382326    0.019712367
     15        1          -0.005114195    0.000356612    0.002712063
     16        1          -0.005327219   -0.004542466    0.001885894
 -------------------------------------------------------------------
 Cartesian Forces:  Max     0.061988259 RMS     0.016982487
 FormGI is forming the generalized inverse of G from B-inverse, IUseBI=4.

 GradGradGradGradGradGradGradGradGradGradGradGradGradGradGradGradGradGrad
 Berny optimization.
 Internal  Forces:  Max     0.067119334 RMS     0.015872908
 Search for a saddle point.
 Step number   2 out of a maximum of   50
 All quantities printed in internal units (Hartrees-Bohrs-Radians)
 Swapping is turned off.
 Second derivative matrix not updated -- analytic derivatives used.
 ITU=  0  0
     Eigenvalues ---   -0.23642  -0.01153  -0.00477   0.00341   0.00809
     Eigenvalues ---    0.01006   0.01567   0.02048   0.02861   0.03421
     Eigenvalues ---    0.04077   0.04708   0.05894   0.06901   0.07428
     Eigenvalues ---    0.07520   0.08096   0.09228   0.10572   0.11629
     Eigenvalues ---    0.11881   0.12522   0.14050   0.15395   0.20550
     Eigenvalues ---    0.21136   0.25256   0.29598   0.32469   0.33146
     Eigenvalues ---    0.35250   0.35996   0.36490   0.36893   0.36955
     Eigenvalues ---    0.37379   0.37979   0.42508   0.46623   0.50779
     Eigenvalues ---    0.81811   0.87596
 Eigenvectors required to have negative eigenvalues:
                          A1        R1        D12       D4        R6
   1                   -0.40679  -0.36503  -0.27295   0.26881   0.23594
                          R3        A17       R11       D5        D13
   1                    0.23541  -0.23227  -0.22253   0.18754  -0.17197
 RFO step:  Lambda0=1.370941498D-02 Lambda=-3.97512492D-02.
 Linear search not attempted -- option 19 set.
 Maximum step size (   0.100) exceeded in Quadratic search.
    -- Step size scaled by   0.286
 Iteration  1 RMS(Cart)=  0.07376670 RMS(Int)=  0.00159999
 Iteration  2 RMS(Cart)=  0.00239569 RMS(Int)=  0.00022184
 Iteration  3 RMS(Cart)=  0.00000216 RMS(Int)=  0.00022184
 Iteration  4 RMS(Cart)=  0.00000000 RMS(Int)=  0.00022184
 Variable       Old X    -DE/DX   Delta X   Delta X   Delta X     New X
                                 (Linear)    (Quad)   (Total)
    R1        3.68707  -0.01583   0.00000   0.02144   0.02144   3.70851
    R2        2.33000   0.01211   0.00000   0.00818   0.00818   2.33819
    R3        2.73634  -0.03039   0.00000  -0.03422  -0.03422   2.70212
    R4        2.05630   0.00126   0.00000   0.00137   0.00137   2.05767
    R5        2.06000   0.00049   0.00000   0.00013   0.00013   2.06013
    R6        2.70823  -0.03498   0.00000  -0.03614  -0.03614   2.67209
    R7        2.06734  -0.00055   0.00000  -0.00117  -0.00117   2.06617
    R8        2.05989   0.00309   0.00000   0.00154   0.00154   2.06144
    R9        2.05966   0.00334   0.00000   0.00170   0.00170   2.06135
   R10        2.80755  -0.01289   0.00000  -0.01230  -0.01230   2.79525
   R11        2.77138  -0.05032   0.00000  -0.02968  -0.02968   2.74170
   R12        2.08627   0.00210   0.00000   0.00229   0.00229   2.08855
   R13        2.04936   0.00606   0.00000   0.00361   0.00361   2.05298
   R14        2.30934  -0.01995   0.00000  -0.00397  -0.00397   2.30537
   R15        2.08943   0.00696   0.00000   0.00540   0.00540   2.09484
    A1        2.15079  -0.06712   0.00000  -0.03356  -0.03356   2.11723
    A2        1.92954  -0.01767   0.00000  -0.00070  -0.00072   1.92882
    A3        1.66385   0.00588   0.00000   0.00811   0.00808   1.67193
    A4        1.56940   0.00256   0.00000  -0.03140  -0.03141   1.53799
    A5        2.05740   0.00017   0.00000   0.01070   0.01060   2.06800
    A6        2.05348   0.00660   0.00000   0.00437   0.00422   2.05770
    A7        2.05501  -0.00206   0.00000  -0.00401  -0.00409   2.05092
    A8        2.01204   0.00877   0.00000   0.01937   0.01853   2.03058
    A9        2.03721   0.00501   0.00000   0.02151   0.02068   2.05789
   A10        2.02282  -0.00366   0.00000   0.00398   0.00297   2.02579
   A11        2.03416   0.00213   0.00000   0.01970   0.01941   2.05356
   A12        2.06601  -0.00466   0.00000  -0.01820  -0.01846   2.04755
   A13        2.02307   0.00394   0.00000   0.02383   0.02356   2.04663
   A14        2.12584  -0.02976   0.00000   0.00491   0.00490   2.13074
   A15        2.13503   0.00767   0.00000  -0.01613  -0.01613   2.11890
   A16        2.02148   0.02162   0.00000   0.01103   0.01103   2.03251
   A17        2.08702  -0.02906   0.00000  -0.01036  -0.01038   2.07663
   A18        2.10500   0.01205   0.00000   0.00540   0.00538   2.11038
   A19        2.05376   0.01462   0.00000   0.00830   0.00828   2.06204
   A20        2.14529   0.00144   0.00000  -0.01498  -0.01499   2.13030
   A21        2.01104   0.00108   0.00000   0.01792   0.01791   2.02895
   A22        2.12662  -0.00253   0.00000  -0.00311  -0.00312   2.12349
    D1        0.39014   0.00915   0.00000  -0.00593  -0.00586   0.38429
    D2        2.52732   0.00613   0.00000   0.00993   0.00994   2.53726
    D3       -1.69871   0.00461   0.00000   0.00299   0.00291  -1.69580
    D4       -0.73973   0.02580   0.00000  -0.03374  -0.03376  -0.77349
    D5        2.35609   0.01363   0.00000  -0.03863  -0.03861   2.31749
    D6        2.11461  -0.00062   0.00000   0.02035   0.02036   2.13497
    D7       -1.62742   0.00314   0.00000   0.07131   0.07135  -1.55607
    D8        0.22795   0.00385   0.00000   0.00450   0.00449   0.23244
    D9        2.76910   0.00761   0.00000   0.05546   0.05548   2.82458
   D10       -2.40171  -0.00502   0.00000  -0.01654  -0.01658  -2.41829
   D11        0.13945  -0.00126   0.00000   0.03442   0.03441   0.17385
   D12       -0.89339   0.00529   0.00000   0.07570   0.07596  -0.81743
   D13        2.54533   0.01213   0.00000   0.06140   0.06166   2.60699
   D14        2.92656  -0.00730   0.00000   0.01213   0.01187   2.93843
   D15        0.08209  -0.00046   0.00000  -0.00217  -0.00243   0.07966
   D16        0.51290  -0.00231   0.00000  -0.02589  -0.02594   0.48696
   D17       -2.65204  -0.00257   0.00000  -0.03415  -0.03420  -2.68624
   D18        3.05778   0.00084   0.00000   0.02348   0.02353   3.08131
   D19       -0.10716   0.00059   0.00000   0.01522   0.01527  -0.09190
   D20       -0.03248   0.00365   0.00000   0.00102   0.00101  -0.03148
   D21        2.82059  -0.00313   0.00000   0.01454   0.01453   2.83513
   D22       -3.13111   0.01532   0.00000   0.00628   0.00629  -3.12482
   D23       -0.27803   0.00853   0.00000   0.01980   0.01982  -0.25821
         Item               Value     Threshold  Converged?
 Maximum Force            0.067119     0.000450     NO 
 RMS     Force            0.015873     0.000300     NO 
 Maximum Displacement     0.248382     0.001800     NO 
 RMS     Displacement     0.073454     0.001200     NO 
 Predicted change in Energy=-7.215436D-03
 GradGradGradGradGradGradGradGradGradGradGradGradGradGradGradGradGradGrad

                          Input orientation:                          
 ---------------------------------------------------------------------
 Center     Atomic      Atomic             Coordinates (Angstroms)
 Number     Number       Type             X           Y           Z
 ---------------------------------------------------------------------
      1          8           0        1.434576    1.004861   -0.463694
      2          6           0       -0.262173    1.579783    0.337399
      3          6           0        0.595299   -1.080143    1.205756
      4          6           0       -0.981067    0.454847    0.849574
      5          6           0        1.601138   -0.158348   -0.851189
      6          6           0        1.180374   -1.301051   -0.062433
      7          1           0        2.037952   -0.378211   -1.842325
      8          1           0        1.109644   -0.371552    1.860588
      9          1           0        1.084433   -2.261085   -0.561806
     10          1           0        0.181479    2.278536    1.044898
     11          1           0       -0.550721    1.967667   -0.639721
     12          1           0       -1.243976    0.461180    1.908219
     13          6           0       -1.905934   -0.237493   -0.074150
     14          8           0       -1.729998   -0.245295   -1.281319
     15          1           0        0.111451   -1.924356    1.698892
     16          1           0       -2.753677   -0.777040    0.393910
 ---------------------------------------------------------------------
                    Distance matrix (angstroms):
                    1          2          3          4          5
     1  O    0.000000
     2  C    1.962458   0.000000
     3  C    2.799766   2.926518   0.000000
     4  C    2.804019   1.429900   2.228899   0.000000
     5  C    1.237316   2.811720   2.468287   3.152203   0.000000
     6  C    2.354328   3.246539   1.414007   2.930318   1.450845
     7  H    2.043912   3.724985   3.444526   4.129744   1.105214
     8  H    2.720731   2.830140   1.093370   2.464986   2.764192
     9  H    3.286127   4.168235   2.181319   3.692502   2.184543
    10  H    2.338450   1.088870   3.387897   2.171523   3.398379
    11  H    2.213455   1.090173   3.742765   2.166062   3.032351
    12  H    3.618867   2.163951   2.500413   1.090821   4.011586
    13  C    3.585275   2.484717   2.933323   1.479182   3.592994
    14  O    3.499418   2.847046   3.505641   2.364699   3.359916
    15  H    3.873983   3.777862   1.090865   2.752370   3.441055
    16  H    4.631643   3.430073   3.459278   2.206200   4.571374
                    6          7          8          9         10
     6  C    0.000000
     7  H    2.180617   0.000000
     8  H    2.137050   3.817508   0.000000
     9  H    1.086390   2.468632   3.072290   0.000000
    10  H    3.877811   4.340606   2.924005   4.899488   0.000000
    11  H    3.743590   3.694675   3.805299   4.534549   1.862981
    12  H    3.586977   5.053931   2.497046   4.351234   2.465772
    13  C    3.264443   4.324406   3.585372   3.643491   3.455426
    14  O    3.327246   3.811803   4.236872   3.535835   3.928709
    15  H    2.152526   4.317660   1.853034   2.484116   4.254047
    16  H    3.994946   5.302785   4.152206   4.224555   4.286663
                   11         12         13         14         15
    11  H    0.000000
    12  H    3.040083   0.000000
    13  C    2.649379   2.203660   0.000000
    14  O    2.588348   3.302798   1.219948   0.000000
    15  H    4.588618   2.751687   3.171596   3.884821   0.000000
    16  H    3.668082   2.470934   1.108539   2.033978   3.350861
                   16
    16  H    0.000000
 Stoichiometry    C6H8O2
 Framework group  C1[X(C6H8O2)]
 Deg. of freedom    42
 Full point group                 C1      NOp   1
 Largest Abelian subgroup         C1      NOp   1
 Largest concise Abelian subgroup C1      NOp   1
                         Standard orientation:                         
 ---------------------------------------------------------------------
 Center     Atomic      Atomic             Coordinates (Angstroms)
 Number     Number       Type             X           Y           Z
 ---------------------------------------------------------------------
      1          8           0        1.353445    1.192217   -0.181962
      2          6           0       -0.409944    1.440755    0.642616
      3          6           0        0.691382   -1.242629    1.031252
      4          6           0       -1.023169    0.175947    0.904971
      5          6           0        1.644815    0.145259   -0.773512
      6          6           0        1.323772   -1.161416   -0.230850
      7          1           0        2.123470    0.160661   -1.769579
      8          1           0        1.117106   -0.626405    1.827798
      9          1           0        1.336075   -2.013366   -0.904848
     10          1           0       -0.054718    2.030640    1.486114
     11          1           0       -0.714272    1.978686   -0.255434
     12          1           0       -1.308853   -0.044507    1.934375
     13          6           0       -1.852885   -0.411990   -0.169218
     14          8           0       -1.650261   -0.172891   -1.348220
     15          1           0        0.284119   -2.207274    1.337165
     16          1           0       -2.652212   -1.108597    0.154315
 ---------------------------------------------------------------------
 Rotational constants (GHZ):           2.7410262           1.7711000           1.6337196
 Standard basis: STO-3G (5D, 7F)
 There are    48 symmetry adapted cartesian basis functions of A   symmetry.
 There are    48 symmetry adapted basis functions of A   symmetry.
    48 basis functions,   144 primitive gaussians,    48 cartesian basis functions
    30 alpha electrons       30 beta electrons
       nuclear repulsion energy       360.7013408533 Hartrees.
 NAtoms=   16 NActive=   16 NUniq=   16 SFac= 1.00D+00 NAtFMM=   60 NAOKFM=F Big=F
 Integral buffers will be    131072 words long.
 Raffenetti 1 integral format.
 Two-electron integral symmetry is turned on.
 External calculation of energy, first and second derivatives.
 Running external command "~/scripts/MiMe -H 'pbepbe def2svp' -EF 'wb97xd def2svp' -c 12 -m 48GB R"
         input file       "/local/jobs/1158154/Gau-76663.EIn"
         output file      "/local/jobs/1158154/Gau-76663.EOu"
         message file     "/local/jobs/1158154/Gau-76663.EMs"
         fchk file        "/local/jobs/1158154/Gau-76663.EFC"
         mat. el file     "/local/jobs/1158154/Gau-76663.EUF"
 Read checkpoint file Gau-76663_H.chk type G16
 Write formatted file Gau-76663_H.fchk

deriv: 2

spelevel: wb97xd def2svp
gradlevel: wb97xd def2svp
hesslevel: pbepbe def2svp

runspe: False
runforce: True
runfreq: True

Running Gaussian ...

Parsing files ...
SPE file: Gau-76663_F.out
FORCE file: Gau-76663_F.out
HESS file: Gau-76663_H.out

 ExternalExternalExternalExternalExternalExternalExternalExternalExternalExternal
 Output from external command:
 "~/scripts/MiMe -H 'pbepbe def2svp' -EF 'wb97xd def2svp' -c 12 -m 48GB R /local/jobs/1158154/Gau-76663.EIn /local/jobs/1158154/Gau-76663.EOu /local/jobs/1158154/Gau-76663.EMs /local/jobs/1158154/Gau-76663.EFC /local/jobs/1158154/Gau-76663.EUF"
  
 --------------------------------------------------
 Force calculation at wb97xd def2svp
 Hessian calculation at pbepbe def2svp
 ExternalExternalExternalExternalExternalExternalExternalExternalExternalExternal

 Recovered energy= -383.365542052     dipole=      0.007700000000     -0.891200000000      2.676900000000
 Energy=    -383.365542     NIter=   0.
 Dipole moment=       0.007700      -0.891200       2.676900
 ***** Axes restored to original set *****
 -------------------------------------------------------------------
 Center     Atomic                   Forces (Hartrees/Bohr)
 Number     Number              X              Y              Z
 -------------------------------------------------------------------
      1        8           0.004531979    0.021464518    0.006199952
      2        6          -0.014230085   -0.029263060    0.005140996
      3        6           0.020107869   -0.000072044   -0.027596184
      4        6           0.003789639    0.015938161   -0.009296644
      5        6          -0.009252815   -0.044122385    0.020739987
      6        6          -0.006520371    0.027863211    0.005830392
      7        1          -0.002664812    0.005366142   -0.003934355
      8        1          -0.007430962    0.004577643    0.000009477
      9        1          -0.001660594   -0.003353401   -0.002840089
     10        1           0.002716792    0.000690877   -0.000862342
     11        1           0.002329023   -0.000461448   -0.001121420
     12        1           0.001714750   -0.001335274    0.002884647
     13        6           0.018683508    0.006671628   -0.012335595
     14        8          -0.004790359   -0.000948527    0.013689724
     15        1          -0.003586456    0.000347391    0.002206543
     16        1          -0.003737104   -0.003363433    0.001284909
 -------------------------------------------------------------------
 Cartesian Forces:  Max     0.044122385 RMS     0.012434003
 FormGI is forming the generalized inverse of G from B-inverse, IUseBI=4.

 GradGradGradGradGradGradGradGradGradGradGradGradGradGradGradGradGradGrad
 Berny optimization.
 Internal  Forces:  Max     0.043046472 RMS     0.010823245
 Search for a saddle point.
 Step number   3 out of a maximum of   50
 All quantities printed in internal units (Hartrees-Bohrs-Radians)
 Swapping is turned off.
 Second derivative matrix not updated -- analytic derivatives used.
 ITU=  0  0  0
     Eigenvalues ---   -0.16155  -0.00741  -0.00319   0.00544   0.00770
     Eigenvalues ---    0.01159   0.01725   0.02447   0.02965   0.03549
     Eigenvalues ---    0.04390   0.04833   0.06154   0.07145   0.07592
     Eigenvalues ---    0.07805   0.08639   0.09398   0.10701   0.11661
     Eigenvalues ---    0.12376   0.12545   0.14437   0.16003   0.21072
     Eigenvalues ---    0.22089   0.26363   0.30967   0.31970   0.32935
     Eigenvalues ---    0.35841   0.36317   0.36702   0.36843   0.37211
     Eigenvalues ---    0.37554   0.39054   0.43302   0.48803   0.52786
     Eigenvalues ---    0.82910   0.87547
 Eigenvectors required to have negative eigenvalues:
                          R1        D12       A1        D4        R6
   1                   -0.42741  -0.32193  -0.30415   0.25892   0.22062
                          R3        R11       D13       A17       D5
   1                    0.21743  -0.21290  -0.20957  -0.20726   0.19163
 RFO step:  Lambda0=5.060283893D-03 Lambda=-2.18099807D-02.
 Linear search not attempted -- option 19 set.
 Maximum step size (   0.100) exceeded in Quadratic search.
    -- Step size scaled by   0.373
 Iteration  1 RMS(Cart)=  0.09491583 RMS(Int)=  0.00237957
 Iteration  2 RMS(Cart)=  0.00385071 RMS(Int)=  0.00021953
 Iteration  3 RMS(Cart)=  0.00000587 RMS(Int)=  0.00021951
 Iteration  4 RMS(Cart)=  0.00000000 RMS(Int)=  0.00021951
 Variable       Old X    -DE/DX   Delta X   Delta X   Delta X     New X
                                 (Linear)    (Quad)   (Total)
    R1        3.70851  -0.00939   0.00000  -0.01282  -0.01282   3.69569
    R2        2.33819   0.00910   0.00000   0.01357   0.01357   2.35176
    R3        2.70212  -0.02257   0.00000  -0.02311  -0.02311   2.67901
    R4        2.05767   0.00099   0.00000   0.00166   0.00166   2.05932
    R5        2.06013   0.00023   0.00000  -0.00009  -0.00009   2.06004
    R6        2.67209  -0.02576   0.00000  -0.02644  -0.02644   2.64564
    R7        2.06617  -0.00052   0.00000  -0.00131  -0.00131   2.06486
    R8        2.06144   0.00232   0.00000   0.00135   0.00135   2.06279
    R9        2.06135   0.00238   0.00000   0.00153   0.00153   2.06289
   R10        2.79525  -0.00910   0.00000  -0.01182  -0.01182   2.78343
   R11        2.74170  -0.03556   0.00000  -0.03383  -0.03383   2.70787
   R12        2.08855   0.00141   0.00000   0.00073   0.00073   2.08928
   R13        2.05298   0.00442   0.00000   0.00296   0.00296   2.05594
   R14        2.30537  -0.01423   0.00000  -0.00341  -0.00341   2.30195
   R15        2.09484   0.00504   0.00000   0.00534   0.00534   2.10018
    A1        2.11723  -0.04305   0.00000  -0.04286  -0.04286   2.07437
    A2        1.92882  -0.00986   0.00000   0.00080   0.00077   1.92959
    A3        1.67193   0.00277   0.00000   0.01390   0.01385   1.68578
    A4        1.53799   0.00079   0.00000  -0.02669  -0.02668   1.51131
    A5        2.06800  -0.00054   0.00000   0.00590   0.00584   2.07384
    A6        2.05770   0.00510   0.00000   0.00576   0.00571   2.06341
    A7        2.05092  -0.00146   0.00000  -0.00711  -0.00708   2.04384
    A8        2.03058   0.00684   0.00000   0.01260   0.01180   2.04238
    A9        2.05789   0.00324   0.00000   0.02356   0.02276   2.08066
   A10        2.02579  -0.00298   0.00000   0.00310   0.00217   2.02796
   A11        2.05356   0.00069   0.00000   0.01854   0.01810   2.07166
   A12        2.04755  -0.00083   0.00000  -0.01459  -0.01499   2.03256
   A13        2.04663   0.00172   0.00000   0.02333   0.02291   2.06955
   A14        2.13074  -0.01806   0.00000   0.00059   0.00058   2.13133
   A15        2.11890   0.00332   0.00000  -0.01915  -0.01916   2.09975
   A16        2.03251   0.01437   0.00000   0.01831   0.01830   2.05081
   A17        2.07663  -0.01911   0.00000  -0.02095  -0.02095   2.05568
   A18        2.11038   0.00796   0.00000   0.00932   0.00931   2.11969
   A19        2.06204   0.00960   0.00000   0.01429   0.01428   2.07631
   A20        2.13030   0.00375   0.00000  -0.01359  -0.01363   2.11667
   A21        2.02895  -0.00084   0.00000   0.01786   0.01782   2.04677
   A22        2.12349  -0.00290   0.00000  -0.00473  -0.00477   2.11872
    D1        0.38429   0.00795   0.00000   0.00444   0.00446   0.38875
    D2        2.53726   0.00514   0.00000   0.01855   0.01862   2.55588
    D3       -1.69580   0.00380   0.00000   0.00902   0.00893  -1.68687
    D4       -0.77349   0.01797   0.00000  -0.05439  -0.05443  -0.82792
    D5        2.31749   0.00940   0.00000  -0.06017  -0.06013   2.25736
    D6        2.13497  -0.00127   0.00000   0.03203   0.03204   2.16701
    D7       -1.55607   0.00219   0.00000   0.08974   0.08979  -1.46629
    D8        0.23244   0.00243   0.00000   0.01027   0.01024   0.24268
    D9        2.82458   0.00588   0.00000   0.06798   0.06799   2.89257
   D10       -2.41829  -0.00381   0.00000   0.00254   0.00251  -2.41578
   D11        0.17385  -0.00035   0.00000   0.06025   0.06025   0.23411
   D12       -0.81743   0.00527   0.00000   0.08522   0.08543  -0.73200
   D13        2.60699   0.01006   0.00000   0.07224   0.07245   2.67945
   D14        2.93843  -0.00517   0.00000   0.02076   0.02055   2.95898
   D15        0.07966  -0.00038   0.00000   0.00778   0.00757   0.08724
   D16        0.48696  -0.00223   0.00000  -0.01778  -0.01785   0.46911
   D17       -2.68624  -0.00224   0.00000  -0.03426  -0.03433  -2.72057
   D18        3.08131   0.00089   0.00000   0.03824   0.03831   3.11962
   D19       -0.09190   0.00088   0.00000   0.02176   0.02183  -0.07006
   D20       -0.03148   0.00299   0.00000   0.01388   0.01386  -0.01762
   D21        2.83513  -0.00176   0.00000   0.02590   0.02588   2.86101
   D22       -3.12482   0.01140   0.00000   0.02040   0.02042  -3.10440
   D23       -0.25821   0.00666   0.00000   0.03242   0.03244  -0.22577
         Item               Value     Threshold  Converged?
 Maximum Force            0.043046     0.000450     NO 
 RMS     Force            0.010823     0.000300     NO 
 Maximum Displacement     0.327247     0.001800     NO 
 RMS     Displacement     0.094195     0.001200     NO 
 Predicted change in Energy=-5.721645D-03
 GradGradGradGradGradGradGradGradGradGradGradGradGradGradGradGradGradGrad

                          Input orientation:                          
 ---------------------------------------------------------------------
 Center     Atomic      Atomic             Coordinates (Angstroms)
 Number     Number       Type             X           Y           Z
 ---------------------------------------------------------------------
      1          8           0        1.423896    0.991369   -0.446314
      2          6           0       -0.252904    1.568196    0.378472
      3          6           0        0.618323   -1.046086    1.221309
      4          6           0       -0.980378    0.451203    0.861073
      5          6           0        1.519415   -0.179431   -0.857264
      6          6           0        1.114503   -1.301095   -0.062754
      7          1           0        1.876611   -0.383095   -1.883561
      8          1           0        1.140662   -0.291648    1.814546
      9          1           0        0.967965   -2.264260   -0.546989
     10          1           0        0.191532    2.256118    1.097352
     11          1           0       -0.518286    1.973423   -0.598126
     12          1           0       -1.272086    0.430299    1.912801
     13          6           0       -1.823688   -0.255521   -0.118150
     14          8           0       -1.556826   -0.245246   -1.306657
     15          1           0        0.145054   -1.855626    1.780062
     16          1           0       -2.684992   -0.836300    0.276798
 ---------------------------------------------------------------------
                    Distance matrix (angstroms):
                    1          2          3          4          5
     1  O    0.000000
     2  C    1.955674   0.000000
     3  C    2.753386   2.881646   0.000000
     4  C    2.789547   1.417672   2.219794   0.000000
     5  C    1.244499   2.778914   2.425597   3.098281   0.000000
     6  C    2.344831   3.208943   1.400015   2.883146   1.432945
     7  H    2.039554   3.668674   3.415123   4.048636   1.105601
     8  H    2.614927   2.731915   1.092678   2.441259   2.700855
     9  H    3.288941   4.127315   2.175563   3.626626   2.178734
    10  H    2.345467   1.089747   3.331976   2.164929   3.393479
    11  H    2.181638   1.090128   3.704005   2.158690   2.975593
    12  H    3.626092   2.165111   2.496301   1.091633   3.979637
    13  C    3.494170   2.457629   2.895264   1.472925   3.424677
    14  O    3.339777   2.797936   3.429756   2.348699   3.109589
    15  H    3.833741   3.720939   1.091579   2.726279   3.413794
    16  H    4.554802   3.421548   3.442092   2.214667   4.403931
                    6          7          8          9         10
     6  C    0.000000
     7  H    2.176895   0.000000
     8  H    2.131648   3.771735   0.000000
     9  H    1.087955   2.480090   3.081862   0.000000
    10  H    3.853762   4.323284   2.811819   4.872425   0.000000
    11  H    3.697985   3.597367   3.701843   4.491048   1.859678
    12  H    3.549134   4.998827   2.520360   4.281243   2.478053
    13  C    3.119176   4.101849   3.538924   3.465871   3.441930
    14  O    3.130194   3.484295   4.125591   3.320856   3.884950
    15  H    2.154834   4.311471   1.854306   2.501866   4.168296
    16  H    3.842850   5.067620   4.158959   4.007716   4.302412
                   11         12         13         14         15
    11  H    0.000000
    12  H    3.042072   0.000000
    13  C    2.627288   2.213453   0.000000
    14  O    2.550112   3.301870   1.218142   0.000000
    15  H    4.556031   2.692835   3.168515   3.875249   0.000000
    16  H    3.654402   2.505410   1.111365   2.032101   3.362735
                   16
    16  H    0.000000
 Stoichiometry    C6H8O2
 Framework group  C1[X(C6H8O2)]
 Deg. of freedom    42
 Full point group                 C1      NOp   1
 Largest Abelian subgroup         C1      NOp   1
 Largest concise Abelian subgroup C1      NOp   1
                         Standard orientation:                         
 ---------------------------------------------------------------------
 Center     Atomic      Atomic             Coordinates (Angstroms)
 Number     Number       Type             X           Y           Z
 ---------------------------------------------------------------------
      1          8           0        1.316330    1.174169   -0.250573
      2          6           0       -0.431508    1.464962    0.577174
      3          6           0        0.703848   -1.123729    1.137111
      4          6           0       -1.041848    0.226682    0.899573
      5          6           0        1.549291    0.078385   -0.792571
      6          6           0        1.253145   -1.167647   -0.149895
      7          1           0        1.949174    0.039229   -1.822578
      8          1           0        1.126722   -0.394851    1.832711
      9          1           0        1.224305   -2.075528   -0.748699
     10          1           0       -0.081466    2.104728    1.386939
     11          1           0       -0.718456    1.954262   -0.353753
     12          1           0       -1.352465    0.048130    1.930737
     13          6           0       -1.780456   -0.442866   -0.184711
     14          8           0       -1.490359   -0.260973   -1.353740
     15          1           0        0.310547   -2.040597    1.580069
     16          1           0       -2.580956   -1.155660    0.108986
 ---------------------------------------------------------------------
 Rotational constants (GHZ):           2.7347566           1.8769112           1.7551747
 Standard basis: STO-3G (5D, 7F)
 There are    48 symmetry adapted cartesian basis functions of A   symmetry.
 There are    48 symmetry adapted basis functions of A   symmetry.
    48 basis functions,   144 primitive gaussians,    48 cartesian basis functions
    30 alpha electrons       30 beta electrons
       nuclear repulsion energy       365.6451142353 Hartrees.
 NAtoms=   16 NActive=   16 NUniq=   16 SFac= 1.00D+00 NAtFMM=   60 NAOKFM=F Big=F
 Integral buffers will be    131072 words long.
 Raffenetti 1 integral format.
 Two-electron integral symmetry is turned on.
 External calculation of energy, first and second derivatives.
 Running external command "~/scripts/MiMe -H 'pbepbe def2svp' -EF 'wb97xd def2svp' -c 12 -m 48GB R"
         input file       "/local/jobs/1158154/Gau-76663.EIn"
         output file      "/local/jobs/1158154/Gau-76663.EOu"
         message file     "/local/jobs/1158154/Gau-76663.EMs"
         fchk file        "/local/jobs/1158154/Gau-76663.EFC"
         mat. el file     "/local/jobs/1158154/Gau-76663.EUF"
 Read checkpoint file Gau-76663_H.chk type G16
 Write formatted file Gau-76663_H.fchk

deriv: 2

spelevel: wb97xd def2svp
gradlevel: wb97xd def2svp
hesslevel: pbepbe def2svp

runspe: False
runforce: True
runfreq: True

Running Gaussian ...

Parsing files ...
SPE file: Gau-76663_F.out
FORCE file: Gau-76663_F.out
HESS file: Gau-76663_H.out

 ExternalExternalExternalExternalExternalExternalExternalExternalExternalExternal
 Output from external command:
 "~/scripts/MiMe -H 'pbepbe def2svp' -EF 'wb97xd def2svp' -c 12 -m 48GB R /local/jobs/1158154/Gau-76663.EIn /local/jobs/1158154/Gau-76663.EOu /local/jobs/1158154/Gau-76663.EMs /local/jobs/1158154/Gau-76663.EFC /local/jobs/1158154/Gau-76663.EUF"
  
 --------------------------------------------------
 Force calculation at wb97xd def2svp
 Hessian calculation at pbepbe def2svp
 ExternalExternalExternalExternalExternalExternalExternalExternalExternalExternal

 Recovered energy= -383.370551192     dipole=     -0.283800000000     -0.833900000000      2.705100000000
 Energy=    -383.370551     NIter=   0.
 Dipole moment=      -0.283800      -0.833900       2.705100
 ***** Axes restored to original set *****
 -------------------------------------------------------------------
 Center     Atomic                   Forces (Hartrees/Bohr)
 Number     Number              X              Y              Z
 -------------------------------------------------------------------
      1        8           0.003676434    0.013212369    0.006049947
      2        6          -0.008955475   -0.018438449    0.001653560
      3        6           0.011759171   -0.000890032   -0.018057072
      4        6           0.001144555    0.010673132   -0.005915511
      5        6          -0.004589470   -0.028003616    0.011363948
      6        6          -0.002718397    0.017834644    0.004853707
      7        1          -0.002345811    0.003859231   -0.002333914
      8        1          -0.005528975    0.002888032    0.000273408
      9        1          -0.001119478   -0.001987598   -0.002003500
     10        1           0.002048990    0.000513243   -0.000687257
     11        1           0.001288287   -0.000310166   -0.000511975
     12        1           0.001410906   -0.001123478    0.001868497
     13        6           0.013928579    0.004813187   -0.006660029
     14        8          -0.005702543   -0.001106199    0.007613781
     15        1          -0.002164110    0.000138577    0.001448154
     16        1          -0.002132663   -0.002072876    0.001044254
 -------------------------------------------------------------------
 Cartesian Forces:  Max     0.028003616 RMS     0.007911080
 FormGI is forming the generalized inverse of G from B-inverse, IUseBI=4.

 GradGradGradGradGradGradGradGradGradGradGradGradGradGradGradGradGradGrad
 Berny optimization.
 Internal  Forces:  Max     0.021619400 RMS     0.006280237
 Search for a saddle point.
 Step number   4 out of a maximum of   50
 All quantities printed in internal units (Hartrees-Bohrs-Radians)
 Swapping is turned off.
 Second derivative matrix not updated -- analytic derivatives used.
 ITU=  0  0  0  0
     Eigenvalues ---   -0.10655  -0.00224  -0.00144   0.00589   0.00943
     Eigenvalues ---    0.01314   0.01909   0.02900   0.03178   0.03803
     Eigenvalues ---    0.04927   0.05304   0.06347   0.07296   0.07895
     Eigenvalues ---    0.08218   0.09304   0.09701   0.10806   0.11701
     Eigenvalues ---    0.12536   0.13733   0.15038   0.17788   0.21518
     Eigenvalues ---    0.24386   0.28297   0.31472   0.32220   0.33282
     Eigenvalues ---    0.36071   0.36193   0.36545   0.36789   0.37036
     Eigenvalues ---    0.37236   0.42170   0.45891   0.52999   0.59058
     Eigenvalues ---    0.83749   0.89901
 Eigenvectors required to have negative eigenvalues:
                          R1        D12       D4        D13       D10
   1                   -0.48724  -0.36039   0.25263  -0.24166   0.20547
                          D5        D7        R6        R3        R11
   1                    0.19811  -0.19757   0.19023   0.18597  -0.18196
 RFO step:  Lambda0=9.931483756D-04 Lambda=-9.14603105D-03.
 Linear search not attempted -- option 19 set.
 Maximum step size (   0.100) exceeded in Quadratic search.
    -- Step size scaled by   0.331
 Iteration  1 RMS(Cart)=  0.06832819 RMS(Int)=  0.00302953
 Iteration  2 RMS(Cart)=  0.00345743 RMS(Int)=  0.00010263
 Iteration  3 RMS(Cart)=  0.00001098 RMS(Int)=  0.00010224
 Iteration  4 RMS(Cart)=  0.00000000 RMS(Int)=  0.00010224
 Variable       Old X    -DE/DX   Delta X   Delta X   Delta X     New X
                                 (Linear)    (Quad)   (Total)
    R1        3.69569  -0.00535   0.00000   0.06643   0.06643   3.76212
    R2        2.35176   0.00675   0.00000   0.00410   0.00410   2.35586
    R3        2.67901  -0.01395   0.00000  -0.01967  -0.01967   2.65934
    R4        2.05932   0.00071   0.00000  -0.00069  -0.00069   2.05864
    R5        2.06004   0.00003   0.00000   0.00004   0.00004   2.06009
    R6        2.64564  -0.01603   0.00000  -0.01000  -0.01000   2.63564
    R7        2.06486  -0.00050   0.00000  -0.00099  -0.00099   2.06387
    R8        2.06279   0.00158   0.00000   0.00179   0.00179   2.06458
    R9        2.06289   0.00144   0.00000   0.00087   0.00087   2.06376
   R10        2.78343  -0.00560   0.00000   0.00149   0.00149   2.78492
   R11        2.70787  -0.02162   0.00000  -0.01569  -0.01569   2.69218
   R12        2.08928   0.00070   0.00000   0.00199   0.00199   2.09127
   R13        2.05594   0.00280   0.00000   0.00243   0.00243   2.05837
   R14        2.30195  -0.00869   0.00000  -0.00845  -0.00845   2.29350
   R15        2.10018   0.00311   0.00000   0.00514   0.00514   2.10532
    A1        2.07437  -0.02052   0.00000  -0.02065  -0.02065   2.05372
    A2        1.92959  -0.00344   0.00000  -0.00687  -0.00683   1.92277
    A3        1.68578  -0.00048   0.00000  -0.03314  -0.03310   1.65268
    A4        1.51131   0.00081   0.00000  -0.00393  -0.00387   1.50744
    A5        2.07384  -0.00100   0.00000   0.01096   0.01054   2.08438
    A6        2.06341   0.00345   0.00000   0.00583   0.00555   2.06896
    A7        2.04384  -0.00088   0.00000   0.00418   0.00376   2.04761
    A8        2.04238   0.00497   0.00000   0.01218   0.01205   2.05443
    A9        2.08066   0.00131   0.00000   0.00515   0.00502   2.08568
   A10        2.02796  -0.00220   0.00000  -0.00399  -0.00414   2.02382
   A11        2.07166  -0.00059   0.00000   0.00533   0.00533   2.07700
   A12        2.03256   0.00245   0.00000   0.01859   0.01855   2.05111
   A13        2.06955  -0.00077   0.00000  -0.01720  -0.01729   2.05226
   A14        2.13133  -0.00853   0.00000   0.00002  -0.00003   2.13130
   A15        2.09975   0.00042   0.00000  -0.00767  -0.00772   2.09202
   A16        2.05081   0.00786   0.00000   0.00674   0.00669   2.05750
   A17        2.05568  -0.00972   0.00000  -0.00280  -0.00280   2.05288
   A18        2.11969   0.00403   0.00000  -0.00037  -0.00037   2.11932
   A19        2.07631   0.00471   0.00000   0.00277   0.00276   2.07908
   A20        2.11667   0.00576   0.00000   0.02728   0.02726   2.14393
   A21        2.04677  -0.00274   0.00000  -0.02269  -0.02272   2.02405
   A22        2.11872  -0.00298   0.00000  -0.00405  -0.00407   2.11465
    D1        0.38875   0.00632   0.00000   0.06319   0.06304   0.45178
    D2        2.55588   0.00356   0.00000   0.05534   0.05541   2.61129
    D3       -1.68687   0.00277   0.00000   0.05942   0.05950  -1.62737
    D4       -0.82792   0.01157   0.00000  -0.00687  -0.00693  -0.83485
    D5        2.25736   0.00647   0.00000  -0.02616  -0.02611   2.23125
    D6        2.16701  -0.00273   0.00000  -0.07499  -0.07507   2.09194
    D7       -1.46629  -0.00068   0.00000  -0.06584  -0.06581  -1.53209
    D8        0.24268   0.00099   0.00000  -0.03384  -0.03379   0.20889
    D9        2.89257   0.00305   0.00000  -0.02469  -0.02452   2.86804
   D10       -2.41578  -0.00223   0.00000  -0.08123  -0.08137  -2.49715
   D11        0.23411  -0.00017   0.00000  -0.07207  -0.07211   0.16200
   D12       -0.73200   0.00361   0.00000   0.01822   0.01825  -0.71375
   D13        2.67945   0.00706   0.00000   0.01950   0.01953   2.69897
   D14        2.95898  -0.00347   0.00000  -0.00587  -0.00590   2.95308
   D15        0.08724  -0.00002   0.00000  -0.00459  -0.00462   0.08262
   D16        0.46911  -0.00245   0.00000  -0.10666  -0.10658   0.36253
   D17       -2.72057  -0.00147   0.00000  -0.09408  -0.09401  -2.81458
   D18        3.11962  -0.00034   0.00000  -0.09095  -0.09102   3.02860
   D19       -0.07006   0.00063   0.00000  -0.07837  -0.07845  -0.14851
   D20       -0.01762   0.00297   0.00000  -0.00606  -0.00608  -0.02370
   D21        2.86101  -0.00044   0.00000  -0.00778  -0.00781   2.85320
   D22       -3.10440   0.00814   0.00000   0.01315   0.01317  -3.09123
   D23       -0.22577   0.00474   0.00000   0.01143   0.01145  -0.21432
         Item               Value     Threshold  Converged?
 Maximum Force            0.021619     0.000450     NO 
 RMS     Force            0.006280     0.000300     NO 
 Maximum Displacement     0.270356     0.001800     NO 
 RMS     Displacement     0.068501     0.001200     NO 
 Predicted change in Energy=-2.779870D-03
 GradGradGradGradGradGradGradGradGradGradGradGradGradGradGradGradGradGrad

                          Input orientation:                          
 ---------------------------------------------------------------------
 Center     Atomic      Atomic             Coordinates (Angstroms)
 Number     Number       Type             X           Y           Z
 ---------------------------------------------------------------------
      1          8           0        1.485065    0.991846   -0.407071
      2          6           0       -0.258580    1.571382    0.359243
      3          6           0        0.588029   -1.042490    1.194399
      4          6           0       -0.966035    0.458827    0.851299
      5          6           0        1.571117   -0.177355   -0.831030
      6          6           0        1.116248   -1.293685   -0.071751
      7          1           0        1.945868   -0.366014   -1.855068
      8          1           0        1.091014   -0.298639    1.816084
      9          1           0        0.959296   -2.247595   -0.573615
     10          1           0        0.182967    2.277984    1.061030
     11          1           0       -0.496022    1.939765   -0.638927
     12          1           0       -1.229770    0.425234    1.910536
     13          6           0       -1.835500   -0.266724   -0.091803
     14          8           0       -1.699892   -0.200665   -1.296063
     15          1           0        0.070421   -1.841963    1.729698
     16          1           0       -2.615426   -0.917607    0.365639
 ---------------------------------------------------------------------
                    Distance matrix (angstroms):
                    1          2          3          4          5
     1  O    0.000000
     2  C    1.990828   0.000000
     3  C    2.740056   2.871682   0.000000
     4  C    2.806331   1.407263   2.187873   0.000000
     5  C    1.246666   2.796895   2.411905   3.110000   0.000000
     6  C    2.339256   3.206948   1.394722   2.873886   1.424641
     7  H    2.037846   3.676447   3.405965   4.060045   1.106654
     8  H    2.600585   2.727777   1.092154   2.394998   2.693032
     9  H    3.286053   4.115583   2.171633   3.614138   2.174047
    10  H    2.346260   1.089383   3.347748   2.161834   3.396402
    11  H    2.208396   1.090151   3.664710   2.152873   2.965159
    12  H    3.614233   2.159485   2.443657   1.092093   3.965383
    13  C    3.565045   2.463484   2.851250   1.473714   3.487046
    14  O    3.515159   2.820916   3.485062   2.363184   3.303983
    15  H    3.820663   3.692872   1.092528   2.671976   3.402989
    16  H    4.588804   3.427803   3.311279   2.202482   4.416689
                    6          7          8          9         10
     6  C    0.000000
     7  H    2.174641   0.000000
     8  H    2.134168   3.769969   0.000000
     9  H    1.089240   2.481087   3.086493   0.000000
    10  H    3.861480   4.313024   2.834368   4.873973   0.000000
    11  H    3.657363   3.571896   3.681876   4.433531   1.861524
    12  H    3.519651   4.989040   2.432890   4.255235   2.479953
    13  C    3.125359   4.173453   3.493643   3.459317   3.446559
    14  O    3.259491   3.692072   4.181413   3.432657   3.904452
    15  H    2.153968   4.306538   1.852275   2.501976   4.175373
    16  H    3.775995   5.103058   4.027979   3.928066   4.304228
                   11         12         13         14         15
    11  H    0.000000
    12  H    3.054824   0.000000
    13  C    2.638586   2.203423   0.000000
    14  O    2.542159   3.300764   1.213671   0.000000
    15  H    4.498077   2.619805   3.071120   3.870800   0.000000
    16  H    3.696701   2.471835   1.114086   2.028168   3.151010
                   16
    16  H    0.000000
 Stoichiometry    C6H8O2
 Framework group  C1[X(C6H8O2)]
 Deg. of freedom    42
 Full point group                 C1      NOp   1
 Largest Abelian subgroup         C1      NOp   1
 Largest concise Abelian subgroup C1      NOp   1
                         Standard orientation:                         
 ---------------------------------------------------------------------
 Center     Atomic      Atomic             Coordinates (Angstroms)
 Number     Number       Type             X           Y           Z
 ---------------------------------------------------------------------
      1          8           0        1.415687    1.129427   -0.238307
      2          6           0       -0.375215    1.477476    0.558518
[...]
                     22                     23                     24
                      A                      A                      A
 Frequencies --   1007.2322              1028.8518              1072.3197
 Red. masses --      1.3513                 1.3303                 1.5535
 Frc consts  --      0.8077                 0.8297                 1.0525
 IR Inten    --      0.0000                 0.0000                 0.0000
  Atom  AN      X      Y      Z        X      Y      Z        X      Y      Z
     1   8    -0.01  -0.02   0.00    -0.01   0.00  -0.01    -0.00   0.08   0.01
     2   6    -0.03  -0.04  -0.01    -0.02  -0.05  -0.04    -0.01   0.00  -0.00
     3   6    -0.10  -0.02   0.04     0.01   0.01  -0.02    -0.04  -0.00   0.03
     4   6    -0.04   0.03  -0.03     0.03   0.04   0.12    -0.00   0.00  -0.00
     5   6     0.01   0.03  -0.07    -0.00  -0.00   0.01     0.09   0.05  -0.08
     6   6     0.03   0.04   0.03    -0.01  -0.00   0.00    -0.03  -0.14  -0.01
     7   1     0.05   0.03  -0.06    -0.01  -0.02   0.01    -0.00   0.47  -0.16
     8   1     0.59  -0.30  -0.11    -0.13   0.07   0.00     0.02  -0.10   0.11
     9   1     0.24   0.09  -0.14    -0.07  -0.02   0.06    -0.38  -0.43   0.56
    10   1    -0.12  -0.10   0.12    -0.37  -0.12   0.28     0.08  -0.04  -0.00
    11   1     0.36  -0.08  -0.06     0.32   0.19  -0.03     0.08  -0.04  -0.02
    12   1     0.21  -0.22   0.05     0.57   0.38   0.23     0.02  -0.03   0.00
    13   6     0.05   0.03   0.00    -0.02   0.01  -0.03     0.01  -0.00   0.00
    14   8    -0.00  -0.00   0.01    -0.01  -0.03  -0.05    -0.00   0.00   0.00
    15   1     0.03   0.09   0.37     0.03  -0.05  -0.09     0.08  -0.05   0.11
    16   1     0.04   0.09   0.06     0.01  -0.13  -0.16    -0.00   0.02   0.01
                     25                     26                     27
                      A                      A                      A
 Frequencies --   1192.2385              1215.5885              1319.5398
 Red. masses --      1.4770                 1.3941                 1.2189
 Frc consts  --      1.2370                 1.2137                 1.2505
 IR Inten    --      0.0000                 0.0000                 0.0000
  Atom  AN      X      Y      Z        X      Y      Z        X      Y      Z
     1   8    -0.00  -0.01  -0.00    -0.01   0.01   0.02     0.01  -0.06  -0.05
     2   6    -0.03  -0.06   0.12     0.01   0.01  -0.03     0.01  -0.00  -0.01
     3   6    -0.01  -0.01  -0.04     0.01  -0.08  -0.10    -0.00  -0.00   0.01
     4   6     0.02   0.03  -0.13     0.01  -0.01   0.03     0.02   0.01   0.00
     5   6    -0.01   0.02   0.01    -0.01   0.00   0.00    -0.02  -0.00   0.05
     6   6    -0.00   0.03   0.03     0.02   0.11   0.07    -0.03   0.02   0.07
     7   1    -0.00  -0.05   0.01    -0.04  -0.36   0.04     0.08   0.80   0.01
     8   1     0.17  -0.06  -0.11     0.32   0.03  -0.46     0.21   0.13  -0.30
     9   1    -0.04  -0.04   0.16    -0.29  -0.12   0.56     0.10   0.08  -0.05
    10   1     0.03  -0.04   0.04    -0.00   0.02  -0.03    -0.04  -0.00   0.02
    11   1    -0.39  -0.41   0.11     0.07   0.12  -0.02    -0.04   0.03   0.00
    12   1     0.37   0.60  -0.10    -0.18  -0.12   0.00    -0.07  -0.04  -0.01
    13   6     0.00  -0.01   0.00    -0.01   0.00   0.00    -0.00   0.00   0.00
    14   8     0.01   0.01  -0.00    -0.00  -0.00   0.00    -0.00  -0.00   0.01
    15   1     0.02  -0.02  -0.04    -0.09  -0.02  -0.15    -0.05  -0.17  -0.34
    16   1     0.03   0.09   0.14    -0.02  -0.04  -0.05    -0.03  -0.05  -0.10
                     28                     29                     30
                      A                      A                      A
 Frequencies --   1332.3657              1368.2742              1384.4150
 Red. masses --      1.1708                 1.4025                 1.5927
 Frc consts  --      1.2246                 1.5471                 1.7986
 IR Inten    --      0.0000                 0.0000                 0.0000
  Atom  AN      X      Y      Z        X      Y      Z        X      Y      Z
     1   8     0.00  -0.00  -0.00    -0.00  -0.01  -0.00     0.01  -0.08  -0.05
     2   6    -0.01  -0.03   0.03     0.01   0.02  -0.04     0.00  -0.01  -0.00
     3   6     0.00  -0.00   0.01     0.00  -0.01  -0.00     0.02  -0.04  -0.11
     4   6    -0.07  -0.08   0.01     0.05   0.06   0.06     0.00   0.00   0.00
     5   6    -0.00  -0.01   0.00    -0.00  -0.00   0.01    -0.05   0.00   0.11
     6   6    -0.00   0.01   0.00     0.00   0.01  -0.00     0.04   0.10  -0.04
     7   1    -0.00   0.08  -0.01     0.01   0.05   0.01    -0.01   0.38   0.10
     8   1     0.03   0.02  -0.05    -0.01   0.01  -0.02    -0.21  -0.28   0.34
     9   1     0.00   0.01   0.00    -0.01   0.00   0.01    -0.12  -0.03   0.28
    10   1     0.10   0.31  -0.48    -0.07  -0.22   0.34    -0.03   0.03  -0.04
    11   1     0.21   0.44   0.08    -0.08  -0.22  -0.07    -0.01   0.06   0.01
    12   1     0.19   0.19   0.06    -0.15  -0.15   0.04    -0.02  -0.01  -0.00
    13   6    -0.00  -0.01  -0.01    -0.09  -0.08  -0.02     0.00   0.00  -0.00
    14   8     0.02   0.01  -0.03     0.04   0.02  -0.07    -0.00  -0.00   0.00
    15   1    -0.02  -0.02  -0.05    -0.01   0.01  -0.00     0.06   0.36   0.58
    16   1     0.15   0.22   0.50     0.15   0.25   0.77    -0.00  -0.01  -0.02
                     31                     32                     33
                      A                      A                      A
 Frequencies --   1469.5518              1560.0836              1613.6952
 Red. masses --      3.2721                 4.9961                 6.4916
 Frc consts  --      4.1634                 7.1644                 9.9597
 IR Inten    --      0.0000                 0.0000                 0.0000
  Atom  AN      X      Y      Z        X      Y      Z        X      Y      Z
     1   8    -0.02  -0.04  -0.01    -0.01  -0.01   0.02    -0.01  -0.28  -0.11
     2   6    -0.08  -0.22   0.07     0.08   0.10  -0.06     0.10   0.07  -0.05
     3   6     0.01   0.02  -0.06     0.11  -0.00  -0.28    -0.05   0.04   0.12
     4   6     0.21   0.22  -0.03    -0.09  -0.14   0.04    -0.08  -0.10   0.03
     5   6     0.02   0.14  -0.02     0.07   0.12  -0.12     0.03   0.52   0.14
     6   6    -0.06  -0.07   0.09    -0.21  -0.10   0.37     0.02  -0.10  -0.11
     7   1     0.01  -0.20  -0.01     0.05  -0.04  -0.14    -0.14  -0.50   0.14
     8   1    -0.02  -0.11   0.11    -0.17  -0.33   0.26     0.14   0.12  -0.07
     9   1     0.11   0.00  -0.10     0.30   0.20  -0.28    -0.09  -0.26   0.13
    10   1    -0.10   0.12  -0.41     0.01   0.00   0.16    -0.07   0.04   0.12
    11   1     0.10   0.50   0.20    -0.09  -0.13  -0.09    -0.13  -0.05  -0.06
    12   1    -0.34  -0.25  -0.14     0.03   0.14   0.06     0.04   0.07   0.06
    13   6    -0.07  -0.06  -0.04     0.02   0.02   0.03     0.02   0.02   0.01
    14   8     0.01   0.01   0.01    -0.00  -0.00  -0.02    -0.00  -0.00  -0.00
    15   1     0.09   0.01   0.01     0.15   0.27   0.13    -0.05  -0.18  -0.18
    16   1    -0.06  -0.08  -0.02     0.03   0.02   0.04     0.04   0.01   0.03
                     34                     35                     36
                      A                      A                      A
 Frequencies --   1816.0792              2904.9712              3040.6416
 Red. masses --     10.2205                 1.0844                 1.0882
 Frc consts  --     19.8606                 5.3917                 5.9276
 IR Inten    --      0.0000                 0.0000                 0.0000
  Atom  AN      X      Y      Z        X      Y      Z        X      Y      Z
     1   8     0.00  -0.00  -0.00    -0.00  -0.00  -0.00     0.00  -0.00  -0.00
     2   6    -0.02  -0.02   0.03     0.00  -0.00   0.00    -0.00   0.00   0.00
     3   6    -0.02   0.01   0.01     0.00  -0.00   0.00    -0.00  -0.00  -0.00
     4   6     0.03   0.01  -0.06     0.00   0.00  -0.00     0.00   0.00   0.00
     5   6     0.00  -0.00   0.01     0.00  -0.00   0.00     0.03  -0.00  -0.08
     6   6     0.01   0.00  -0.02    -0.00   0.00   0.00    -0.00   0.00   0.00
     7   1    -0.03  -0.01   0.00     0.00   0.00  -0.00    -0.35   0.09   0.93
     8   1     0.03  -0.00  -0.00    -0.00   0.00  -0.00     0.00   0.01   0.01
     9   1     0.00  -0.02   0.02    -0.00   0.00   0.00    -0.00  -0.04  -0.03
    10   1     0.00   0.05  -0.10     0.00   0.00   0.00     0.00  -0.00  -0.00
    11   1     0.06   0.06   0.05     0.00   0.01  -0.01     0.00  -0.00   0.00
    12   1    -0.14  -0.11  -0.11    -0.02  -0.00   0.03     0.00   0.00  -0.00
    13   6    -0.05   0.08   0.71    -0.06  -0.05   0.04    -0.00  -0.00  -0.00
    14   8     0.06  -0.04  -0.48    -0.00   0.00   0.00    -0.00   0.00   0.00
    15   1    -0.00  -0.01   0.00    -0.00  -0.00   0.00    -0.00  -0.00   0.00
    16   1    -0.29  -0.26  -0.15     0.70   0.55  -0.45     0.00   0.00  -0.00
                     37                     38                     39
                      A                      A                      A
 Frequencies --   3154.0188              3175.6540              3186.4220
 Red. masses --      1.0587                 1.0599                 1.0884
 Frc consts  --      6.2052                 6.2975                 6.5109
 IR Inten    --      0.0000                 0.0000                 0.0000
  Atom  AN      X      Y      Z        X      Y      Z        X      Y      Z
     1   8     0.00  -0.00  -0.00    -0.00  -0.00  -0.00    -0.00   0.00   0.00
     2   6     0.00   0.00  -0.00     0.01   0.05  -0.03    -0.01  -0.03   0.02
     3   6    -0.02  -0.01   0.06     0.00   0.00  -0.00     0.00   0.00  -0.00
     4   6     0.00  -0.00  -0.01     0.01  -0.01  -0.03     0.02  -0.00  -0.08
     5   6     0.00   0.00  -0.00     0.00   0.00   0.00    -0.00  -0.00  -0.00
     6   6     0.00   0.01  -0.00    -0.00  -0.00   0.00     0.00  -0.00  -0.00
     7   1    -0.00  -0.00   0.01     0.00  -0.00  -0.00    -0.00   0.00   0.00
     8   1    -0.25  -0.43  -0.35     0.01   0.02   0.01     0.01   0.01   0.01
     9   1    -0.01  -0.08  -0.05     0.00   0.01   0.00     0.00   0.00   0.00
    10   1    -0.01  -0.02  -0.01    -0.21  -0.46  -0.35     0.09   0.20   0.14
    11   1     0.00  -0.00   0.02     0.09  -0.11   0.64    -0.05   0.06  -0.36
    12   1    -0.01   0.00   0.06    -0.10   0.03   0.42    -0.20   0.07   0.86
    13   6    -0.00   0.00   0.00     0.00   0.00  -0.00     0.00   0.00   0.00
    14   8     0.00  -0.00  -0.00    -0.00  -0.00   0.00    -0.00   0.00   0.00
    15   1     0.42   0.56  -0.35    -0.02  -0.03   0.02    -0.02  -0.03   0.02
    16   1     0.00   0.00  -0.00    -0.00  -0.00   0.00    -0.02  -0.02   0.01
                     40                     41                     42
                      A                      A                      A
 Frequencies --   3214.5489              3261.2372              3289.0924
 Red. masses --      1.0947                 1.1162                 1.1193
 Frc consts  --      6.6646                 6.9946                 7.1342
 IR Inten    --      0.0000                 0.0000                 0.0000
  Atom  AN      X      Y      Z        X      Y      Z        X      Y      Z
     1   8    -0.00   0.00   0.00     0.00   0.00   0.00     0.00   0.00   0.00
     2   6    -0.00  -0.00   0.00    -0.00  -0.00  -0.00    -0.03  -0.04  -0.09
     3   6     0.00   0.01   0.01    -0.05  -0.08  -0.01     0.00   0.00   0.00
     4   6    -0.00   0.00   0.00     0.00   0.00  -0.00     0.00   0.00  -0.01
     5   6     0.00   0.00  -0.01     0.00  -0.00  -0.00    -0.00   0.00   0.00
     6   6    -0.01  -0.07  -0.04    -0.00  -0.01  -0.01    -0.00   0.00  -0.00
     7   1    -0.02  -0.00   0.05     0.00  -0.00  -0.00    -0.00   0.00   0.00
     8   1    -0.06  -0.10  -0.08     0.31   0.54   0.46    -0.00  -0.01  -0.01
     9   1     0.16   0.84   0.50     0.02   0.10   0.06    -0.00  -0.00  -0.00
    10   1     0.00   0.00   0.00     0.00   0.01   0.01     0.26   0.56   0.41
    11   1    -0.00   0.00  -0.00     0.00  -0.00   0.01     0.08  -0.12   0.64
    12   1     0.00  -0.00  -0.00    -0.00   0.00   0.02    -0.01   0.00   0.05
    13   6    -0.00  -0.00  -0.00     0.00  -0.00  -0.00     0.00   0.00  -0.00
    14   8    -0.00   0.00   0.00    -0.00   0.00   0.00    -0.00  -0.00   0.00
    15   1    -0.00  -0.00   0.00     0.33   0.43  -0.28    -0.00  -0.00   0.00
    16   1    -0.00  -0.00   0.00     0.00   0.00  -0.00     0.00   0.00  -0.00

 -------------------
 - Thermochemistry -
 -------------------
 Temperature   298.150 Kelvin.  Pressure   1.00000 Atm.
 Atom     1 has atomic number  8 and mass  15.99491
 Atom     2 has atomic number  6 and mass  12.00000
 Atom     3 has atomic number  6 and mass  12.00000
 Atom     4 has atomic number  6 and mass  12.00000
 Atom     5 has atomic number  6 and mass  12.00000
 Atom     6 has atomic number  6 and mass  12.00000
 Atom     7 has atomic number  1 and mass   1.00783
 Atom     8 has atomic number  1 and mass   1.00783
 Atom     9 has atomic number  1 and mass   1.00783
 Atom    10 has atomic number  1 and mass   1.00783
 Atom    11 has atomic number  1 and mass   1.00783
 Atom    12 has atomic number  1 and mass   1.00783
 Atom    13 has atomic number  6 and mass  12.00000
 Atom    14 has atomic number  8 and mass  15.99491
 Atom    15 has atomic number  1 and mass   1.00783
 Atom    16 has atomic number  1 and mass   1.00783
 Molecular mass:   112.05243 amu.
 Principal axes and moments of inertia in atomic units:
                           1         2         3
     Eigenvalues --   625.58400 980.424471092.04636
           X            0.99897  -0.01695  -0.04207
           Y            0.01633   0.99975  -0.01510
           Z            0.04232   0.01440   0.99900
 This molecule is an asymmetric top.
 Rotational symmetry number  1.
 Warning -- assumption of classical behavior for rotation
           may cause significant error
 Rotational temperatures (Kelvin)      0.13845     0.08834     0.07931
 Rotational constants (GHZ):           2.88489     1.84078     1.65262
    3 imaginary frequencies ignored.
 Zero-point vibrational energy     322442.9 (Joules/Mol)
                                   77.06571 (Kcal/Mol)
 Warning -- explicit consideration of   7 degrees of freedom as
           vibrations may cause significant error
 Vibrational temperatures:    228.75   252.17   329.57   384.54   492.94
          (Kelvin)            578.93   670.47   916.39   918.57   999.93
                             1097.10  1250.23  1288.48  1309.62  1324.83
                             1377.29  1406.80  1433.63  1449.18  1480.29
                             1542.83  1715.37  1748.96  1898.52  1916.98
                             1968.64  1991.86  2114.36  2244.61  2321.75
                             2612.93  4179.61  4374.81  4537.93  4569.06
                             4584.55  4625.02  4692.19  4732.27
 
 Zero-point correction=                           0.122812 (Hartree/Particle)
 Thermal correction to Energy=                    0.129783
 Thermal correction to Enthalpy=                  0.130727
 Thermal correction to Gibbs Free Energy=         0.091745
 Sum of electronic and zero-point Energies=           -383.251745
 Sum of electronic and thermal Energies=              -383.244774
 Sum of electronic and thermal Enthalpies=            -383.243830
 Sum of electronic and thermal Free Energies=         -383.282812
 
                     E (Thermal)             CV                S
                      KCal/Mol        Cal/Mol-Kelvin    Cal/Mol-Kelvin
 Total                   81.440             26.461             82.044
 Electronic               0.000              0.000              0.000
 Translational            0.889              2.981             40.057
 Rotational               0.889              2.981             27.995
 Vibrational             79.663             20.499             13.991
 Vibration     1          0.621              1.893              2.562
 Vibration     2          0.627              1.873              2.378
 Vibration     3          0.652              1.797              1.886
 Vibration     4          0.672              1.733              1.614
 Vibration     5          0.722              1.590              1.200
 Vibration     6          0.768              1.465              0.954
 Vibration     7          0.823              1.325              0.749
                       Q            Log10(Q)             Ln(Q)
 Total Bot       0.631035D-42        -42.199946        -97.168967
 Total V=0       0.194811D+15         14.289613         32.903050
 Vib (Bot)       0.462011D-55        -55.335348       -127.414348
 Vib (Bot)    1  0.127195D+01          0.104470          0.240552
 Vib (Bot)    2  0.114780D+01          0.059865          0.137844
 Vib (Bot)    3  0.860195D+00         -0.065403         -0.150596
 Vib (Bot)    4  0.724095D+00         -0.140205         -0.322833
 Vib (Bot)    5  0.541076D+00         -0.266742         -0.614196
 Vib (Bot)    6  0.442186D+00         -0.354395         -0.816026
 Vib (Bot)    7  0.363178D+00         -0.439880         -1.012862
 Vib (V=0)       0.142630D+02          1.154211          2.657670
 Vib (V=0)    1  0.186670D+01          0.271074          0.624170
 Vib (V=0)    2  0.175197D+01          0.243527          0.560742
 Vib (V=0)    3  0.149496D+01          0.174628          0.402096
 Vib (V=0)    4  0.137995D+01          0.139864          0.322048
 Vib (V=0)    5  0.123672D+01          0.092273          0.212466
 Vib (V=0)    6  0.116748D+01          0.067249          0.154847
 Vib (V=0)    7  0.111798D+01          0.048434          0.111523
 Electronic      0.100000D+01          0.000000          0.000000
 Translational   0.466215D+08          7.668586         17.657571
 Rotational      0.292965D+06          5.466816         12.587809
 ***** Axes restored to original set *****
 -------------------------------------------------------------------
 Center     Atomic                   Forces (Hartrees/Bohr)
 Number     Number              X              Y              Z
 -------------------------------------------------------------------
      1        8           0.001199949   -0.002442347   -0.001321004
      2        6          -0.003111065   -0.000585753    0.001677688
      3        6           0.003190952   -0.001775212    0.000273162
      4        6           0.000682207    0.005088178   -0.001872384
      5        6           0.001611135    0.003132433    0.000166679
      6        6          -0.001972176   -0.000860733    0.001733636
      7        1          -0.000079353   -0.000298418   -0.000094616
      8        1          -0.000796781    0.000783195   -0.000374606
      9        1          -0.000482867   -0.000155919    0.000401123
     10        1           0.000256415   -0.000030789   -0.000107483
     11        1          -0.000165693    0.000501770    0.000162790
     12        1           0.000772288   -0.002175212    0.000238840
     13        6           0.001230865   -0.003026126   -0.000047375
     14        8          -0.000965582    0.000815256   -0.000325894
     15        1          -0.000133783    0.000207386    0.000100861
     16        1          -0.001236508    0.000822292   -0.000611420
 -------------------------------------------------------------------
 Cartesian Forces:  Max     0.005088178 RMS     0.001500244


 Money is a good servant but a bad master.
                        -- French Proverb
 Error termination request processed by link 9999.
 Error termination via Lnk1e in /apps/gaussian/g16/C.01/g16/l9999.exe at Thu Jan 18 13:16:24 2024.
 Job cpu time:       0 days 15 hours 46 minutes 27.7 seconds.
 Elapsed time:       0 days  2 hours 15 minutes 36.4 seconds.
 File lengths (MBytes):  RWF=      6 Int=      0 D2E=      0 Chk=      1 Scr=      1
