Unloading slurm/anatra/current
  ERROR: No such file or directory on
    '/cm/local/modulefiles/slurm/anatra/current'
environment: line 0: unalias: gv: not found
environment: line 0: unalias: sl: not found
 Entering Gaussian System, Link 0=g16
 Initial command:
 /apps/gaussian/g16/C.01/g16/l1.exe "/local/jobs/1158155/Gau-1798106.inp" -scrdir="/local/jobs/1158155/"
 Entering Link 1 = /apps/gaussian/g16/C.01/g16/l1.exe PID=   1798109.
  
 Copyright (c) 1988-2019, Gaussian, Inc.  All Rights Reserved.
  
 This is part of the Gaussian(R) 16 program.  It is based on
 the Gaussian(R) 09 system (copyright 2009, Gaussian, Inc.),
 the Gaussian(R) 03 system (copyright 2003, Gaussian, Inc.),
 the Gaussian(R) 98 system (copyright 1998, Gaussian, Inc.),
 the Gaussian(R) 94 system (copyright 1995, Gaussian, Inc.),
 the Gaussian 92(TM) system (copyright 1992, Gaussian, Inc.),
 the Gaussian 90(TM) system (copyright 1990, Gaussian, Inc.),
 the Gaussian 88(TM) system (copyright 1988, Gaussian, Inc.),
 the Gaussian 86(TM) system (copyright 1986, Carnegie Mellon
 University), and the Gaussian 82(TM) system (copyright 1983,
 Carnegie Mellon University). Gaussian is a federally registered
 trademark of Gaussian, Inc.
  
 This software contains proprietary and confidential information,
 including trade secrets, belonging to Gaussian, Inc.
  
 This software is provided under written license and may be
 used, copied, transmitted, or stored only in accord with that
 written license.
  
 The following legend is applicable only to US Government
 contracts under FAR:
  
                    RESTRICTED RIGHTS LEGEND
  
 Use, reproduction and disclosure by the US Government is
 subject to restrictions as set forth in subparagraphs (a)
 and (c) of the Commercial Computer Software - Restricted
 Rights clause in FAR 52.227-19.
  
 Gaussian, Inc.
 340 Quinnipiac St., Bldg. 40, Wallingford CT 06492
  
  
 ---------------------------------------------------------------
 Warning -- This program may not be used in any manner that
 competes with the business of Gaussian, Inc. or will provide
 assistance to any competitor of Gaussian, Inc.  The licensee
 of this program is prohibited from giving any competitor of
 Gaussian, Inc. access to this program.  By using this program,
 the user acknowledges that Gaussian, Inc. is engaged in the
 business of creating and licensing software in the field of
 computational chemistry and represents and warrants to the
 licensee that it is not a competitor of Gaussian, Inc. and that
 it will not use this program in any manner prohibited above.
 ---------------------------------------------------------------
  

 Cite this work as:
 Gaussian 16, Revision C.01,
 M. J. Frisch, G. W. Trucks, H. B. Schlegel, G. E. Scuseria, 
 M. A. Robb, J. R. Cheeseman, G. Scalmani, V. Barone, 
 G. A. Petersson, H. Nakatsuji, X. Li, M. Caricato, A. V. Marenich, 
 J. Bloino, B. G. Janesko, R. Gomperts, B. Mennucci, H. P. Hratchian, 
 J. V. Ortiz, A. F. Izmaylov, J. L. Sonnenberg, D. Williams-Young, 
 F. Ding, F. Lipparini, F. Egidi, J. Goings, B. Peng, A. Petrone, 
 T. Henderson, D. Ranasinghe, V. G. Zakrzewski, J. Gao, N. Rega, 
 G. Zheng, W. Liang, M. Hada, M. Ehara, K. Toyota, R. Fukuda, 
 J. Hasegawa, M. Ishida, T. Nakajima, Y. Honda, O. Kitao, H. Nakai, 
 T. Vreven, K. Throssell, J. A. Montgomery, Jr., J. E. Peralta, 
 F. Ogliaro, M. J. Bearpark, J. J. Heyd, E. N. Brothers, K. N. Kudin, 
 V. N. Staroverov, T. A. Keith, R. Kobayashi, J. Normand, 
 K. Raghavachari, A. P. Rendell, J. C. Burant, S. S. Iyengar, 
 J. Tomasi, M. Cossi, J. M. Millam, M. Klene, C. Adamo, R. Cammi, 
 J. W. Ochterski, R. L. Martin, K. Morokuma, O. Farkas, 
 J. B. Foresman, and D. J. Fox, Gaussian, Inc., Wallingford CT, 2019.
 
 ******************************************
 Gaussian 16:  ES64L-G16RevC.01  3-Jul-2019
                18-Jan-2024 
 ******************************************
 %nprocshared=12
 Will use up to   12 processors via shared memory.
 %mem=48GB
 ----------------------------------------------------------------------
 # external="~/scripts/MiMe -H 'pbepbe def2svp' -EF 'wb97xd def2svp' -c
  12 -m 48GB" opt=(calcall,ts,noeigen,maxcycles=50,maxstep=10,nomicro)
 ----------------------------------------------------------------------
 1/5=1,6=50,8=10,10=4,11=1,18=20,26=1,38=1/1,3;
 2/9=110,12=2,17=6,18=5,40=1/2;
 3/11=9,25=1,30=1,41=9900000,43=2,71=2,140=1/1;
 4/20=17,22=2,24=3,113=1,114=1/2;
 6/7=2,8=2,9=2,10=2,18=1/1;
 7/25=1,44=-1/16;
 1/5=1,6=50,8=10,10=4,11=1,18=20,26=1/3(3);
 2/9=110/2;
 7/8=1,9=1,25=1,44=-1/16;
 99//99;
 2/9=110/2;
 3/11=9,25=1,30=1,41=9900000,43=2,71=2,140=1/1;
 4/16=2,20=17,22=2,24=3,113=1,114=1/2;
 7/25=1,44=-1/16;
 1/5=1,6=50,8=10,10=4,11=1,18=20,26=1/3(-4);
 2/9=110/2;
 6/7=2,8=2,9=2,10=2,18=1/1;
 7/8=1,9=1,25=1,44=-1/16;
 99//99;
 -----
 *****
 -----
 Symbolic Z-matrix:
 Charge =  0 Multiplicity = 1
 C                    -1.7636    0.7699    0.2683 
 C                    -0.1675   -0.738     1.1357 
 C                     0.7533    2.4397    0.2956 
 C                     1.1138   -0.1249    1.2214 
 C                    -1.0805    1.2934   -0.9068 
 C                     0.0402    2.0307   -0.887 
 H                     1.791     2.7443    0.2033 
 H                     0.2454    2.5838    1.2414 
 H                     0.5118    2.2904   -1.8343 
 H                    -1.4816    0.9954   -1.8757 
 H                    -1.6872    1.3437    1.1913 
 H                    -0.8179   -0.9253    1.9752 
 H                     1.5485    0.3896    2.0581 
 O                     1.1261   -1.5056   -0.5878 
 C                    -0.0814   -1.6867    0.0162 
 C                     1.8935   -0.602     0.0816 
 O                    -0.9323   -2.5015   -0.2865 
 O                     3.0294   -0.2639   -0.1903 
 C                    -3.0576    0.0356    0.0627 
 H                    -3.2259   -0.6598    0.891 
 H                    -3.8936    0.741     0.0377 
 H                    -3.0574   -0.5413   -0.8673 
 
 Add virtual bond connecting atoms C2         and C1         Dist= 4.46D+00.

 GradGradGradGradGradGradGradGradGradGradGradGradGradGradGradGradGradGrad
 Berny optimization.
 Initialization pass.
                           ----------------------------
                           !    Initial Parameters    !
                           ! (Angstroms and Degrees)  !
 --------------------------                            --------------------------
 ! Name  Definition              Value          Derivative Info.                !
 --------------------------------------------------------------------------------
 ! R1    R(1,2)                  2.3609         calculate D2E/DX2 analytically  !
 ! R2    R(1,5)                  1.4565         calculate D2E/DX2 analytically  !
 ! R3    R(1,11)                 1.0895         calculate D2E/DX2 analytically  !
 ! R4    R(1,19)                 1.502          calculate D2E/DX2 analytically  !
 ! R5    R(2,4)                  1.423          calculate D2E/DX2 analytically  !
 ! R6    R(2,12)                 1.0784         calculate D2E/DX2 analytically  !
 ! R7    R(2,15)                 1.4699         calculate D2E/DX2 analytically  !
 ! R8    R(3,6)                  1.4403         calculate D2E/DX2 analytically  !
 ! R9    R(3,7)                  1.0854         calculate D2E/DX2 analytically  !
 ! R10   R(3,8)                  1.0832         calculate D2E/DX2 analytically  !
 ! R11   R(4,13)                 1.0741         calculate D2E/DX2 analytically  !
 ! R12   R(4,16)                 1.4611         calculate D2E/DX2 analytically  !
 ! R13   R(5,6)                  1.3416         calculate D2E/DX2 analytically  !
 ! R14   R(5,10)                 1.0902         calculate D2E/DX2 analytically  !
 ! R15   R(6,9)                  1.0896         calculate D2E/DX2 analytically  !
 ! R16   R(14,15)                1.3622         calculate D2E/DX2 analytically  !
 ! R17   R(14,16)                1.3614         calculate D2E/DX2 analytically  !
 ! R18   R(15,17)                1.2164         calculate D2E/DX2 analytically  !
 ! R19   R(16,18)                1.2159         calculate D2E/DX2 analytically  !
 ! R20   R(19,20)                1.0945         calculate D2E/DX2 analytically  !
 ! R21   R(19,21)                1.0941         calculate D2E/DX2 analytically  !
 ! R22   R(19,22)                1.0944         calculate D2E/DX2 analytically  !
 ! A1    A(2,1,5)              102.0583         calculate D2E/DX2 analytically  !
 ! A2    A(2,1,11)              88.7231         calculate D2E/DX2 analytically  !
 ! A3    A(2,1,19)             108.6926         calculate D2E/DX2 analytically  !
 ! A4    A(5,1,11)             117.4711         calculate D2E/DX2 analytically  !
 ! A5    A(5,1,19)             117.9905         calculate D2E/DX2 analytically  !
 ! A6    A(11,1,19)            115.713          calculate D2E/DX2 analytically  !
 ! A7    A(1,2,4)              110.8352         calculate D2E/DX2 analytically  !
 ! A8    A(1,2,12)              89.3813         calculate D2E/DX2 analytically  !
 ! A9    A(1,2,15)              99.9044         calculate D2E/DX2 analytically  !
 ! A10   A(4,2,12)             124.8216         calculate D2E/DX2 analytically  !
 ! A11   A(4,2,15)             105.7353         calculate D2E/DX2 analytically  !
 ! A12   A(12,2,15)            121.0729         calculate D2E/DX2 analytically  !
 ! A13   A(6,3,7)              118.8962         calculate D2E/DX2 analytically  !
 ! A14   A(6,3,8)              121.5058         calculate D2E/DX2 analytically  !
 ! A15   A(7,3,8)              119.026          calculate D2E/DX2 analytically  !
 ! A16   A(2,4,13)             128.1473         calculate D2E/DX2 analytically  !
 ! A17   A(2,4,16)             107.0278         calculate D2E/DX2 analytically  !
 ! A18   A(13,4,16)            123.2384         calculate D2E/DX2 analytically  !
 ! A19   A(1,5,6)              125.2655         calculate D2E/DX2 analytically  !
 ! A20   A(1,5,10)             116.5022         calculate D2E/DX2 analytically  !
 ! A21   A(6,5,10)             118.0784         calculate D2E/DX2 analytically  !
 ! A22   A(3,6,5)              125.5749         calculate D2E/DX2 analytically  !
 ! A23   A(3,6,9)              115.5874         calculate D2E/DX2 analytically  !
 ! A24   A(5,6,9)              118.6657         calculate D2E/DX2 analytically  !
 ! A25   A(15,14,16)           111.7078         calculate D2E/DX2 analytically  !
 ! A26   A(2,15,14)            107.6862         calculate D2E/DX2 analytically  !
 ! A27   A(2,15,17)            125.5125         calculate D2E/DX2 analytically  !
 ! A28   A(14,15,17)           126.7837         calculate D2E/DX2 analytically  !
 ! A29   A(4,16,14)            107.4277         calculate D2E/DX2 analytically  !
 ! A30   A(4,16,18)            125.6035         calculate D2E/DX2 analytically  !
 ! A31   A(14,16,18)           126.9537         calculate D2E/DX2 analytically  !
 ! A32   A(1,19,20)            109.8463         calculate D2E/DX2 analytically  !
 ! A33   A(1,19,21)            110.256          calculate D2E/DX2 analytically  !
 ! A34   A(1,19,22)            111.9551         calculate D2E/DX2 analytically  !
 ! A35   A(20,19,21)           108.0242         calculate D2E/DX2 analytically  !
 ! A36   A(20,19,22)           107.9507         calculate D2E/DX2 analytically  !
 ! A37   A(21,19,22)           108.6978         calculate D2E/DX2 analytically  !
 ! D1    D(5,1,2,4)             48.732          calculate D2E/DX2 analytically  !
 ! D2    D(5,1,2,12)           176.0978         calculate D2E/DX2 analytically  !
 ! D3    D(5,1,2,15)           -62.4302         calculate D2E/DX2 analytically  !
 ! D4    D(11,1,2,4)           -69.1119         calculate D2E/DX2 analytically  !
 ! D5    D(11,1,2,12)           58.2539         calculate D2E/DX2 analytically  !
 ! D6    D(11,1,2,15)          179.7259         calculate D2E/DX2 analytically  !
 ! D7    D(19,1,2,4)           174.1062         calculate D2E/DX2 analytically  !
 ! D8    D(19,1,2,12)          -58.528          calculate D2E/DX2 analytically  !
 ! D9    D(19,1,2,15)           62.944          calculate D2E/DX2 analytically  !
 ! D10   D(2,1,5,6)            -64.8161         calculate D2E/DX2 analytically  !
 ! D11   D(2,1,5,10)           110.5683         calculate D2E/DX2 analytically  !
 ! D12   D(11,1,5,6)            30.082          calculate D2E/DX2 analytically  !
 ! D13   D(11,1,5,10)         -154.5336         calculate D2E/DX2 analytically  !
 ! D14   D(19,1,5,6)           176.1929         calculate D2E/DX2 analytically  !
 ! D15   D(19,1,5,10)           -8.4227         calculate D2E/DX2 analytically  !
 ! D16   D(2,1,19,20)           39.3806         calculate D2E/DX2 analytically  !
 ! D17   D(2,1,19,21)          158.3171         calculate D2E/DX2 analytically  !
 ! D18   D(2,1,19,22)          -80.5386         calculate D2E/DX2 analytically  !
 ! D19   D(5,1,19,20)          154.8215         calculate D2E/DX2 analytically  !
 ! D20   D(5,1,19,21)          -86.242          calculate D2E/DX2 analytically  !
 ! D21   D(5,1,19,22)           34.9023         calculate D2E/DX2 analytically  !
 ! D22   D(11,1,19,20)         -58.4829         calculate D2E/DX2 analytically  !
 ! D23   D(11,1,19,21)          60.4536         calculate D2E/DX2 analytically  !
 ! D24   D(11,1,19,22)        -178.4022         calculate D2E/DX2 analytically  !
 ! D25   D(1,2,4,13)            92.6643         calculate D2E/DX2 analytically  !
 ! D26   D(1,2,4,16)          -101.5268         calculate D2E/DX2 analytically  !
 ! D27   D(12,2,4,13)          -11.8511         calculate D2E/DX2 analytically  !
 ! D28   D(12,2,4,16)          153.9578         calculate D2E/DX2 analytically  !
 ! D29   D(15,2,4,13)         -159.9723         calculate D2E/DX2 analytically  !
 ! D30   D(15,2,4,16)            5.8366         calculate D2E/DX2 analytically  !
 ! D31   D(1,2,15,14)          108.5901         calculate D2E/DX2 analytically  !
 ! D32   D(1,2,15,17)          -72.8508         calculate D2E/DX2 analytically  !
 ! D33   D(4,2,15,14)           -6.5173         calculate D2E/DX2 analytically  !
 ! D34   D(4,2,15,17)          172.0418         calculate D2E/DX2 analytically  !
 ! D35   D(12,2,15,14)        -156.1071         calculate D2E/DX2 analytically  !
 ! D36   D(12,2,15,17)          22.452          calculate D2E/DX2 analytically  !
 ! D37   D(7,3,6,5)            160.3092         calculate D2E/DX2 analytically  !
 ! D38   D(7,3,6,9)            -14.8361         calculate D2E/DX2 analytically  !
 ! D39   D(8,3,6,5)            -28.4499         calculate D2E/DX2 analytically  !
 ! D40   D(8,3,6,9)            156.4048         calculate D2E/DX2 analytically  !
 ! D41   D(2,4,16,14)           -3.2395         calculate D2E/DX2 analytically  !
 ! D42   D(2,4,16,18)          178.0984         calculate D2E/DX2 analytically  !
 ! D43   D(13,4,16,14)         163.4334         calculate D2E/DX2 analytically  !
 ! D44   D(13,4,16,18)         -15.2287         calculate D2E/DX2 analytically  !
 ! D45   D(1,5,6,3)             -0.5253         calculate D2E/DX2 analytically  !
 ! D46   D(1,5,6,9)            174.4842         calculate D2E/DX2 analytically  !
 ! D47   D(10,5,6,3)          -175.8436         calculate D2E/DX2 analytically  !
 ! D48   D(10,5,6,9)            -0.8341         calculate D2E/DX2 analytically  !
 ! D49   D(16,14,15,2)           4.7089         calculate D2E/DX2 analytically  !
 ! D50   D(16,14,15,17)       -173.8266         calculate D2E/DX2 analytically  !
 ! D51   D(15,14,16,4)          -0.9927         calculate D2E/DX2 analytically  !
 ! D52   D(15,14,16,18)        177.646          calculate D2E/DX2 analytically  !
 --------------------------------------------------------------------------------
 Trust Radius=1.00D-01 FncErr=1.00D-07 GrdErr=1.00D-07 EigMax=2.50D+02 EigMin=1.00D-04
 Number of steps in this run=     50 maximum allowed number of steps=    132.
 Search for a saddle point of order  1.
 GradGradGradGradGradGradGradGradGradGradGradGradGradGradGradGradGradGrad

                          Input orientation:                          
 ---------------------------------------------------------------------
 Center     Atomic      Atomic             Coordinates (Angstroms)
 Number     Number       Type             X           Y           Z
 ---------------------------------------------------------------------
      1          6           0       -1.763600    0.769900    0.268300
      2          6           0       -0.167500   -0.738000    1.135700
      3          6           0        0.753300    2.439700    0.295600
      4          6           0        1.113800   -0.124900    1.221400
      5          6           0       -1.080500    1.293400   -0.906800
      6          6           0        0.040200    2.030700   -0.887000
      7          1           0        1.791000    2.744300    0.203300
      8          1           0        0.245400    2.583800    1.241400
      9          1           0        0.511800    2.290400   -1.834300
     10          1           0       -1.481600    0.995400   -1.875700
     11          1           0       -1.687200    1.343700    1.191300
     12          1           0       -0.817900   -0.925300    1.975200
     13          1           0        1.548500    0.389600    2.058100
     14          8           0        1.126100   -1.505600   -0.587800
     15          6           0       -0.081400   -1.686700    0.016200
     16          6           0        1.893500   -0.602000    0.081600
     17          8           0       -0.932300   -2.501500   -0.286500
     18          8           0        3.029400   -0.263900   -0.190300
     19          6           0       -3.057600    0.035600    0.062700
     20          1           0       -3.225900   -0.659800    0.891000
     21          1           0       -3.893600    0.741000    0.037700
     22          1           0       -3.057400   -0.541300   -0.867300
 ---------------------------------------------------------------------
                    Distance matrix (angstroms):
                    1          2          3          4          5
     1  C    0.000000
     2  C    2.360864   0.000000
     3  C    3.020557   3.413417   0.000000
     4  C    3.160458   1.423013   2.750316   0.000000
     5  C    1.456550   3.021914   2.474387   3.369831   0.000000
     6  C    2.485564   3.435135   1.440255   3.200715   1.341630
     7  H    4.066652   4.102622   1.085413   3.118884   3.403373
     8  H    2.876324   3.349032   1.083174   2.844569   2.835120
     9  H    3.451129   4.295760   2.148741   3.941241   2.095157
    10  H    2.174192   3.714844   3.434432   4.193233   1.090162
    11  H    1.089501   2.577994   2.821265   3.162798   2.184637
    12  H    2.584871   1.078361   4.075899   2.222683   3.646575
    13  H    3.783916   2.250991   2.818095   1.074123   4.064373
    14  O    3.776397   2.287589   4.060144   2.275893   3.578442
    15  C    2.988015   1.469941   4.219238   2.306562   3.275840
    16  C    3.910415   2.318910   3.255425   1.461061   3.662534
    17  O    3.420661   2.391130   5.253146   3.479729   3.848117
    18  O    4.924622   3.493310   3.567378   2.383640   4.453070
    19  C    1.501967   3.178437   4.511862   4.332312   2.535925
    20  H    2.137784   3.069170   5.078921   4.385006   3.413183
    21  H    2.142641   4.156545   4.954369   5.217757   3.018403
    22  H    2.163967   3.521679   4.975955   4.683478   2.697372
                    6          7          8          9         10
     6  C    0.000000
     7  H    2.182494   0.000000
     8  H    2.208645   1.868767   0.000000
     9  H    1.089600   2.448304   3.101126   0.000000
    10  H    2.089318   4.253328   3.901520   2.377474   0.000000
    11  H    2.788406   3.877589   2.296802   3.858251   3.093553
    12  H    4.203149   4.838590   3.739365   5.159566   4.354195
    13  H    3.693480   3.007275   2.679474   4.454050   5.002328
    14  O    3.711350   4.373738   4.565610   4.042368   3.835855
    15  C    3.827482   4.814006   4.454782   4.426461   3.568404
    16  C    3.362145   3.350081   3.769707   3.734400   4.215923
    17  O    4.674098   5.930825   5.438909   5.238646   3.880154
    18  O    3.832218   3.276862   4.231999   3.945313   4.977502
    19  C    3.805091   5.555695   4.335028   4.628536   2.676264
    20  H    4.589933   6.101648   4.763785   5.486469   3.665638
    21  H    4.241837   6.029537   4.687870   5.031160   3.089266
    22  H    4.026251   5.953850   5.012121   4.657553   2.421046
                   11         12         13         14         15
    11  H    0.000000
    12  H    2.553144   0.000000
    13  H    3.483016   2.708447   0.000000
    14  O    4.381594   3.268769   3.281919   0.000000
    15  C    3.625297   2.227071   3.337207   1.362230   0.000000
    16  C    4.223576   3.322941   2.238046   1.361430   2.254125
    17  O    4.187998   2.759127   4.473251   2.306428   1.216370
    18  O    5.171026   4.464141   2.770457   2.307028   3.426963
    19  C    2.205189   3.097941   5.032206   4.505751   3.438931
    20  H    2.543971   2.654137   5.025759   4.673557   3.421649
    21  H    2.561687   3.998799   5.815664   5.534966   4.519630
    22  H    3.109422   3.639041   5.535238   4.302286   3.308941
                   16         17         18         19         20
    16  C    0.000000
    17  O    3.424725   0.000000
    18  O    1.215940   4.550953   0.000000
    19  C    4.992022   3.328020   6.099613   0.000000
    20  H    5.183312   3.168433   6.360403   1.094526   0.000000
    21  H    5.941052   4.403204   6.999267   1.094125   1.770928
    22  H    5.041379   2.948858   6.130613   1.094401   1.770326
                   21         22
    21  H    0.000000
    22  H    1.778356   0.000000
 Stoichiometry    C9H10O3
 Framework group  C1[X(C9H10O3)]
 Deg. of freedom    60
 Full point group                 C1      NOp   1
 Largest Abelian subgroup         C1      NOp   1
 Largest concise Abelian subgroup C1      NOp   1
                         Standard orientation:                         
 ---------------------------------------------------------------------
 Center     Atomic      Atomic             Coordinates (Angstroms)
 Number     Number       Type             X           Y           Z
 ---------------------------------------------------------------------
      1          6           0       -1.863769    0.578273    0.323083
      2          6           0       -0.066985   -0.753794    1.078623
      3          6           0        0.423099    2.550827    0.378113
      4          6           0        1.129016    0.012251    1.166500
      5          6           0       -1.285318    1.238571   -0.839216
      6          6           0       -0.266047    2.110378   -0.807390
      7          1           0        1.411272    2.988616    0.278232
      8          1           0       -0.071980    2.584946    1.340920
      9          1           0        0.142248    2.471813   -1.750729
     10          1           0       -1.672979    0.937702   -1.812689
     11          1           0       -1.834058    1.113353    1.271671
     12          1           0       -0.664732   -1.061144    1.921889
     13          1           0        1.519059    0.538074    2.018039
     14          8           0        1.263650   -1.269638   -0.709219
     15          6           0        0.106016   -1.630526   -0.088483
     16          6           0        1.930002   -0.308253   -0.012652
     17          8           0       -0.643948   -2.531663   -0.412618
     18          8           0        3.006277    0.183584   -0.292361
     19          6           0       -3.060518   -0.303866    0.109713
     20          1           0       -3.116646   -1.052952    0.905771
     21          1           0       -3.978906    0.290144    0.138447
     22          1           0       -3.014076   -0.831971   -0.847712
 ---------------------------------------------------------------------
 Rotational constants (GHZ):           1.1711735           0.9350118           0.6241298
 Standard basis: STO-3G (5D, 7F)
 There are    70 symmetry adapted cartesian basis functions of A   symmetry.
 There are    70 symmetry adapted basis functions of A   symmetry.
    70 basis functions,   210 primitive gaussians,    70 cartesian basis functions
    44 alpha electrons       44 beta electrons
       nuclear repulsion energy       695.2888441617 Hartrees.
 NAtoms=   22 NActive=   22 NUniq=   22 SFac= 1.00D+00 NAtFMM=   60 NAOKFM=F Big=F
 Integral buffers will be    131072 words long.
 Raffenetti 1 integral format.
 Two-electron integral symmetry is turned on.
 External calculation of energy, first and second derivatives.
 Running external command "~/scripts/MiMe -H 'pbepbe def2svp' -EF 'wb97xd def2svp' -c 12 -m 48GB R"
         input file       "/local/jobs/1158155/Gau-1798109.EIn"
         output file      "/local/jobs/1158155/Gau-1798109.EOu"
         message file     "/local/jobs/1158155/Gau-1798109.EMs"
         fchk file        "/local/jobs/1158155/Gau-1798109.EFC"
         mat. el file     "/local/jobs/1158155/Gau-1798109.EUF"
 Read checkpoint file Gau-1798109_H.chk type G16
 Write formatted file Gau-1798109_H.fchk

deriv: 2

spelevel: wb97xd def2svp
gradlevel: wb97xd def2svp
hesslevel: pbepbe def2svp

runspe: False
runforce: True
runfreq: True

Running Gaussian ...

Parsing files ...
SPE file: Gau-1798109_F.out
FORCE file: Gau-1798109_F.out
HESS file: Gau-1798109_H.out

 ExternalExternalExternalExternalExternalExternalExternalExternalExternalExternal
 Output from external command:
 "~/scripts/MiMe -H 'pbepbe def2svp' -EF 'wb97xd def2svp' -c 12 -m 48GB R /local/jobs/1158155/Gau-1798109.EIn /local/jobs/1158155/Gau-1798109.EOu /local/jobs/1158155/Gau-1798109.EMs /local/jobs/1158155/Gau-1798109.EFC /local/jobs/1158155/Gau-1798109.EUF"
  
 --------------------------------------------------
 Force calculation at wb97xd def2svp
 Hessian calculation at pbepbe def2svp
 ExternalExternalExternalExternalExternalExternalExternalExternalExternalExternal

 Recovered energy= -573.941726387     dipole=     -3.222100000000      3.139800000000      2.688900000000
 Energy=    -573.941726     NIter=   0.
 Dipole moment=      -3.222100       3.139800       2.688900
 ***** Axes restored to original set *****
 -------------------------------------------------------------------
 Center     Atomic                   Forces (Hartrees/Bohr)
 Number     Number              X              Y              Z
 -------------------------------------------------------------------
      1        6           0.012273947    0.025258595   -0.059938500
      2        6           0.052378418    0.028526631    0.009739413
      3        6          -0.026814780   -0.025624729   -0.049211987
      4        6          -0.057689340   -0.015490685   -0.002001586
      5        6          -0.079741623   -0.048744934    0.048668419
      6        6           0.082553465    0.052195939    0.048884367
      7        1           0.002325957    0.007386340    0.000027821
      8        1          -0.000612829   -0.005516827    0.006994137
      9        1           0.004874828   -0.005375675   -0.003303508
     10        1          -0.000122781   -0.005027901   -0.002029151
     11        1           0.007925370   -0.004009035    0.005647462
     12        1          -0.008986867    0.001338317    0.003109308
     13        1           0.004392131    0.005755217    0.006211963
     14        8           0.004451073   -0.014813358   -0.029321671
     15        6          -0.041183683   -0.018769492    0.006150786
     16        6           0.038119703    0.030265849    0.012923938
     17        8           0.037581314    0.021740138   -0.003330862
     18        8          -0.034972153   -0.023044354   -0.006259621
     19        6           0.010235194   -0.005241796    0.006779912
     20        1          -0.003633732   -0.003166072    0.001769250
     21        1          -0.003990841    0.003748943    0.000598038
     22        1           0.000637229   -0.001391111   -0.002107930
 -------------------------------------------------------------------
 Cartesian Forces:  Max     0.082553465 RMS     0.027140098
 FormGI is forming the generalized inverse of G from B-inverse, IUseBI=4.

 GradGradGradGradGradGradGradGradGradGradGradGradGradGradGradGradGradGrad
 Berny optimization.
 Internal  Forces:  Max     0.064786580 RMS     0.013715773
 Search for a saddle point.
 Step number   1 out of a maximum of   50
 All quantities printed in internal units (Hartrees-Bohrs-Radians)
 Swapping is turned off.
 Second derivative matrix not updated -- analytic derivatives used.
 ITU=  0
     Eigenvalues ---   -0.08431  -0.01910  -0.00698  -0.00336   0.00176
     Eigenvalues ---    0.00263   0.00706   0.01139   0.01274   0.01500
     Eigenvalues ---    0.01632   0.01781   0.02075   0.02207   0.02620
     Eigenvalues ---    0.03142   0.03591   0.03681   0.04097   0.04203
     Eigenvalues ---    0.04473   0.04640   0.05116   0.05939   0.07842
     Eigenvalues ---    0.08963   0.09408   0.10107   0.10725   0.11378
     Eigenvalues ---    0.11974   0.12745   0.13899   0.14485   0.15499
     Eigenvalues ---    0.16616   0.19500   0.21919   0.23811   0.26487
     Eigenvalues ---    0.29082   0.30858   0.31862   0.34190   0.35322
     Eigenvalues ---    0.35566   0.35747   0.36494   0.36522   0.36581
     Eigenvalues ---    0.36714   0.37399   0.38128   0.38532   0.39421
     Eigenvalues ---    0.40574   0.40883   0.65781   0.82938   0.83285
 Eigenvectors required to have negative eigenvalues:
                          R1        D10       D39       A3        D11
   1                    0.36053  -0.33090   0.27844  -0.26151  -0.24289
                          A7        D47       A1        D32       D31
   1                    0.22438  -0.20482   0.20243   0.20063   0.19950
 RFO step:  Lambda0=1.053198563D-03 Lambda=-5.89969561D-02.
 Linear search not attempted -- option 19 set.
 Maximum step size (   0.100) exceeded in Quadratic search.
    -- Step size scaled by   0.180
 Iteration  1 RMS(Cart)=  0.03960555 RMS(Int)=  0.00041298
 Iteration  2 RMS(Cart)=  0.00054857 RMS(Int)=  0.00006924
 Iteration  3 RMS(Cart)=  0.00000013 RMS(Int)=  0.00006924
 Variable       Old X    -DE/DX   Delta X   Delta X   Delta X     New X
                                 (Linear)    (Quad)   (Total)
    R1        4.46139  -0.01492   0.00000   0.05787   0.05787   4.51925
    R2        2.75248  -0.05964   0.00000  -0.03504  -0.03504   2.71744
    R3        2.05886   0.00323   0.00000   0.00165   0.00165   2.06051
    R4        2.83831  -0.00080   0.00000  -0.00174  -0.00174   2.83656
    R5        2.68910  -0.04141   0.00000  -0.02393  -0.02388   2.66523
    R6        2.03781   0.00761   0.00000   0.00292   0.00292   2.04073
    R7        2.77779   0.01161   0.00000   0.00376   0.00381   2.78159
    R8        2.72169  -0.05381   0.00000  -0.03019  -0.03019   2.69149
    R9        2.05113   0.00429   0.00000   0.00193   0.00193   2.05306
   R10        2.04690   0.00566   0.00000   0.00252   0.00252   2.04942
   R11        2.02980   0.00937   0.00000   0.00367   0.00367   2.03347
   R12        2.76101   0.01274   0.00000   0.00844   0.00842   2.76943
   R13        2.53531   0.06479   0.00000   0.02336   0.02336   2.55867
   R14        2.06011   0.00322   0.00000   0.00149   0.00149   2.06160
   R15        2.05905   0.00370   0.00000   0.00149   0.00149   2.06053
   R16        2.57424   0.00137   0.00000   0.00570   0.00567   2.57991
   R17        2.57273   0.00684   0.00000   0.00316   0.00310   2.57583
   R18        2.29861  -0.04002   0.00000  -0.00922  -0.00922   2.28938
   R19        2.29779  -0.03768   0.00000  -0.00906  -0.00906   2.28874
   R20        2.06835   0.00391   0.00000   0.00161   0.00161   2.06997
   R21        2.06760   0.00545   0.00000   0.00262   0.00262   2.07021
   R22        2.06812   0.00253   0.00000   0.00122   0.00122   2.06933
    A1        1.78125  -0.02049   0.00000  -0.02800  -0.02798   1.75328
    A2        1.54851  -0.00462   0.00000  -0.01238  -0.01237   1.53614
    A3        1.89704   0.01311   0.00000   0.01109   0.01117   1.90821
    A4        2.05026  -0.00102   0.00000   0.00388   0.00349   2.05375
    A5        2.05932   0.00925   0.00000   0.01232   0.01229   2.07161
    A6        2.01957  -0.00197   0.00000   0.00014   0.00009   2.01966
    A7        1.93444  -0.00778   0.00000  -0.01392  -0.01396   1.92048
    A8        1.56000   0.00408   0.00000   0.00691   0.00699   1.56699
    A9        1.74366  -0.00443   0.00000  -0.01895  -0.01901   1.72465
   A10        2.17855  -0.00030   0.00000   0.00595   0.00589   2.18444
   A11        1.84543   0.00527   0.00000   0.00518   0.00503   1.85046
   A12        2.11312  -0.00100   0.00000   0.00226   0.00217   2.11529
   A13        2.07513   0.00118   0.00000   0.00369   0.00369   2.07882
   A14        2.12068   0.00056   0.00000   0.00163   0.00163   2.12231
   A15        2.07740  -0.00165   0.00000  -0.00489  -0.00490   2.07250
   A16        2.23659  -0.00036   0.00000   0.00217   0.00210   2.23870
   A17        1.86799   0.00195   0.00000   0.00220   0.00229   1.87028
   A18        2.15092  -0.00151   0.00000  -0.00150  -0.00159   2.14932
   A19        2.18629  -0.01248   0.00000  -0.00087  -0.00088   2.18541
   A20        2.03335   0.00476   0.00000   0.00396   0.00395   2.03729
   A21        2.06086   0.00728   0.00000  -0.00377  -0.00379   2.05707
   A22        2.19170  -0.00848   0.00000  -0.00149  -0.00150   2.19019
   A23        2.01738   0.00412   0.00000   0.00462   0.00461   2.02199
   A24        2.07111   0.00395   0.00000  -0.00368  -0.00369   2.06742
   A25        1.94967  -0.01565   0.00000  -0.00543  -0.00542   1.94425
   A26        1.87948   0.00425   0.00000  -0.00131  -0.00121   1.87826
   A27        2.19061   0.01754   0.00000   0.01603   0.01598   2.20658
   A28        2.21279  -0.02172   0.00000  -0.01459  -0.01465   2.19814
   A29        1.87497   0.00453   0.00000  -0.00077  -0.00080   1.87417
   A30        2.19219   0.01990   0.00000   0.01441   0.01437   2.20656
   A31        2.21576  -0.02439   0.00000  -0.01330  -0.01334   2.20242
   A32        1.91718   0.00511   0.00000   0.00503   0.00503   1.92221
   A33        1.92433  -0.00124   0.00000  -0.00279  -0.00279   1.92154
   A34        1.95399  -0.00148   0.00000  -0.00050  -0.00050   1.95348
   A35        1.88538  -0.00184   0.00000  -0.00255  -0.00255   1.88283
   A36        1.88410  -0.00150   0.00000   0.00083   0.00082   1.88492
   A37        1.89713   0.00088   0.00000  -0.00007  -0.00007   1.89707
    D1        0.85053  -0.00142   0.00000   0.00474   0.00497   0.85550
    D2        3.07349  -0.00198   0.00000   0.01072   0.01084   3.08433
    D3       -1.08961  -0.00261   0.00000   0.01260   0.01261  -1.07700
    D4       -1.20623   0.00249   0.00000   0.00605   0.00603  -1.20020
    D5        1.01672   0.00192   0.00000   0.01203   0.01191   1.02863
    D6        3.13681   0.00130   0.00000   0.01392   0.01368  -3.13270
    D7        3.03873   0.00438   0.00000   0.00884   0.00896   3.04768
    D8       -1.02151   0.00381   0.00000   0.01482   0.01483  -1.00668
    D9        1.09858   0.00318   0.00000   0.01670   0.01660   1.11518
   D10       -1.13125   0.01665   0.00000   0.01021   0.01020  -1.12106
   D11        1.92978   0.01046   0.00000  -0.00008  -0.00011   1.92968
   D12        0.52503  -0.00003   0.00000  -0.01823  -0.01828   0.50675
   D13       -2.69712  -0.00621   0.00000  -0.02852  -0.02859  -2.72571
   D14        3.07515   0.01010   0.00000   0.01000   0.01008   3.08523
   D15       -0.14700   0.00391   0.00000  -0.00029  -0.00022  -0.14723
   D16        0.68732   0.00402   0.00000   0.01601   0.01600   0.70332
   D17        2.76316   0.00416   0.00000   0.01427   0.01425   2.77741
   D18       -1.40566   0.00343   0.00000   0.01190   0.01189  -1.39377
   D19        2.70215  -0.00687   0.00000  -0.00421  -0.00419   2.69796
   D20       -1.50521  -0.00673   0.00000  -0.00595  -0.00593  -1.51114
   D21        0.60916  -0.00746   0.00000  -0.00831  -0.00829   0.60087
   D22       -1.02072   0.00330   0.00000   0.02468   0.02467  -0.99605
   D23        1.05511   0.00345   0.00000   0.02294   0.02292   1.07804
   D24       -3.11371   0.00272   0.00000   0.02058   0.02056  -3.09314
   D25        1.61730   0.00220   0.00000   0.01440   0.01438   1.63168
   D26       -1.77198   0.00240   0.00000   0.02676   0.02680  -1.74518
   D27       -0.20684   0.00324   0.00000   0.01306   0.01308  -0.19376
   D28        2.68707   0.00344   0.00000   0.02542   0.02550   2.71257
   D29       -2.79204  -0.00355   0.00000  -0.01058  -0.01066  -2.80271
   D30        0.10187  -0.00334   0.00000   0.00178   0.00175   0.10362
   D31        1.89526  -0.00680   0.00000  -0.02196  -0.02195   1.87330
   D32       -1.27149  -0.00449   0.00000  -0.01713  -0.01712  -1.28861
   D33       -0.11375   0.00170   0.00000  -0.00104  -0.00099  -0.11474
   D34        3.00270   0.00401   0.00000   0.00379   0.00384   3.00654
   D35       -2.72458  -0.00494   0.00000  -0.02498  -0.02499  -2.74957
   D36        0.39186  -0.00262   0.00000  -0.02015  -0.02015   0.37171
   D37        2.79792   0.00279   0.00000   0.00840   0.00839   2.80631
   D38       -0.25894   0.00831   0.00000   0.01636   0.01637  -0.24257
   D39       -0.49654   0.00330   0.00000   0.01124   0.01123  -0.48531
   D40        2.72978   0.00882   0.00000   0.01920   0.01921   2.74899
   D41       -0.05654   0.00270   0.00000  -0.00202  -0.00203  -0.05857
   D42        3.10840   0.00118   0.00000  -0.01676  -0.01687   3.09154
   D43        2.85245   0.00306   0.00000   0.01020   0.01021   2.86266
   D44       -0.26579   0.00154   0.00000  -0.00455  -0.00463  -0.27042
   D45       -0.00917   0.00431   0.00000  -0.00659  -0.00659  -0.01576
   D46        3.04532  -0.00137   0.00000  -0.01441  -0.01439   3.03093
   D47       -3.06905   0.01071   0.00000   0.00352   0.00350  -3.06555
   D48       -0.01456   0.00502   0.00000  -0.00430  -0.00430  -0.01886
   D49        0.08219  -0.00138   0.00000  -0.00096  -0.00101   0.08118
   D50       -3.03385  -0.00447   0.00000  -0.00644  -0.00638  -3.04023
   D51       -0.01733  -0.00150   0.00000   0.00143   0.00145  -0.01588
   D52        3.10051   0.00082   0.00000   0.01691   0.01672   3.11723
         Item               Value     Threshold  Converged?
 Maximum Force            0.064787     0.000450     NO 
 RMS     Force            0.013716     0.000300     NO 
 Maximum Displacement     0.159225     0.001800     NO 
 RMS     Displacement     0.039661     0.001200     NO 
 Predicted change in Energy=-1.041035D-02
 GradGradGradGradGradGradGradGradGradGradGradGradGradGradGradGradGradGrad

                          Input orientation:                          
 ---------------------------------------------------------------------
 Center     Atomic      Atomic             Coordinates (Angstroms)
 Number     Number       Type             X           Y           Z
 ---------------------------------------------------------------------
      1          6           0       -1.778579    0.775843    0.261115
      2          6           0       -0.153168   -0.738467    1.146616
      3          6           0        0.757227    2.397137    0.307731
      4          6           0        1.105393   -0.106435    1.222243
      5          6           0       -1.077756    1.263589   -0.895960
      6          6           0        0.067290    1.985669   -0.868384
      7          1           0        1.801308    2.688193    0.233429
      8          1           0        0.236145    2.558800    1.245010
      9          1           0        0.562788    2.210187   -1.813380
     10          1           0       -1.462091    0.954197   -1.868966
     11          1           0       -1.691953    1.349139    1.184556
     12          1           0       -0.801359   -0.936029    1.987461
     13          1           0        1.541147    0.413043    2.057812
     14          8           0        1.123460   -1.458668   -0.613613
     15          6           0       -0.071744   -1.671377    0.010967
     16          6           0        1.881327   -0.547646    0.059918
     17          8           0       -0.901485   -2.496275   -0.303322
     18          8           0        2.994655   -0.179642   -0.243320
     19          6           0       -3.077979    0.050668    0.064098
     20          1           0       -3.262299   -0.627743    0.904121
     21          1           0       -3.906039    0.766696    0.022121
     22          1           0       -3.079790   -0.542379   -0.856454
 ---------------------------------------------------------------------
                    Distance matrix (angstroms):
                    1          2          3          4          5
     1  C    0.000000
     2  C    2.391486   0.000000
     3  C    3.010163   3.371137   0.000000
     4  C    3.165355   1.410376   2.688014   0.000000
     5  C    1.438010   3.005863   2.470014   3.336149   0.000000
     6  C    2.479250   3.395548   1.424277   3.134530   1.353991
     7  H    4.058749   4.049184   1.086434   3.044995   3.405001
     8  H    2.864629   3.321628   1.084506   2.803495   2.826245
     9  H    3.441347   4.238954   2.138193   3.856963   2.104541
    10  H    2.160838   3.697584   3.427165   4.156018   1.090952
    11  H    1.090374   2.593723   2.804569   3.153611   2.170968
    12  H    2.620254   1.079908   4.044834   2.215737   3.637147
    13  H    3.792139   2.242088   2.759337   1.076065   4.038175
    14  O    3.765635   2.290606   3.981234   2.280182   3.512229
    15  C    2.994118   1.471954   4.162699   2.302582   3.232430
    16  C    3.897052   2.314411   3.161765   1.465518   3.598674
    17  O    3.434332   2.398372   5.202902   3.473650   3.810364
    18  O    4.893992   3.486115   3.456808   2.392183   4.369598
    19  C    1.501045   3.217001   4.502675   4.343568   2.528592
    20  H    2.141246   3.120538   5.065784   4.410181   3.404359
    21  H    2.140862   4.196909   4.948329   5.226576   3.014790
    22  H    2.163289   3.551881   4.971799   4.693270   2.696520
                    6          7          8          9         10
     6  C    0.000000
     7  H    2.171255   0.000000
     8  H    2.196230   1.868094   0.000000
     9  H    1.090387   2.439641   3.095477   0.000000
    10  H    2.098596   4.251656   3.893020   2.383429   0.000000
    11  H    2.777529   3.860127   2.276949   3.848750   3.087525
    12  H    4.176927   4.794319   3.720414   5.119176   4.345290
    13  H    3.634285   2.927860   2.639687   4.378703   4.973115
    14  O    3.611628   4.286422   4.514626   3.900549   3.752718
    15  C    3.763851   4.750122   4.417244   4.335598   3.515800
    16  C    3.251178   3.241476   3.709592   3.585169   4.141808
    17  O    4.620135   5.871278   5.407894   5.155110   3.830310
    18  O    3.694420   3.142585   4.162158   3.753711   4.877591
    19  C    3.808736   5.549113   4.320729   4.630726   2.676601
    20  H    4.588885   6.089776   4.744404   5.483607   3.665146
    21  H    4.250440   6.025829   4.675979   5.042137   3.095844
    22  H    4.036742   5.953953   5.002888   4.664837   2.425257
                   11         12         13         14         15
    11  H    0.000000
    12  H    2.580661   0.000000
    13  H    3.477325   2.704123   0.000000
    14  O    4.363913   3.277753   3.288507   0.000000
    15  C    3.622969   2.231502   3.337034   1.365231   0.000000
    16  C    4.198922   3.326119   2.242817   1.363073   2.253809
    17  O    4.198313   2.773459   4.472755   2.296369   1.211489
    18  O    5.132280   4.467463   2.785528   2.296605   3.419464
    19  C    2.205112   3.139410   5.044060   4.515470   3.464925
    20  H    2.540215   2.706454   5.048498   4.714746   3.473692
    21  H    2.567619   4.049799   5.825886   5.536448   4.543803
    22  H    3.109606   3.665250   5.546065   4.308812   3.327972
                   16         17         18         19         20
    16  C    0.000000
    17  O    3.416598   0.000000
    18  O    1.211147   4.533243   0.000000
    19  C    4.995269   3.370318   6.084770   0.000000
    20  H    5.213059   3.243883   6.377059   1.095379   0.000000
    21  H    5.934858   4.447498   6.970336   1.095510   1.771098
    22  H    5.045042   2.978033   6.116076   1.095045   1.772067
                   21         22
    21  H    0.000000
    22  H    1.779960   0.000000
 Stoichiometry    C9H10O3
 Framework group  C1[X(C9H10O3)]
 Deg. of freedom    60
 Full point group                 C1      NOp   1
 Largest Abelian subgroup         C1      NOp   1
 Largest concise Abelian subgroup C1      NOp   1
                         Standard orientation:                         
 ---------------------------------------------------------------------
 Center     Atomic      Atomic             Coordinates (Angstroms)
 Number     Number       Type             X           Y           Z
 ---------------------------------------------------------------------
      1          6           0       -1.853139    0.657731    0.300285
      2          6           0       -0.094151   -0.750894    1.100872
      3          6           0        0.541819    2.479639    0.377156
      4          6           0        1.109548   -0.020632    1.184468
      5          6           0       -1.214683    1.246681   -0.845745
      6          6           0       -0.132303    2.059133   -0.804919
      7          1           0        1.557122    2.858539    0.300134
      8          1           0        0.025503    2.560840    1.327407
      9          1           0        0.326763    2.360689   -1.746867
     10          1           0       -1.589127    0.945066   -1.825028
     11          1           0       -1.797825    1.199529    1.244907
     12          1           0       -0.709379   -1.034117    1.941991
     13          1           0        1.515657    0.499827    2.034240
     14          8           0        1.206594   -1.293654   -0.704772
     15          6           0        0.043779   -1.628604   -0.072690
     16          6           0        1.898829   -0.350351   -0.005516
     17          8           0       -0.720930   -2.506176   -0.408538
     18          8           0        2.972884    0.119876   -0.309111
     19          6           0       -3.092002   -0.163887    0.092205
     20          1           0       -3.205628   -0.887642    0.906529
     21          1           0       -3.976513    0.482472    0.090864
     22          1           0       -3.061133   -0.718468   -0.851516
 ---------------------------------------------------------------------
 Rotational constants (GHZ):           1.1932752           0.9408355           0.6346015
 Standard basis: STO-3G (5D, 7F)
 There are    70 symmetry adapted cartesian basis functions of A   symmetry.
 There are    70 symmetry adapted basis functions of A   symmetry.
    70 basis functions,   210 primitive gaussians,    70 cartesian basis functions
    44 alpha electrons       44 beta electrons
       nuclear repulsion energy       698.3968357792 Hartrees.
 NAtoms=   22 NActive=   22 NUniq=   22 SFac= 1.00D+00 NAtFMM=   60 NAOKFM=F Big=F
 Integral buffers will be    131072 words long.
 Raffenetti 1 integral format.
 Two-electron integral symmetry is turned on.
 External calculation of energy, first and second derivatives.
 Running external command "~/scripts/MiMe -H 'pbepbe def2svp' -EF 'wb97xd def2svp' -c 12 -m 48GB R"
         input file       "/local/jobs/1158155/Gau-1798109.EIn"
         output file      "/local/jobs/1158155/Gau-1798109.EOu"
         message file     "/local/jobs/1158155/Gau-1798109.EMs"
         fchk file        "/local/jobs/1158155/Gau-1798109.EFC"
         mat. el file     "/local/jobs/1158155/Gau-1798109.EUF"
 Read checkpoint file Gau-1798109_H.chk type G16
 Write formatted file Gau-1798109_H.fchk

deriv: 2

spelevel: wb97xd def2svp
gradlevel: wb97xd def2svp
hesslevel: pbepbe def2svp

runspe: False
runforce: True
runfreq: True

Running Gaussian ...

Parsing files ...
SPE file: Gau-1798109_F.out
FORCE file: Gau-1798109_F.out
HESS file: Gau-1798109_H.out

 ExternalExternalExternalExternalExternalExternalExternalExternalExternalExternal
 Output from external command:
 "~/scripts/MiMe -H 'pbepbe def2svp' -EF 'wb97xd def2svp' -c 12 -m 48GB R /local/jobs/1158155/Gau-1798109.EIn /local/jobs/1158155/Gau-1798109.EOu /local/jobs/1158155/Gau-1798109.EMs /local/jobs/1158155/Gau-1798109.EFC /local/jobs/1158155/Gau-1798109.EUF"
  
 --------------------------------------------------
 Force calculation at wb97xd def2svp
 Hessian calculation at pbepbe def2svp
 ExternalExternalExternalExternalExternalExternalExternalExternalExternalExternal

 Recovered energy= -573.951928677     dipole=     -3.023000000000      3.152800000000      2.766200000000
 Energy=    -573.951929     NIter=   0.
 Dipole moment=      -3.023000       3.152800       2.766200
 ***** Axes restored to original set *****
 -------------------------------------------------------------------
 Center     Atomic                   Forces (Hartrees/Bohr)
 Number     Number              X              Y              Z
 -------------------------------------------------------------------
      1        6           0.009014806    0.024009553   -0.053185134
      2        6           0.046746534    0.022379764    0.009985462
      3        6          -0.022322111   -0.021519031   -0.042243446
      4        6          -0.048572974   -0.014965053   -0.000938930
      5        6          -0.069515459   -0.039154508    0.040735055
      6        6           0.069984248    0.044481757    0.041774360
      7        1           0.001757060    0.007214373   -0.000099036
      8        1          -0.000416813   -0.005404512    0.006237774
      9        1           0.004292662   -0.005636913   -0.002647443
     10        1           0.000165044   -0.004643787   -0.001655451
     11        1           0.007654357   -0.004741301    0.005411629
     12        1          -0.008534815    0.001822688    0.002076129
     13        1           0.003809342    0.004806377    0.005206768
     14        8           0.003460252   -0.011666535   -0.025041519
     15        6          -0.034416070   -0.015987219    0.004607533
     16        6           0.031296399    0.026794562    0.009835587
     17        8           0.030718326    0.018829892   -0.002424766
     18        8          -0.028175281   -0.020608446   -0.004209193
     19        6           0.009008934   -0.005282151    0.006425918
     20        1          -0.003120008   -0.002676104    0.001481699
     21        1          -0.003367922    0.003106191    0.000482710
     22        1           0.000533490   -0.001159596   -0.001815709
 -------------------------------------------------------------------
 Cartesian Forces:  Max     0.069984248 RMS     0.023184244
 FormGI is forming the generalized inverse of G from B-inverse, IUseBI=4.

 GradGradGradGradGradGradGradGradGradGradGradGradGradGradGradGradGradGrad
 Berny optimization.
 Internal  Forces:  Max     0.055337997 RMS     0.011408679
 Search for a saddle point.
 Step number   2 out of a maximum of   50
 All quantities printed in internal units (Hartrees-Bohrs-Radians)
 Swapping is turned off.
 Second derivative matrix not updated -- analytic derivatives used.
 ITU=  0  0
     Eigenvalues ---   -0.05485  -0.01928  -0.00531  -0.00304   0.00279
     Eigenvalues ---    0.00334   0.00830   0.01214   0.01332   0.01534
     Eigenvalues ---    0.01698   0.01745   0.02116   0.02240   0.02608
     Eigenvalues ---    0.03237   0.03619   0.03688   0.04241   0.04303
     Eigenvalues ---    0.04644   0.04861   0.05630   0.06631   0.07890
     Eigenvalues ---    0.09108   0.09543   0.10332   0.10724   0.11459
     Eigenvalues ---    0.12159   0.12706   0.13870   0.14473   0.15463
     Eigenvalues ---    0.17030   0.19511   0.22886   0.23975   0.26288
     Eigenvalues ---    0.29649   0.31412   0.31805   0.35065   0.35382
     Eigenvalues ---    0.35593   0.36194   0.36424   0.36464   0.36486
     Eigenvalues ---    0.37104   0.37820   0.38189   0.39088   0.40147
     Eigenvalues ---    0.40774   0.42437   0.62813   0.85533   0.85917
 Eigenvectors required to have negative eigenvalues:
                          R1        D39       D10       D11       A3
   1                    0.41813   0.32975  -0.28814  -0.21969  -0.19944
                          D47       D44       D32       A7        D40
   1                   -0.19735   0.18237   0.18040   0.17959   0.17755
 RFO step:  Lambda0=3.119784701D-04 Lambda=-4.15148760D-02.
 Linear search not attempted -- option 19 set.
 Maximum step size (   0.100) exceeded in Quadratic search.
    -- Step size scaled by   0.251
 Iteration  1 RMS(Cart)=  0.06007114 RMS(Int)=  0.00076493
 Iteration  2 RMS(Cart)=  0.00131267 RMS(Int)=  0.00010645
 Iteration  3 RMS(Cart)=  0.00000079 RMS(Int)=  0.00010645
 Variable       Old X    -DE/DX   Delta X   Delta X   Delta X     New X
                                 (Linear)    (Quad)   (Total)
    R1        4.51925  -0.01005   0.00000   0.03753   0.03753   4.55678
    R2        2.71744  -0.05007   0.00000  -0.03325  -0.03325   2.68419
    R3        2.06051   0.00270   0.00000   0.00168   0.00168   2.06219
    R4        2.83656  -0.00060   0.00000  -0.00222  -0.00222   2.83435
    R5        2.66523  -0.03510   0.00000  -0.01920  -0.01915   2.64608
    R6        2.04073   0.00641   0.00000   0.00365   0.00365   2.04438
    R7        2.78159   0.00962   0.00000   0.00236   0.00240   2.78399
    R8        2.69149  -0.04567   0.00000  -0.02719  -0.02719   2.66430
    R9        2.05306   0.00363   0.00000   0.00235   0.00235   2.05542
   R10        2.04942   0.00479   0.00000   0.00265   0.00265   2.05207
   R11        2.03347   0.00791   0.00000   0.00429   0.00429   2.03776
   R12        2.76943   0.01088   0.00000   0.01250   0.01248   2.78191
   R13        2.55867   0.05534   0.00000   0.02534   0.02534   2.58401
   R14        2.06160   0.00273   0.00000   0.00153   0.00153   2.06313
   R15        2.06053   0.00308   0.00000   0.00129   0.00129   2.06183
   R16        2.57991   0.00134   0.00000   0.00792   0.00790   2.58782
   R17        2.57583   0.00588   0.00000   0.00377   0.00371   2.57954
   R18        2.28938  -0.03323   0.00000  -0.01041  -0.01041   2.27897
   R19        2.28874  -0.03111   0.00000  -0.01036  -0.01036   2.27837
   R20        2.06997   0.00332   0.00000   0.00159   0.00159   2.07156
   R21        2.07021   0.00456   0.00000   0.00325   0.00325   2.07346
   R22        2.06933   0.00215   0.00000   0.00165   0.00165   2.07098
    A1        1.75328  -0.01441   0.00000  -0.02788  -0.02796   1.72532
    A2        1.53614  -0.00429   0.00000  -0.02280  -0.02285   1.51329
    A3        1.90821   0.00842   0.00000   0.01857   0.01867   1.92689
    A4        2.05375  -0.00104   0.00000  -0.00044  -0.00106   2.05269
    A5        2.07161   0.00732   0.00000   0.01563   0.01566   2.08727
    A6        2.01966  -0.00116   0.00000   0.00101   0.00106   2.02073
    A7        1.92048  -0.00431   0.00000  -0.02479  -0.02480   1.89568
    A8        1.56699   0.00227   0.00000   0.01608   0.01616   1.58315
    A9        1.72465  -0.00495   0.00000  -0.01302  -0.01312   1.71153
   A10        2.18444  -0.00024   0.00000   0.00721   0.00725   2.19169
   A11        1.85046   0.00427   0.00000   0.00564   0.00545   1.85591
   A12        2.11529  -0.00073   0.00000  -0.00295  -0.00298   2.11231
   A13        2.07882   0.00102   0.00000   0.00492   0.00487   2.08369
   A14        2.12231   0.00058   0.00000   0.00004  -0.00000   2.12231
   A15        2.07250  -0.00155   0.00000  -0.00724  -0.00728   2.06522
   A16        2.23870  -0.00039   0.00000   0.00102   0.00098   2.23968
   A17        1.87028   0.00191   0.00000   0.00066   0.00078   1.87105
   A18        2.14932  -0.00146   0.00000  -0.00193  -0.00199   2.14733
   A19        2.18541  -0.00864   0.00000  -0.01148  -0.01150   2.17391
   A20        2.03729   0.00310   0.00000   0.01023   0.01019   2.04749
   A21        2.05707   0.00515   0.00000   0.00017   0.00014   2.05721
   A22        2.19019  -0.00610   0.00000  -0.01301  -0.01308   2.17711
   A23        2.02199   0.00318   0.00000   0.00878   0.00871   2.03070
   A24        2.06742   0.00257   0.00000   0.00257   0.00251   2.06992
   A25        1.94425  -0.01320   0.00000  -0.00472  -0.00471   1.93954
   A26        1.87826   0.00376   0.00000  -0.00110  -0.00099   1.87727
   A27        2.20658   0.01427   0.00000   0.01863   0.01858   2.22516
   A28        2.19814  -0.01799   0.00000  -0.01755  -0.01760   2.18054
   A29        1.87417   0.00358   0.00000  -0.00119  -0.00125   1.87291
   A30        2.20656   0.01684   0.00000   0.01939   0.01931   2.22588
   A31        2.20242  -0.02041   0.00000  -0.01803  -0.01810   2.18432
   A32        1.92221   0.00436   0.00000   0.00702   0.00702   1.92922
   A33        1.92154  -0.00090   0.00000  -0.00417  -0.00417   1.91737
   A34        1.95348  -0.00133   0.00000  -0.00075  -0.00076   1.95272
   A35        1.88283  -0.00162   0.00000  -0.00247  -0.00246   1.88037
   A36        1.88492  -0.00127   0.00000   0.00145   0.00144   1.88636
   A37        1.89707   0.00071   0.00000  -0.00114  -0.00115   1.89592
    D1        0.85550  -0.00077   0.00000  -0.00594  -0.00557   0.84993
    D2        3.08433  -0.00119   0.00000   0.00247   0.00270   3.08703
    D3       -1.07700  -0.00197   0.00000   0.00118   0.00127  -1.07574
    D4       -1.20020   0.00194   0.00000   0.00046   0.00038  -1.19982
    D5        1.02863   0.00153   0.00000   0.00887   0.00864   1.03728
    D6       -3.13270   0.00075   0.00000   0.00759   0.00721  -3.12549
    D7        3.04768   0.00364   0.00000   0.00539   0.00554   3.05322
    D8       -1.00668   0.00323   0.00000   0.01381   0.01381  -0.99287
    D9        1.11518   0.00245   0.00000   0.01252   0.01237   1.12755
   D10       -1.12106   0.01222   0.00000   0.02690   0.02684  -1.09421
   D11        1.92968   0.00728   0.00000   0.01261   0.01252   1.94220
   D12        0.50675  -0.00066   0.00000  -0.01434  -0.01434   0.49241
   D13       -2.72571  -0.00560   0.00000  -0.02863  -0.02866  -2.75437
   D14        3.08523   0.00841   0.00000   0.01594   0.01604   3.10127
   D15       -0.14723   0.00348   0.00000   0.00165   0.00172  -0.14551
   D16        0.70332   0.00229   0.00000   0.01236   0.01231   0.71563
   D17        2.77741   0.00244   0.00000   0.01108   0.01102   2.78843
   D18       -1.39377   0.00182   0.00000   0.00626   0.00620  -1.38757
   D19        2.69796  -0.00548   0.00000  -0.00001   0.00005   2.69801
   D20       -1.51114  -0.00533   0.00000  -0.00130  -0.00124  -1.51238
   D21        0.60087  -0.00595   0.00000  -0.00612  -0.00606   0.59481
   D22       -0.99605   0.00339   0.00000   0.02911   0.02912  -0.96693
   D23        1.07804   0.00353   0.00000   0.02783   0.02782   1.10586
   D24       -3.09314   0.00292   0.00000   0.02301   0.02301  -3.07014
   D25        1.63168   0.00235   0.00000   0.02892   0.02890   1.66057
   D26       -1.74518   0.00249   0.00000   0.02748   0.02751  -1.71767
   D27       -0.19376   0.00297   0.00000   0.02366   0.02369  -0.17007
   D28        2.71257   0.00311   0.00000   0.02222   0.02230   2.73486
   D29       -2.80271  -0.00305   0.00000   0.00672   0.00663  -2.79608
   D30        0.10362  -0.00291   0.00000   0.00528   0.00524   0.10886
   D31        1.87330  -0.00388   0.00000  -0.03598  -0.03597   1.83733
   D32       -1.28861  -0.00227   0.00000  -0.03698  -0.03702  -1.32563
   D33       -0.11474   0.00140   0.00000  -0.00584  -0.00579  -0.12053
   D34        3.00654   0.00301   0.00000  -0.00685  -0.00684   2.99970
   D35       -2.74957  -0.00442   0.00000  -0.02560  -0.02555  -2.77512
   D36        0.37171  -0.00281   0.00000  -0.02660  -0.02661   0.34510
   D37        2.80631   0.00341   0.00000   0.01090   0.01088   2.81719
   D38       -0.24257   0.00780   0.00000   0.03213   0.03215  -0.21042
   D39       -0.48531   0.00371   0.00000  -0.00747  -0.00748  -0.49280
   D40        2.74899   0.00811   0.00000   0.01376   0.01378   2.76277
   D41       -0.05857   0.00245   0.00000  -0.00304  -0.00303  -0.06160
   D42        3.09154   0.00143   0.00000  -0.02373  -0.02393   3.06761
   D43        2.86266   0.00273   0.00000  -0.00392  -0.00386   2.85880
   D44       -0.27042   0.00170   0.00000  -0.02462  -0.02476  -0.29518
   D45       -0.01576   0.00338   0.00000   0.00265   0.00266  -0.01310
   D46        3.03093  -0.00111   0.00000  -0.01882  -0.01878   3.01216
   D47       -3.06555   0.00847   0.00000   0.01662   0.01658  -3.04897
   D48       -0.01886   0.00398   0.00000  -0.00484  -0.00485  -0.02371
   D49        0.08118  -0.00099   0.00000   0.00335   0.00328   0.08446
   D50       -3.04023  -0.00307   0.00000   0.00382   0.00377  -3.03646
   D51       -0.01588  -0.00148   0.00000  -0.00060  -0.00057  -0.01645
   D52        3.11723  -0.00023   0.00000   0.02027   0.01993   3.13716
         Item               Value     Threshold  Converged?
 Maximum Force            0.055338     0.000450     NO 
 RMS     Force            0.011409     0.000300     NO 
 Maximum Displacement     0.215407     0.001800     NO 
 RMS     Displacement     0.060297     0.001200     NO 
 Predicted change in Energy=-9.504460D-03
 GradGradGradGradGradGradGradGradGradGradGradGradGradGradGradGradGradGrad

                          Input orientation:                          
 ---------------------------------------------------------------------
 Center     Atomic      Atomic             Coordinates (Angstroms)
 Number     Number       Type             X           Y           Z
 ---------------------------------------------------------------------
      1          6           0       -1.791549    0.779925    0.244951
      2          6           0       -0.139058   -0.721261    1.156157
      3          6           0        0.759790    2.309815    0.344575
      4          6           0        1.091866   -0.055478    1.203497
      5          6           0       -1.072586    1.231236   -0.893900
      6          6           0        0.102943    1.927893   -0.843060
      7          1           0        1.812049    2.582750    0.308438
      8          1           0        0.212509    2.488193    1.265368
      9          1           0        0.636407    2.120824   -1.775063
     10          1           0       -1.437738    0.917168   -1.873679
     11          1           0       -1.688418    1.352935    1.167924
     12          1           0       -0.775890   -0.927947    2.005924
     13          1           0        1.533624    0.475235    2.031749
     14          8           0        1.112050   -1.406563   -0.640535
     15          6           0       -0.060906   -1.656478    0.020532
     16          6           0        1.857151   -0.470223    0.016284
     17          8           0       -0.855775   -2.511349   -0.282394
     18          8           0        2.935294   -0.065653   -0.340864
     19          6           0       -3.099296    0.068801    0.061329
     20          1           0       -3.302899   -0.588258    0.914863
     21          1           0       -3.915480    0.799539   -0.000150
     22          1           0       -3.107588   -0.542605   -0.848145
 ---------------------------------------------------------------------
                    Distance matrix (angstroms):
                    1          2          3          4          5
     1  C    0.000000
     2  C    2.411345   0.000000
     3  C    2.976546   3.264049   0.000000
     4  C    3.151316   1.400243   2.538234   0.000000
     5  C    1.420413   2.981016   2.460641   3.277127   0.000000
     6  C    2.467934   3.327679   1.409889   3.016641   1.367401
     7  H    4.029905   3.929622   1.087680   2.877506   3.404897
     8  H    2.824125   3.230499   1.085908   2.692092   2.809599
     9  H    3.431244   4.155821   2.131620   3.716928   2.118601
    10  H    2.152350   3.681158   3.418954   4.100482   1.091760
    11  H    1.091264   2.589004   2.754496   3.116868   2.155268
    12  H    2.655074   1.081840   3.949873   2.212149   3.627545
    13  H    3.787118   2.235203   2.609801   1.078336   3.990400
    14  O    3.741083   2.294126   3.860829   2.286109   3.434358
    15  C    2.996924   1.473222   4.063254   2.300325   3.193521
    16  C    3.863699   2.312397   3.006757   1.472124   3.508098
    17  O    3.462116   2.405728   5.123160   3.468787   3.798407
    18  O    4.837482   3.481743   3.293250   2.404866   4.248632
    19  C    1.499871   3.253591   4.471568   4.345783   2.524138
    20  H    2.145899   3.175816   5.022898   4.436341   3.399482
    21  H    2.138116   4.232168   4.925233   5.220473   3.011179
    22  H    2.162384   3.586268   4.951313   4.699143   2.699971
                    6          7          8          9         10
     6  C    0.000000
     7  H    2.162366   0.000000
     8  H    2.184355   1.866330   0.000000
     9  H    1.091071   2.436490   3.091742   0.000000
    10  H    2.111265   4.254047   3.878795   2.400123   0.000000
    11  H    2.753835   3.808468   2.216265   3.828268   3.082869
    12  H    4.128544   4.680158   3.632543   5.058206   4.346701
    13  H    3.524427   2.736592   2.526793   4.243204   4.927136
    14  O    3.489686   4.159948   4.428404   3.735753   3.663576
    15  C    3.690577   4.643480   4.336205   4.240097   3.479563
    16  C    3.093004   3.067251   3.607947   3.378263   4.043897
    17  O    4.576064   5.780676   5.341556   5.090353   3.824343
    18  O    3.499806   2.949120   4.063948   3.481737   4.736968
    19  C    3.811624   5.522890   4.274484   4.640971   2.687891
    20  H    4.584874   6.048614   4.684602   5.485704   3.677105
    21  H    4.258099   6.006635   4.636095   5.061204   3.108561
    22  H    4.051037   5.942084   4.967466   4.687273   2.443575
                   11         12         13         14         15
    11  H    0.000000
    12  H    2.595645   0.000000
    13  H    3.449363   2.702488   0.000000
    14  O    4.327583   3.285900   3.295450   0.000000
    15  C    3.608583   2.232430   3.336424   1.369413   0.000000
    16  C    4.149847   3.331829   2.249591   1.365034   2.255252
    17  O    4.210630   2.783872   4.470366   2.284984   1.205979
    18  O    5.066315   4.474802   2.808296   2.282994   3.411532
    19  C    2.205477   3.189541   5.050910   4.517161   3.494291
    20  H    2.537482   2.773370   5.076457   4.751911   3.528660
    21  H    2.574966   4.106771   5.824648   5.527480   4.570579
    22  H    3.109928   3.705539   5.556136   4.312177   3.358212
                   16         17         18         19         20
    16  C    0.000000
    17  O    3.408133   0.000000
    18  O    1.205664   4.511879   0.000000
    19  C    4.985874   3.436380   6.049472   0.000000
    20  H    5.239035   3.334685   6.384749   1.096220   0.000000
    21  H    5.910654   4.517016   6.913592   1.097230   1.771577
    22  H    5.039951   3.044124   6.082865   1.095916   1.774381
                   21         22
    21  H    0.000000
    22  H    1.781330   0.000000
 Stoichiometry    C9H10O3
 Framework group  C1[X(C9H10O3)]
 Deg. of freedom    60
 Full point group                 C1      NOp   1
 Largest Abelian subgroup         C1      NOp   1
 Largest concise Abelian subgroup C1      NOp   1
                         Standard orientation:                         
 ---------------------------------------------------------------------
 Center     Atomic      Atomic             Coordinates (Angstroms)
 Number     Number       Type             X           Y           Z
 ---------------------------------------------------------------------
      1          6           0       -1.831330    0.747089    0.258007
      2          6           0       -0.133246   -0.730221    1.123251
      3          6           0        0.671821    2.350802    0.406883
      4          6           0        1.076651   -0.028730    1.192106
      5          6           0       -1.126880    1.255459   -0.865773
      6          6           0        0.026701    1.985984   -0.792498
      7          1           0        1.715187    2.656925    0.379969
      8          1           0        0.119564    2.483572    1.332399
      9          1           0        0.553733    2.224092   -1.717688
     10          1           0       -1.482472    0.960931   -1.855090
     11          1           0       -1.745607    1.294028    1.198414
     12          1           0       -0.763198   -0.982690    1.965746
     13          1           0        1.502116    0.489300    2.036755
     14          8           0        1.137846   -1.320580   -0.693013
     15          6           0       -0.026698   -1.626842   -0.040838
     16          6           0        1.854000   -0.382662   -0.006898
     17          8           0       -0.795005   -2.495899   -0.370732
     18          8           0        2.919107    0.065745   -0.350559
     19          6           0       -3.116657    0.002177    0.051475
     20          1           0       -3.299745   -0.687042    0.884035
     21          1           0       -3.954926    0.709053    0.012176
     22          1           0       -3.106403   -0.580628   -0.876569
 ---------------------------------------------------------------------
 Rotational constants (GHZ):           1.2253374           0.9531921           0.6503844
 Standard basis: STO-3G (5D, 7F)
 There are    70 symmetry adapted cartesian basis functions of A   symmetry.
 There are    70 symmetry adapted basis functions of A   symmetry.
    70 basis functions,   210 primitive gaussians,    70 cartesian basis functions
    44 alpha electrons       44 beta electrons
       nuclear repulsion energy       703.5092870319 Hartrees.
 NAtoms=   22 NActive=   22 NUniq=   22 SFac= 1.00D+00 NAtFMM=   60 NAOKFM=F Big=F
 Integral buffers will be    131072 words long.
 Raffenetti 1 integral format.
 Two-electron integral symmetry is turned on.
 External calculation of energy, first and second derivatives.
 Running external command "~/scripts/MiMe -H 'pbepbe def2svp' -EF 'wb97xd def2svp' -c 12 -m 48GB R"
         input file       "/local/jobs/1158155/Gau-1798109.EIn"
         output file      "/local/jobs/1158155/Gau-1798109.EOu"
         message file     "/local/jobs/1158155/Gau-1798109.EMs"
         fchk file        "/local/jobs/1158155/Gau-1798109.EFC"
         mat. el file     "/local/jobs/1158155/Gau-1798109.EUF"
 Read checkpoint file Gau-1798109_H.chk type G16
 Write formatted file Gau-1798109_H.fchk

deriv: 2

spelevel: wb97xd def2svp
gradlevel: wb97xd def2svp
hesslevel: pbepbe def2svp

runspe: False
runforce: True
runfreq: True

Running Gaussian ...

Parsing files ...
SPE file: Gau-1798109_F.out
FORCE file: Gau-1798109_F.out
HESS file: Gau-1798109_H.out

 ExternalExternalExternalExternalExternalExternalExternalExternalExternalExternal
 Output from external command:
 "~/scripts/MiMe -H 'pbepbe def2svp' -EF 'wb97xd def2svp' -c 12 -m 48GB R /local/jobs/1158155/Gau-1798109.EIn /local/jobs/1158155/Gau-1798109.EOu /local/jobs/1158155/Gau-1798109.EMs /local/jobs/1158155/Gau-1798109.EFC /local/jobs/1158155/Gau-1798109.EUF"
  
 --------------------------------------------------
 Force calculation at wb97xd def2svp
 Hessian calculation at pbepbe def2svp
 ExternalExternalExternalExternalExternalExternalExternalExternalExternalExternal

 Recovered energy= -573.960777749     dipole=     -2.828900000000      3.291500000000      2.827300000000
 Energy=    -573.960778     NIter=   0.
 Dipole moment=      -2.828900       3.291500       2.827300
 ***** Axes restored to original set *****
 -------------------------------------------------------------------
 Center     Atomic                   Forces (Hartrees/Bohr)
 Number     Number              X              Y              Z
 -------------------------------------------------------------------
      1        6           0.006189609    0.019719637   -0.042512560
      2        6           0.036647715    0.016734924    0.008624425
      3        6          -0.015922692   -0.015902536   -0.033156729
      4        6          -0.036708813   -0.012016119   -0.000382730
      5        6          -0.054119916   -0.027004381    0.029964230
      6        6           0.052350310    0.033593964    0.032839789
      7        1           0.001106917    0.006947033   -0.000292478
      8        1          -0.000436906   -0.004400597    0.004891200
      9        1           0.003231210   -0.005483600   -0.002001582
     10        1           0.000279929   -0.004039204   -0.001179815
     11        1           0.006441941   -0.005087859    0.004808095
     12        1          -0.007322130    0.001986858    0.001263453
     13        1           0.003548899    0.002482533    0.004412766
     14        8           0.002320526   -0.008234696   -0.019665366
     15        6          -0.025891731   -0.013006048    0.004221748
     16        6           0.022908975    0.021300200    0.006298415
     17        8           0.022202745    0.015339954   -0.002452864
     18        8          -0.019669645   -0.017236256   -0.001364212
     19        6           0.007420957   -0.005004641    0.005543202
     20        1          -0.002385264   -0.002099488    0.001169349
     21        1          -0.002624851    0.002309178    0.000364013
     22        1           0.000432215   -0.000898857   -0.001392348
 -------------------------------------------------------------------
 Cartesian Forces:  Max     0.054119916 RMS     0.017739666
 FormGI is forming the generalized inverse of G from B-inverse, IUseBI=4.

 GradGradGradGradGradGradGradGradGradGradGradGradGradGradGradGradGradGrad
 Berny optimization.
 Internal  Forces:  Max     0.042274798 RMS     0.008416853
 Search for a saddle point.
 Step number   3 out of a maximum of   50
 All quantities printed in internal units (Hartrees-Bohrs-Radians)
 Swapping is turned off.
 Second derivative matrix not updated -- analytic derivatives used.
 ITU=  0  0  0
     Eigenvalues ---   -0.03625  -0.01800  -0.00440  -0.00194   0.00314
     Eigenvalues ---    0.00465   0.01015   0.01434   0.01588   0.01658
     Eigenvalues ---    0.01755   0.01906   0.02174   0.02321   0.02695
     Eigenvalues ---    0.03428   0.03658   0.03699   0.04307   0.04681
     Eigenvalues ---    0.04816   0.05064   0.06641   0.07919   0.08751
     Eigenvalues ---    0.09867   0.09984   0.10727   0.11258   0.11712
     Eigenvalues ---    0.12673   0.12979   0.14184   0.15047   0.15593
     Eigenvalues ---    0.19168   0.19753   0.23981   0.26100   0.27147
     Eigenvalues ---    0.30818   0.31443   0.32074   0.34770   0.35208
     Eigenvalues ---    0.35418   0.36094   0.36198   0.36341   0.36420
     Eigenvalues ---    0.37479   0.37781   0.38663   0.39548   0.41212
     Eigenvalues ---    0.44319   0.44996   0.61124   0.88579   0.89058
 Eigenvectors required to have negative eigenvalues:
                          R1        D39       D40       D29       D10
   1                   -0.53064  -0.34879  -0.22516   0.21654   0.20185
                          D44       D12       D43       D47       D11
   1                   -0.19491   0.18622  -0.18165   0.16729   0.15976
 RFO step:  Lambda0=4.074827698D-03 Lambda=-2.80280108D-02.
 Linear search not attempted -- option 19 set.
 Maximum step size (   0.100) exceeded in Quadratic search.
    -- Step size scaled by   0.196
 Iteration  1 RMS(Cart)=  0.04009783 RMS(Int)=  0.00052471
 Iteration  2 RMS(Cart)=  0.00074272 RMS(Int)=  0.00007381
 Iteration  3 RMS(Cart)=  0.00000022 RMS(Int)=  0.00007381
 Variable       Old X    -DE/DX   Delta X   Delta X   Delta X     New X
                                 (Linear)    (Quad)   (Total)
    R1        4.55678  -0.00556   0.00000  -0.07740  -0.07740   4.47938
    R2        2.68419  -0.03692   0.00000  -0.01433  -0.01433   2.66987
    R3        2.06219   0.00200   0.00000   0.00094   0.00094   2.06313
    R4        2.83435  -0.00048   0.00000   0.00050   0.00050   2.83484
    R5        2.64608  -0.02639   0.00000  -0.00679  -0.00684   2.63923
    R6        2.04438   0.00492   0.00000   0.00229   0.00229   2.04667
    R7        2.78399   0.00722   0.00000   0.00364   0.00359   2.78758
    R8        2.66430  -0.03478   0.00000  -0.01308  -0.01308   2.65122
    R9        2.05542   0.00282   0.00000   0.00158   0.00158   2.05700
   R10        2.05207   0.00364   0.00000   0.00141   0.00141   2.05348
   R11        2.03776   0.00606   0.00000   0.00320   0.00320   2.04096
   R12        2.78191   0.00828   0.00000   0.00402   0.00404   2.78595
   R13        2.58401   0.04227   0.00000   0.01374   0.01374   2.59776
   R14        2.06313   0.00213   0.00000   0.00108   0.00108   2.06420
   R15        2.06183   0.00232   0.00000   0.00073   0.00073   2.06256
   R16        2.58782   0.00152   0.00000   0.00222   0.00224   2.59005
   R17        2.57954   0.00464   0.00000   0.00612   0.00618   2.58573
   R18        2.27897  -0.02489   0.00000  -0.00533  -0.00533   2.27364
   R19        2.27837  -0.02297   0.00000  -0.00612  -0.00612   2.27225
   R20        2.07156   0.00261   0.00000   0.00115   0.00115   2.07271
   R21        2.07346   0.00347   0.00000   0.00132   0.00132   2.07479
   R22        2.07098   0.00165   0.00000   0.00086   0.00086   2.07184
    A1        1.72532  -0.00504   0.00000   0.00691   0.00695   1.73227
    A2        1.51329  -0.00329   0.00000   0.00190   0.00188   1.51516
    A3        1.92689   0.00103   0.00000  -0.02254  -0.02253   1.90436
    A4        2.05269  -0.00050   0.00000  -0.00006  -0.00009   2.05259
    A5        2.08727   0.00410   0.00000   0.00698   0.00697   2.09424
    A6        2.02073  -0.00013   0.00000   0.00003  -0.00004   2.02069
    A7        1.89568   0.00147   0.00000   0.02585   0.02585   1.92153
    A8        1.58315  -0.00030   0.00000  -0.00322  -0.00331   1.57984
    A9        1.71153  -0.00601   0.00000  -0.03173  -0.03165   1.67988
   A10        2.19169  -0.00049   0.00000  -0.00087  -0.00091   2.19078
   A11        1.85591   0.00290   0.00000   0.00330   0.00346   1.85937
   A12        2.11231  -0.00018   0.00000   0.00119   0.00103   2.11334
   A13        2.08369   0.00052   0.00000   0.00151   0.00137   2.08506
   A14        2.12231   0.00068   0.00000   0.00017   0.00003   2.12234
   A15        2.06522  -0.00130   0.00000  -0.00618  -0.00632   2.05890
   A16        2.23968  -0.00059   0.00000  -0.00359  -0.00367   2.23601
   A17        1.87105   0.00181   0.00000   0.00157   0.00125   1.87231
   A18        2.14733  -0.00133   0.00000  -0.00464  -0.00471   2.14262
   A19        2.17391  -0.00216   0.00000  -0.00498  -0.00501   2.16890
   A20        2.04749  -0.00001   0.00000   0.00337   0.00334   2.05082
   A21        2.05721   0.00189   0.00000   0.00032   0.00029   2.05750
   A22        2.17711  -0.00213   0.00000  -0.00768  -0.00771   2.16940
   A23        2.03070   0.00156   0.00000   0.00697   0.00693   2.03763
   A24        2.06992   0.00030   0.00000  -0.00078  -0.00081   2.06911
   A25        1.93954  -0.01014   0.00000  -0.00174  -0.00181   1.93773
   A26        1.87727   0.00309   0.00000  -0.00073  -0.00091   1.87637
   A27        2.22516   0.01063   0.00000   0.01044   0.01050   2.23566
   A28        2.18054  -0.01370   0.00000  -0.00949  -0.00943   2.17111
   A29        1.87291   0.00256   0.00000  -0.00059  -0.00064   1.87227
   A30        2.22588   0.01267   0.00000   0.01258   0.01259   2.23847
   A31        2.18432  -0.01524   0.00000  -0.01189  -0.01188   2.17244
   A32        1.92922   0.00329   0.00000   0.00074   0.00073   1.92996
[...]
    12   1    -0.10   0.25   0.32    -0.02   0.03   0.06    -0.01   0.01  -0.12
    13   1    -0.21   0.20   0.32    -0.00  -0.02   0.08     0.01  -0.00  -0.11
    14   8     0.01  -0.01  -0.01     0.00  -0.00  -0.00    -0.00   0.00   0.00
    15   6     0.01   0.01  -0.03    -0.00  -0.00  -0.00     0.00   0.00   0.01
    16   6    -0.01   0.00  -0.02    -0.00  -0.00  -0.01    -0.00  -0.00   0.00
    17   8     0.02   0.03   0.03     0.00   0.01   0.00    -0.01  -0.01  -0.01
    18   8    -0.04  -0.00   0.02    -0.01   0.00   0.00     0.01  -0.00  -0.00
    19   6     0.02   0.01  -0.00     0.02   0.01  -0.01     0.05   0.03  -0.02
    20   1    -0.01  -0.08  -0.07     0.10   0.03   0.00     0.16   0.00  -0.03
    21   1     0.04   0.04   0.01     0.02   0.00  -0.05     0.05   0.04  -0.08
    22   1    -0.05  -0.08   0.07    -0.07  -0.01   0.01    -0.13  -0.06   0.05
                     49                     50                     51
                      A                      A                      A
 Frequencies --   1911.5727              1969.0053              3042.9841
 Red. masses --     12.9296                12.7484                 1.0394
 Frc consts  --     27.8367                29.1205                 5.6708
 IR Inten    --      0.0000                 0.0000                 0.0000
  Atom  AN      X      Y      Z        X      Y      Z        X      Y      Z
     1   6     0.01  -0.00   0.00    -0.01  -0.00   0.00     0.00   0.00  -0.00
     2   6    -0.03  -0.04  -0.03     0.02   0.03   0.02     0.00  -0.00   0.00
     3   6    -0.00   0.01  -0.01    -0.00   0.01   0.00     0.00  -0.00   0.00
     4   6    -0.05  -0.01   0.02    -0.05   0.00   0.02    -0.00  -0.00   0.00
     5   6    -0.00  -0.00  -0.00     0.00   0.00  -0.00     0.00   0.00  -0.00
     6   6     0.00   0.00   0.00    -0.00  -0.00  -0.00    -0.00  -0.00  -0.00
     7   1     0.01  -0.03  -0.00     0.02  -0.03  -0.00     0.00   0.00   0.00
     8   1    -0.00  -0.02  -0.00    -0.01  -0.01  -0.00    -0.00   0.00   0.00
     9   1     0.01  -0.01   0.00     0.01   0.00   0.00    -0.00  -0.00   0.00
    10   1    -0.00   0.01  -0.00    -0.01  -0.01   0.00    -0.00  -0.00  -0.00
    11   1    -0.02   0.01   0.00     0.02  -0.00  -0.00     0.00   0.00   0.01
    12   1     0.06   0.07   0.04    -0.06  -0.07  -0.03    -0.00   0.00   0.00
    13   1     0.08   0.01  -0.03     0.12   0.01  -0.03    -0.00  -0.00  -0.00
    14   8    -0.00  -0.00  -0.00    -0.01   0.01   0.02     0.00   0.00   0.00
    15   6     0.36   0.46   0.27    -0.33  -0.37  -0.19    -0.00   0.00   0.00
    16   6     0.49   0.06  -0.14     0.62   0.12  -0.14     0.00  -0.00  -0.00
    17   8    -0.26  -0.30  -0.15     0.20   0.22   0.11     0.00  -0.00  -0.00
    18   8    -0.33  -0.06   0.07    -0.39  -0.07   0.08    -0.00   0.00   0.00
    19   6     0.00  -0.00   0.00     0.00   0.00  -0.00    -0.05  -0.01   0.00
    20   1    -0.00   0.01   0.01     0.00  -0.00  -0.00     0.02   0.26  -0.41
    21   1    -0.02  -0.02  -0.01     0.02   0.02   0.01     0.60  -0.44   0.03
    22   1    -0.04   0.02  -0.01     0.02  -0.01   0.01    -0.00   0.28   0.35
                     52                     53                     54
                      A                      A                      A
 Frequencies --   3129.0043              3154.3513              3162.6436
 Red. masses --      1.0986                 1.0588                 1.0993
 Frc consts  --      6.3370                 6.2070                 6.4784
 IR Inten    --      0.0000                 0.0000                 0.0000
  Atom  AN      X      Y      Z        X      Y      Z        X      Y      Z
     1   6    -0.00  -0.00  -0.00    -0.00  -0.01  -0.01     0.01   0.02   0.03
     2   6    -0.00  -0.00   0.00    -0.00   0.00  -0.00     0.00  -0.00  -0.00
     3   6    -0.00  -0.00  -0.00    -0.02  -0.03  -0.05    -0.00  -0.00  -0.01
     4   6    -0.00   0.00  -0.00     0.00   0.00   0.00     0.00   0.00   0.00
     5   6     0.00   0.00   0.00     0.00   0.00   0.00    -0.00  -0.00  -0.01
     6   6    -0.00  -0.00  -0.00     0.01   0.00  -0.00    -0.00   0.00   0.00
     7   1     0.00   0.00  -0.00     0.62   0.23  -0.04     0.09   0.03  -0.01
     8   1    -0.00   0.00   0.00    -0.37   0.15   0.60    -0.05   0.02   0.08
     9   1    -0.00  -0.00   0.00    -0.04  -0.01   0.07     0.02   0.00  -0.04
    10   1    -0.00  -0.00  -0.00    -0.00  -0.00  -0.01     0.05   0.05   0.13
    11   1     0.00   0.00   0.01     0.03   0.07   0.12    -0.09  -0.24  -0.40
    12   1     0.00  -0.00   0.00    -0.00  -0.00   0.00    -0.01  -0.00   0.01
    13   1     0.00   0.00   0.00    -0.01  -0.01  -0.02    -0.00  -0.00  -0.00
    14   8    -0.00  -0.00   0.00     0.00   0.00   0.00     0.00   0.00  -0.00
    15   6     0.00   0.00   0.00    -0.00  -0.00   0.00     0.00  -0.00   0.00
    16   6     0.00   0.00   0.00     0.00   0.00  -0.00    -0.00  -0.00  -0.00
    17   8    -0.00  -0.00  -0.00    -0.00   0.00  -0.00     0.00  -0.00   0.00
    18   8    -0.00   0.00  -0.00    -0.00   0.00   0.00     0.00   0.00  -0.00
    19   6    -0.04   0.08  -0.03    -0.00   0.00   0.01     0.01  -0.02  -0.08
    20   1    -0.05  -0.38   0.60     0.00   0.02  -0.03    -0.02  -0.24   0.36
    21   1     0.51  -0.37   0.02     0.00  -0.00   0.00    -0.11   0.08  -0.02
    22   1    -0.01  -0.18  -0.25    -0.00  -0.04  -0.04     0.01   0.45   0.56
                     55                     56                     57
                      A                      A                      A
 Frequencies --   3169.8882              3178.9410              3189.4212
 Red. masses --      1.0909                 1.0899                 1.0941
 Frc consts  --      6.4586                 6.4892                 6.5575
 IR Inten    --      0.0000                 0.0000                 0.0000
  Atom  AN      X      Y      Z        X      Y      Z        X      Y      Z
     1   6     0.00   0.01   0.02    -0.01  -0.04  -0.06    -0.00  -0.00  -0.00
     2   6     0.00   0.00  -0.00    -0.00  -0.00   0.00    -0.00  -0.00   0.00
     3   6     0.00  -0.00  -0.01     0.01   0.00   0.00    -0.00   0.00   0.01
     4   6     0.00   0.00   0.00    -0.00  -0.00  -0.00    -0.00  -0.00  -0.00
     5   6    -0.02  -0.03  -0.06    -0.01  -0.01  -0.02    -0.02  -0.01  -0.03
     6   6    -0.01  -0.00   0.03    -0.01  -0.00   0.02     0.04   0.01  -0.07
     7   1     0.01   0.00  -0.00    -0.08  -0.03   0.01     0.01   0.01  -0.00
     8   1    -0.03   0.01   0.05     0.01  -0.00  -0.02     0.06  -0.03  -0.10
     9   1     0.18   0.02  -0.32     0.11   0.01  -0.19    -0.43  -0.06   0.78
    10   1     0.28   0.31   0.74     0.09   0.10   0.25     0.14   0.15   0.36
    11   1    -0.05  -0.12  -0.19     0.16   0.42   0.70     0.01   0.04   0.06
    12   1    -0.00  -0.00   0.00     0.02   0.01  -0.02     0.00   0.00  -0.00
    13   1    -0.00  -0.00  -0.00     0.00   0.00   0.01     0.00   0.00   0.00
    14   8     0.00   0.00   0.00     0.00   0.00   0.00     0.00  -0.00   0.00
    15   6    -0.00  -0.00  -0.00    -0.00  -0.00  -0.00     0.00  -0.00  -0.00
    16   6    -0.00  -0.00   0.00     0.00  -0.00  -0.00     0.00  -0.00  -0.00
    17   8     0.00   0.00   0.00     0.00   0.00   0.00     0.00   0.00   0.00
    18   8     0.00   0.00  -0.00     0.00   0.00  -0.00    -0.00   0.00   0.00
    19   6    -0.00   0.01   0.03     0.01  -0.01  -0.04     0.00  -0.00  -0.00
    20   1     0.01   0.08  -0.12    -0.01  -0.11   0.17    -0.00  -0.01   0.01
    21   1     0.05  -0.03   0.01    -0.06   0.04  -0.01    -0.00   0.00  -0.00
    22   1    -0.00  -0.15  -0.19     0.01   0.22   0.26     0.00   0.01   0.02
                     58                     59                     60
                      A                      A                      A
 Frequencies --   3242.7587              3255.0667              3260.7110
 Red. masses --      1.0906                 1.1162                 1.1015
 Frc consts  --      6.7571                 6.9680                 6.9001
 IR Inten    --      0.0000                 0.0000                 0.0000
  Atom  AN      X      Y      Z        X      Y      Z        X      Y      Z
     1   6     0.00   0.00   0.00    -0.00  -0.00  -0.00    -0.00  -0.00  -0.00
     2   6    -0.02  -0.01   0.03     0.01   0.00  -0.01     0.05   0.02  -0.06
     3   6    -0.01  -0.00   0.00    -0.08  -0.01   0.05     0.01   0.00  -0.01
     4   6    -0.03  -0.03  -0.06     0.00   0.00   0.00    -0.02  -0.02  -0.04
     5   6     0.00   0.00  -0.00     0.00   0.00   0.00     0.00   0.00  -0.00
     6   6    -0.00  -0.00   0.00    -0.00  -0.00   0.01     0.00  -0.00  -0.00
     7   1     0.10   0.04  -0.01     0.67   0.26  -0.03    -0.08  -0.03   0.00
     8   1     0.03  -0.01  -0.05     0.33  -0.14  -0.55    -0.05   0.02   0.08
     9   1     0.01   0.00  -0.01     0.05   0.01  -0.09    -0.01  -0.00   0.01
    10   1    -0.00  -0.00  -0.00    -0.00   0.00   0.00     0.00   0.00   0.00
    11   1    -0.00  -0.01  -0.01     0.01   0.02   0.03     0.00   0.01   0.01
    12   1     0.31   0.09  -0.37    -0.11  -0.03   0.13    -0.54  -0.16   0.64
    13   1     0.34   0.35   0.70    -0.02  -0.02  -0.03     0.20   0.21   0.41
    14   8     0.00   0.00   0.00    -0.00   0.00   0.00    -0.00   0.00   0.00
    15   6    -0.00  -0.00  -0.00     0.00   0.00   0.00     0.00   0.00   0.00
    16   6    -0.00   0.00   0.00    -0.00  -0.00   0.00    -0.00   0.00   0.00
    17   8    -0.00   0.00   0.00    -0.00  -0.00  -0.00    -0.00  -0.00  -0.00
    18   8     0.00   0.00  -0.00     0.00   0.00  -0.00     0.00   0.00  -0.00
    19   6    -0.00  -0.00   0.00     0.00  -0.00  -0.00     0.00  -0.00  -0.00
    20   1     0.00   0.00  -0.00    -0.00  -0.00   0.00    -0.00  -0.00   0.00
    21   1     0.00   0.00  -0.00    -0.00   0.00   0.00    -0.00  -0.00   0.00
    22   1    -0.00  -0.00  -0.00    -0.00   0.00   0.00     0.00   0.00   0.00

 -------------------
 - Thermochemistry -
 -------------------
 Temperature   298.150 Kelvin.  Pressure   1.00000 Atm.
 Atom     1 has atomic number  6 and mass  12.00000
 Atom     2 has atomic number  6 and mass  12.00000
 Atom     3 has atomic number  6 and mass  12.00000
 Atom     4 has atomic number  6 and mass  12.00000
 Atom     5 has atomic number  6 and mass  12.00000
 Atom     6 has atomic number  6 and mass  12.00000
 Atom     7 has atomic number  1 and mass   1.00783
 Atom     8 has atomic number  1 and mass   1.00783
 Atom     9 has atomic number  1 and mass   1.00783
 Atom    10 has atomic number  1 and mass   1.00783
 Atom    11 has atomic number  1 and mass   1.00783
 Atom    12 has atomic number  1 and mass   1.00783
 Atom    13 has atomic number  1 and mass   1.00783
 Atom    14 has atomic number  8 and mass  15.99491
 Atom    15 has atomic number  6 and mass  12.00000
 Atom    16 has atomic number  6 and mass  12.00000
 Atom    17 has atomic number  8 and mass  15.99491
 Atom    18 has atomic number  8 and mass  15.99491
 Atom    19 has atomic number  6 and mass  12.00000
 Atom    20 has atomic number  1 and mass   1.00783
 Atom    21 has atomic number  1 and mass   1.00783
 Atom    22 has atomic number  1 and mass   1.00783
 Molecular mass:   166.06299 amu.
 Principal axes and moments of inertia in atomic units:
                           1         2         3
     Eigenvalues --  1294.752691943.322922629.60982
           X            0.99949   0.03196  -0.00253
           Y           -0.03196   0.99948  -0.00306
           Z            0.00243   0.00313   0.99999
 This molecule is an asymmetric top.
 Rotational symmetry number  1.
 Warning -- assumption of classical behavior for rotation
           may cause significant error
 Rotational temperatures (Kelvin)      0.06690     0.04457     0.03294
 Rotational constants (GHZ):           1.39389     0.92869     0.68632
    3 imaginary frequencies ignored.
 Zero-point vibrational energy     439633.6 (Joules/Mol)
                                  105.07496 (Kcal/Mol)
 Warning -- explicit consideration of  14 degrees of freedom as
           vibrations may cause significant error
 Vibrational temperatures:    117.88   150.37   160.35   182.88   273.40
          (Kelvin)            365.71   414.47   534.13   545.48   564.65
                              633.90   818.00   825.04   889.74   970.21
                              997.73  1008.46  1038.52  1065.92  1145.60
                             1235.25  1256.32  1277.87  1319.55  1340.55
                             1361.87  1370.22  1400.68  1419.45  1434.79
                             1502.97  1536.55  1635.34  1759.18  1793.98
                             1815.56  1827.66  1843.33  1902.58  1981.52
                             2006.06  2028.35  2102.13  2268.91  2312.50
                             2750.33  2832.96  4378.18  4501.94  4538.41
                             4550.34  4560.76  4573.79  4588.87  4665.61
                             4683.31  4691.44
 
 Zero-point correction=                           0.167448 (Hartree/Particle)
 Thermal correction to Energy=                    0.177737
 Thermal correction to Enthalpy=                  0.178681
 Thermal correction to Gibbs Free Energy=         0.131570
 Sum of electronic and zero-point Energies=           -573.806241
 Sum of electronic and thermal Energies=              -573.795951
 Sum of electronic and thermal Enthalpies=            -573.795007
 Sum of electronic and thermal Free Energies=         -573.842118
 
                     E (Thermal)             CV                S
                      KCal/Mol        Cal/Mol-Kelvin    Cal/Mol-Kelvin
 Total                  111.532             39.913             99.154
 Electronic               0.000              0.000              0.000
 Translational            0.889              2.981             41.230
 Rotational               0.889              2.981             30.271
 Vibrational            109.754             33.952             27.653
 Vibration     1          0.600              1.962              3.844
 Vibration     2          0.605              1.946              3.368
 Vibration     3          0.607              1.940              3.244
 Vibration     4          0.611              1.926              2.989
 Vibration     5          0.633              1.854              2.228
 Vibration     6          0.665              1.756              1.701
 Vibration     7          0.685              1.696              1.485
 Vibration     8          0.743              1.531              1.075
 Vibration     9          0.749              1.515              1.043
 Vibration    10          0.760              1.486              0.991
 Vibration    11          0.800              1.382              0.825
 Vibration    12          0.925              1.099              0.507
 Vibration    13          0.930              1.089              0.498
 Vibration    14          0.978              0.993              0.419
                       Q            Log10(Q)             Ln(Q)
 Total Bot       0.303400D-60        -60.517984       -139.347807
 Total V=0       0.318052D+17         16.502498         37.998405
 Vib (Bot)       0.391738D-74        -74.407004       -171.328458
 Vib (Bot)    1  0.251278D+01          0.400155          0.921391
 Vib (Bot)    2  0.196188D+01          0.292673          0.673905
 Vib (Bot)    3  0.183716D+01          0.264148          0.608223
 Vib (Bot)    4  0.160503D+01          0.205484          0.473145
 Vib (Bot)    5  0.105325D+01          0.022530          0.051878
 Vib (Bot)    6  0.766310D+00         -0.115595         -0.266168
 Vib (Bot)    7  0.664538D+00         -0.177480         -0.408664
 Vib (Bot)    8  0.489996D+00         -0.309807         -0.713357
 Vib (Bot)    9  0.477184D+00         -0.321314         -0.739852
 Vib (Bot)   10  0.456656D+00         -0.340411         -0.783825
 Vib (Bot)   11  0.392186D+00         -0.406508         -0.936020
 Vib (Bot)   12  0.271092D+00         -0.566883         -1.305295
 Vib (Bot)   13  0.267484D+00         -0.572702         -1.318694
 Vib (Bot)   14  0.236879D+00         -0.625474         -1.440207
 Vib (V=0)       0.410655D+03          2.613477          6.017754
 Vib (V=0)    1  0.306205D+01          0.486012          1.119084
 Vib (V=0)    2  0.252460D+01          0.402192          0.926081
 Vib (V=0)    3  0.240399D+01          0.380932          0.877129
 Vib (V=0)    4  0.218111D+01          0.338678          0.779835
 Vib (V=0)    5  0.166590D+01          0.221650          0.510367
 Vib (V=0)    6  0.141500D+01          0.150758          0.347132
 Vib (V=0)    7  0.133163D+01          0.124384          0.286405
 Vib (V=0)    8  0.120007D+01          0.079206          0.182379
 Vib (V=0)    9  0.119116D+01          0.075971          0.174929
 Vib (V=0)   10  0.117715D+01          0.070833          0.163098
 Vib (V=0)   11  0.113546D+01          0.055172          0.127038
 Vib (V=0)   12  0.106876D+01          0.028881          0.066502
 Vib (V=0)   13  0.106705D+01          0.028186          0.064900
 Vib (V=0)   14  0.105327D+01          0.022541          0.051903
 Electronic      0.100000D+01          0.000000          0.000000
 Translational   0.841130D+08          7.924863         18.247672
 Rotational      0.920783D+06          5.964157         13.732979
 ***** Axes restored to original set *****
 -------------------------------------------------------------------
 Center     Atomic                   Forces (Hartrees/Bohr)
 Number     Number              X              Y              Z
 -------------------------------------------------------------------
      1        6          -0.000201531   -0.000178816    0.000653938
      2        6          -0.000136006    0.000011618   -0.000107557
      3        6          -0.000153675    0.000531523    0.000529383
      4        6          -0.000504990   -0.000105307   -0.000122737
      5        6           0.000225259   -0.000449240   -0.000473963
      6        6           0.000302941   -0.000545852   -0.000062505
      7        1           0.000004179   -0.000006075    0.000414341
      8        1          -0.000152452   -0.000234135    0.000095848
      9        1           0.000223531    0.000141688    0.000260894
     10        1           0.000209470    0.000158713   -0.000086939
     11        1           0.000017310    0.000551135   -0.000349339
     12        1           0.000179809   -0.000637683   -0.000120679
     13        1          -0.000066697    0.000757725   -0.000275907
     14        8          -0.000733941   -0.000247077   -0.000283874
     15        6           0.001352378   -0.000194220   -0.000463614
     16        6           0.000516232   -0.000118685    0.001350405
     17        8          -0.000737152    0.000280227    0.000813151
     18        8          -0.000167236    0.000172096   -0.001609236
     19        6          -0.000058025    0.000112029    0.000467627
     20        1          -0.000191461    0.000021211   -0.000204712
     21        1           0.000010112   -0.000002190   -0.000281965
     22        1           0.000061946   -0.000018683   -0.000142559
 -------------------------------------------------------------------
 Cartesian Forces:  Max     0.001609236 RMS     0.000452116


 YE HAVE SOWN MUCH, AND BRING IN LITTLE.
 YE EAT, BUT YE HAVE NOT ENOUGH.
 YE DRINK, BUT YE ARE NOT FILLED WITH DRINK.
 YE CLOTHE YOU, BUT THERE IS NONE WARM.
 AND HE THAT EARNETH WAGES EARNETH WAGES TO PUT
 IT INTO A BAG WITH HOLES.
                                     HAGGAI I,6
 Error termination request processed by link 9999.
 Error termination via Lnk1e in /apps/gaussian/g16/C.01/g16/l9999.exe at Thu Jan 18 15:12:37 2024.
 Job cpu time:       1 days  4 hours 42 minutes 44.3 seconds.
 Elapsed time:       0 days  4 hours 11 minutes 22.7 seconds.
 File lengths (MBytes):  RWF=      6 Int=      0 D2E=      0 Chk=      2 Scr=      1
