Unloading slurm/anatra/current
  ERROR: No such file or directory on
    '/cm/local/modulefiles/slurm/anatra/current'
environment: line 0: unalias: gv: not found
environment: line 0: unalias: sl: not found
 Entering Gaussian System, Link 0=g16
 Initial command:
 /apps/gaussian/g16/C.01/g16/l1.exe "/local/jobs/1158157/Gau-134147.inp" -scrdir="/local/jobs/1158157/"
 Entering Link 1 = /apps/gaussian/g16/C.01/g16/l1.exe PID=    134148.
  
 Copyright (c) 1988-2019, Gaussian, Inc.  All Rights Reserved.
  
 This is part of the Gaussian(R) 16 program.  It is based on
 the Gaussian(R) 09 system (copyright 2009, Gaussian, Inc.),
 the Gaussian(R) 03 system (copyright 2003, Gaussian, Inc.),
 the Gaussian(R) 98 system (copyright 1998, Gaussian, Inc.),
 the Gaussian(R) 94 system (copyright 1995, Gaussian, Inc.),
 the Gaussian 92(TM) system (copyright 1992, Gaussian, Inc.),
 the Gaussian 90(TM) system (copyright 1990, Gaussian, Inc.),
 the Gaussian 88(TM) system (copyright 1988, Gaussian, Inc.),
 the Gaussian 86(TM) system (copyright 1986, Carnegie Mellon
 University), and the Gaussian 82(TM) system (copyright 1983,
 Carnegie Mellon University). Gaussian is a federally registered
 trademark of Gaussian, Inc.
  
 This software contains proprietary and confidential information,
 including trade secrets, belonging to Gaussian, Inc.
  
 This software is provided under written license and may be
 used, copied, transmitted, or stored only in accord with that
 written license.
  
 The following legend is applicable only to US Government
 contracts under FAR:
  
                    RESTRICTED RIGHTS LEGEND
  
 Use, reproduction and disclosure by the US Government is
 subject to restrictions as set forth in subparagraphs (a)
 and (c) of the Commercial Computer Software - Restricted
 Rights clause in FAR 52.227-19.
  
 Gaussian, Inc.
 340 Quinnipiac St., Bldg. 40, Wallingford CT 06492
  
  
 ---------------------------------------------------------------
 Warning -- This program may not be used in any manner that
 competes with the business of Gaussian, Inc. or will provide
 assistance to any competitor of Gaussian, Inc.  The licensee
 of this program is prohibited from giving any competitor of
 Gaussian, Inc. access to this program.  By using this program,
 the user acknowledges that Gaussian, Inc. is engaged in the
 business of creating and licensing software in the field of
 computational chemistry and represents and warrants to the
 licensee that it is not a competitor of Gaussian, Inc. and that
 it will not use this program in any manner prohibited above.
 ---------------------------------------------------------------
  

 Cite this work as:
 Gaussian 16, Revision C.01,
 M. J. Frisch, G. W. Trucks, H. B. Schlegel, G. E. Scuseria, 
 M. A. Robb, J. R. Cheeseman, G. Scalmani, V. Barone, 
 G. A. Petersson, H. Nakatsuji, X. Li, M. Caricato, A. V. Marenich, 
 J. Bloino, B. G. Janesko, R. Gomperts, B. Mennucci, H. P. Hratchian, 
 J. V. Ortiz, A. F. Izmaylov, J. L. Sonnenberg, D. Williams-Young, 
 F. Ding, F. Lipparini, F. Egidi, J. Goings, B. Peng, A. Petrone, 
 T. Henderson, D. Ranasinghe, V. G. Zakrzewski, J. Gao, N. Rega, 
 G. Zheng, W. Liang, M. Hada, M. Ehara, K. Toyota, R. Fukuda, 
 J. Hasegawa, M. Ishida, T. Nakajima, Y. Honda, O. Kitao, H. Nakai, 
 T. Vreven, K. Throssell, J. A. Montgomery, Jr., J. E. Peralta, 
 F. Ogliaro, M. J. Bearpark, J. J. Heyd, E. N. Brothers, K. N. Kudin, 
 V. N. Staroverov, T. A. Keith, R. Kobayashi, J. Normand, 
 K. Raghavachari, A. P. Rendell, J. C. Burant, S. S. Iyengar, 
 J. Tomasi, M. Cossi, J. M. Millam, M. Klene, C. Adamo, R. Cammi, 
 J. W. Ochterski, R. L. Martin, K. Morokuma, O. Farkas, 
 J. B. Foresman, and D. J. Fox, Gaussian, Inc., Wallingford CT, 2019.
 
 ******************************************
 Gaussian 16:  ES64L-G16RevC.01  3-Jul-2019
                18-Jan-2024 
 ******************************************
 %nprocshared=12
 Will use up to   12 processors via shared memory.
 %mem=48GB
 ----------------------------------------------------------------------
 # external="~/scripts/MiMe -H 'pbepbe def2svp' -EF 'wb97xd def2svp' -c
  12 -m 48GB" opt=(calcall,ts,noeigen,maxcycles=50,maxstep=10,nomicro)
 ----------------------------------------------------------------------
 1/5=1,6=50,8=10,10=4,11=1,18=20,26=1,38=1/1,3;
 2/9=110,12=2,17=6,18=5,40=1/2;
 3/11=9,25=1,30=1,41=9900000,43=2,71=2,140=1/1;
 4/20=17,22=2,24=3,113=1,114=1/2;
 6/7=2,8=2,9=2,10=2,18=1/1;
 7/25=1,44=-1/16;
 1/5=1,6=50,8=10,10=4,11=1,18=20,26=1/3(3);
 2/9=110/2;
 7/8=1,9=1,25=1,44=-1/16;
 99//99;
 2/9=110/2;
 3/11=9,25=1,30=1,41=9900000,43=2,71=2,140=1/1;
 4/16=2,20=17,22=2,24=3,113=1,114=1/2;
 7/25=1,44=-1/16;
 1/5=1,6=50,8=10,10=4,11=1,18=20,26=1/3(-4);
 2/9=110/2;
 6/7=2,8=2,9=2,10=2,18=1/1;
 7/8=1,9=1,25=1,44=-1/16;
 99//99;
 -----
 *****
 -----
 Symbolic Z-matrix:
 Charge =  0 Multiplicity = 1
 C                    -0.2575   -1.9445    0.4924 
 C                     0.3286   -0.0889   -0.7909 
 C                    -2.0352   -0.7041    0.0388 
 C                    -1.115     0.3285   -0.9316 
 C                    -1.0356   -2.7139   -0.451 
 C                    -2.1494   -2.0106   -0.6995 
 H                    -2.9264   -2.2819   -1.3967 
 C                    -3.2574    0.1226    0.3831 
 H                    -3.9683    0.1197   -0.4524 
 H                    -3.7878   -0.245     1.2681 
 C                    -2.7195    1.5396    0.6015 
 H                    -3.4906    2.2903    0.4124 
 H                    -2.3119    1.6634    1.6093 
 C                    -1.5872    1.6666   -0.3986 
 O                    -1.1174    2.7394   -0.7623 
 H                    -0.7421   -3.6634   -0.8684 
 H                    -1.4561    0.2362   -1.9699 
 H                     0.7903   -0.6172   -1.6179 
 C                     1.2158    0.5654    0.1836 
 O                     0.8153    1.1752    1.1624 
 N                    -1.1786   -1.0708    1.1797 
 H                    -0.739    -0.2942    1.6798 
 H                     0.6718   -2.2973    0.9293 
 Br                    3.0542    0.2998    0.0066 
 

 GradGradGradGradGradGradGradGradGradGradGradGradGradGradGradGradGradGrad
 Berny optimization.
 Initialization pass.
                           ----------------------------
                           !    Initial Parameters    !
                           ! (Angstroms and Degrees)  !
 --------------------------                            --------------------------
 ! Name  Definition              Value          Derivative Info.                !
 --------------------------------------------------------------------------------
 ! R1    R(1,5)                  1.4448         calculate D2E/DX2 analytically  !
 ! R2    R(1,21)                 1.4437         calculate D2E/DX2 analytically  !
 ! R3    R(1,23)                 1.0858         calculate D2E/DX2 analytically  !
 ! R4    R(2,4)                  1.5093         calculate D2E/DX2 analytically  !
 ! R5    R(2,18)                 1.0845         calculate D2E/DX2 analytically  !
 ! R6    R(2,19)                 1.4714         calculate D2E/DX2 analytically  !
 ! R7    R(3,4)                  1.6896         calculate D2E/DX2 analytically  !
 ! R8    R(3,6)                  1.505          calculate D2E/DX2 analytically  !
 ! R9    R(3,8)                  1.5152         calculate D2E/DX2 analytically  !
 ! R10   R(3,21)                 1.4731         calculate D2E/DX2 analytically  !
 ! R11   R(4,14)                 1.5158         calculate D2E/DX2 analytically  !
 ! R12   R(4,17)                 1.0968         calculate D2E/DX2 analytically  !
 ! R13   R(5,6)                  1.3405         calculate D2E/DX2 analytically  !
 ! R14   R(5,16)                 1.0779         calculate D2E/DX2 analytically  !
 ! R15   R(6,7)                  1.0786         calculate D2E/DX2 analytically  !
 ! R16   R(8,9)                  1.097          calculate D2E/DX2 analytically  !
 ! R17   R(8,10)                 1.0953         calculate D2E/DX2 analytically  !
 ! R18   R(8,11)                 1.5313         calculate D2E/DX2 analytically  !
 ! R19   R(11,12)                1.0927         calculate D2E/DX2 analytically  !
 ! R20   R(11,13)                1.0941         calculate D2E/DX2 analytically  !
 ! R21   R(11,14)                1.5161         calculate D2E/DX2 analytically  !
 ! R22   R(14,15)                1.2263         calculate D2E/DX2 analytically  !
 ! R23   R(19,20)                1.2208         calculate D2E/DX2 analytically  !
 ! R24   R(19,24)                1.8659         calculate D2E/DX2 analytically  !
 ! R25   R(21,22)                1.023          calculate D2E/DX2 analytically  !
 ! A1    A(5,1,21)             106.8303         calculate D2E/DX2 analytically  !
 ! A2    A(5,1,23)             123.411          calculate D2E/DX2 analytically  !
 ! A3    A(21,1,23)            123.446          calculate D2E/DX2 analytically  !
 ! A4    A(4,2,18)             118.0871         calculate D2E/DX2 analytically  !
 ! A5    A(4,2,19)             121.0305         calculate D2E/DX2 analytically  !
 ! A6    A(18,2,19)            117.7081         calculate D2E/DX2 analytically  !
 ! A7    A(4,3,6)              106.8651         calculate D2E/DX2 analytically  !
 ! A8    A(4,3,8)              103.6727         calculate D2E/DX2 analytically  !
 ! A9    A(4,3,21)             106.2761         calculate D2E/DX2 analytically  !
 ! A10   A(6,3,8)              121.595          calculate D2E/DX2 analytically  !
 ! A11   A(6,3,21)             102.0033         calculate D2E/DX2 analytically  !
 ! A12   A(8,3,21)             115.3978         calculate D2E/DX2 analytically  !
 ! A13   A(2,4,3)              107.3594         calculate D2E/DX2 analytically  !
 ! A14   A(2,4,14)             120.6183         calculate D2E/DX2 analytically  !
 ! A15   A(2,4,17)             111.2501         calculate D2E/DX2 analytically  !
 ! A16   A(3,4,14)              99.6654         calculate D2E/DX2 analytically  !
 ! A17   A(3,4,17)             108.8386         calculate D2E/DX2 analytically  !
 ! A18   A(14,4,17)            108.0768         calculate D2E/DX2 analytically  !
 ! A19   A(1,5,6)              106.8057         calculate D2E/DX2 analytically  !
 ! A20   A(1,5,16)             125.1203         calculate D2E/DX2 analytically  !
 ! A21   A(6,5,16)             128.0684         calculate D2E/DX2 analytically  !
 ! A22   A(3,6,5)              107.5457         calculate D2E/DX2 analytically  !
 ! A23   A(3,6,7)              126.164          calculate D2E/DX2 analytically  !
 ! A24   A(5,6,7)              125.9021         calculate D2E/DX2 analytically  !
 ! A25   A(3,8,9)              110.3785         calculate D2E/DX2 analytically  !
 ! A26   A(3,8,10)             113.0233         calculate D2E/DX2 analytically  !
 ! A27   A(3,8,11)             104.7112         calculate D2E/DX2 analytically  !
 ! A28   A(9,8,10)             107.4987         calculate D2E/DX2 analytically  !
 ! A29   A(9,8,11)             109.7977         calculate D2E/DX2 analytically  !
 ! A30   A(10,8,11)            111.4337         calculate D2E/DX2 analytically  !
 ! A31   A(8,11,12)            111.2954         calculate D2E/DX2 analytically  !
 ! A32   A(8,11,13)            111.5264         calculate D2E/DX2 analytically  !
 ! A33   A(8,11,14)            104.2281         calculate D2E/DX2 analytically  !
 ! A34   A(12,11,13)           110.1556         calculate D2E/DX2 analytically  !
 ! A35   A(12,11,14)           110.8152         calculate D2E/DX2 analytically  !
 ! A36   A(13,11,14)           108.6573         calculate D2E/DX2 analytically  !
 ! A37   A(4,14,11)            112.9969         calculate D2E/DX2 analytically  !
 ! A38   A(4,14,15)            123.2733         calculate D2E/DX2 analytically  !
 ! A39   A(11,14,15)           123.7139         calculate D2E/DX2 analytically  !
 ! A40   A(2,19,20)            123.7344         calculate D2E/DX2 analytically  !
 ! A41   A(2,19,24)            117.9025         calculate D2E/DX2 analytically  !
 ! A42   A(20,19,24)           118.0599         calculate D2E/DX2 analytically  !
 ! A43   A(1,21,3)              98.7979         calculate D2E/DX2 analytically  !
 ! A44   A(1,21,22)            114.7088         calculate D2E/DX2 analytically  !
 ! A45   A(3,21,22)            116.075          calculate D2E/DX2 analytically  !
 ! D1    D(21,1,5,6)            23.0539         calculate D2E/DX2 analytically  !
 ! D2    D(21,1,5,16)         -157.7473         calculate D2E/DX2 analytically  !
 ! D3    D(23,1,5,6)           175.8461         calculate D2E/DX2 analytically  !
 ! D4    D(23,1,5,16)           -4.9552         calculate D2E/DX2 analytically  !
 ! D5    D(5,1,21,3)           -39.4293         calculate D2E/DX2 analytically  !
 ! D6    D(5,1,21,22)         -163.542          calculate D2E/DX2 analytically  !
 ! D7    D(23,1,21,3)          167.7904         calculate D2E/DX2 analytically  !
 ! D8    D(23,1,21,22)          43.6777         calculate D2E/DX2 analytically  !
 ! D9    D(18,2,4,3)           105.9672         calculate D2E/DX2 analytically  !
 ! D10   D(18,2,4,14)         -141.115          calculate D2E/DX2 analytically  !
 ! D11   D(18,2,4,17)          -13.0164         calculate D2E/DX2 analytically  !
 ! D12   D(19,2,4,3)           -94.6272         calculate D2E/DX2 analytically  !
 ! D13   D(19,2,4,14)           18.2907         calculate D2E/DX2 analytically  !
 ! D14   D(19,2,4,17)          146.3893         calculate D2E/DX2 analytically  !
 ! D15   D(4,2,19,20)           21.4039         calculate D2E/DX2 analytically  !
 ! D16   D(4,2,19,24)         -165.0544         calculate D2E/DX2 analytically  !
 ! D17   D(18,2,19,20)        -179.1152         calculate D2E/DX2 analytically  !
 ! D18   D(18,2,19,24)          -5.5735         calculate D2E/DX2 analytically  !
 ! D19   D(6,3,4,2)            -76.816          calculate D2E/DX2 analytically  !
 ! D20   D(6,3,4,14)           156.7037         calculate D2E/DX2 analytically  !
 ! D21   D(6,3,4,17)            43.7068         calculate D2E/DX2 analytically  !
 ! D22   D(8,3,4,2)            153.6026         calculate D2E/DX2 analytically  !
 ! D23   D(8,3,4,14)            27.1224         calculate D2E/DX2 analytically  !
 ! D24   D(8,3,4,17)           -85.8745         calculate D2E/DX2 analytically  !
 ! D25   D(21,3,4,2)            31.5387         calculate D2E/DX2 analytically  !
 ! D26   D(21,3,4,14)          -94.9415         calculate D2E/DX2 analytically  !
 ! D27   D(21,3,4,17)          152.0616         calculate D2E/DX2 analytically  !
 ! D28   D(4,3,6,5)             82.8945         calculate D2E/DX2 analytically  !
 ! D29   D(4,3,6,7)            -90.2677         calculate D2E/DX2 analytically  !
 ! D30   D(8,3,6,5)           -158.6517         calculate D2E/DX2 analytically  !
 ! D31   D(8,3,6,7)             28.1861         calculate D2E/DX2 analytically  !
 ! D32   D(21,3,6,5)           -28.4432         calculate D2E/DX2 analytically  !
 ! D33   D(21,3,6,7)           158.3945         calculate D2E/DX2 analytically  !
 ! D34   D(4,3,8,9)             79.5515         calculate D2E/DX2 analytically  !
 ! D35   D(4,3,8,10)          -160.0256         calculate D2E/DX2 analytically  !
 ! D36   D(4,3,8,11)           -38.5536         calculate D2E/DX2 analytically  !
 ! D37   D(6,3,8,9)            -40.4598         calculate D2E/DX2 analytically  !
 ! D38   D(6,3,8,10)            79.963          calculate D2E/DX2 analytically  !
 ! D39   D(6,3,8,11)          -158.5649         calculate D2E/DX2 analytically  !
 ! D40   D(21,3,8,9)          -164.6758         calculate D2E/DX2 analytically  !
 ! D41   D(21,3,8,10)          -44.2529         calculate D2E/DX2 analytically  !
 ! D42   D(21,3,8,11)           77.2191         calculate D2E/DX2 analytically  !
 ! D43   D(4,3,21,1)           -71.9506         calculate D2E/DX2 analytically  !
 ! D44   D(4,3,21,22)           51.187          calculate D2E/DX2 analytically  !
 ! D45   D(6,3,21,1)            39.8308         calculate D2E/DX2 analytically  !
 ! D46   D(6,3,21,22)          162.9683         calculate D2E/DX2 analytically  !
 ! D47   D(8,3,21,1)           173.7684         calculate D2E/DX2 analytically  !
 ! D48   D(8,3,21,22)          -63.094          calculate D2E/DX2 analytically  !
 ! D49   D(2,4,14,11)         -122.9362         calculate D2E/DX2 analytically  !
 ! D50   D(2,4,14,15)           58.469          calculate D2E/DX2 analytically  !
 ! D51   D(3,4,14,11)           -6.0327         calculate D2E/DX2 analytically  !
 ! D52   D(3,4,14,15)          175.3724         calculate D2E/DX2 analytically  !
 ! D53   D(17,4,14,11)         107.5549         calculate D2E/DX2 analytically  !
 ! D54   D(17,4,14,15)         -71.04           calculate D2E/DX2 analytically  !
 ! D55   D(1,5,6,3)              3.9027         calculate D2E/DX2 analytically  !
 ! D56   D(1,5,6,7)            177.0878         calculate D2E/DX2 analytically  !
 ! D57   D(16,5,6,3)          -175.2648         calculate D2E/DX2 analytically  !
 ! D58   D(16,5,6,7)            -2.0797         calculate D2E/DX2 analytically  !
 ! D59   D(3,8,11,12)          154.3777         calculate D2E/DX2 analytically  !
 ! D60   D(3,8,11,13)          -82.166          calculate D2E/DX2 analytically  !
 ! D61   D(3,8,11,14)           34.8856         calculate D2E/DX2 analytically  !
 ! D62   D(9,8,11,12)           35.8781         calculate D2E/DX2 analytically  !
 ! D63   D(9,8,11,13)          159.3345         calculate D2E/DX2 analytically  !
 ! D64   D(9,8,11,14)          -83.6139         calculate D2E/DX2 analytically  !
 ! D65   D(10,8,11,12)         -83.1103         calculate D2E/DX2 analytically  !
 ! D66   D(10,8,11,13)          40.346          calculate D2E/DX2 analytically  !
 ! D67   D(10,8,11,14)         157.3976         calculate D2E/DX2 analytically  !
 ! D68   D(8,11,14,4)          -16.9278         calculate D2E/DX2 analytically  !
 ! D69   D(8,11,14,15)         161.6599         calculate D2E/DX2 analytically  !
 ! D70   D(12,11,14,4)        -136.7445         calculate D2E/DX2 analytically  !
 ! D71   D(12,11,14,15)         41.8432         calculate D2E/DX2 analytically  !
 ! D72   D(13,11,14,4)         102.0947         calculate D2E/DX2 analytically  !
 ! D73   D(13,11,14,15)        -79.3176         calculate D2E/DX2 analytically  !
 --------------------------------------------------------------------------------
 Trust Radius=1.00D-01 FncErr=1.00D-07 GrdErr=1.00D-07 EigMax=2.50D+02 EigMin=1.00D-04
 Number of steps in this run=     50 maximum allowed number of steps=    144.
 Search for a saddle point of order  1.
 GradGradGradGradGradGradGradGradGradGradGradGradGradGradGradGradGradGrad

                          Input orientation:                          
 ---------------------------------------------------------------------
 Center     Atomic      Atomic             Coordinates (Angstroms)
 Number     Number       Type             X           Y           Z
 ---------------------------------------------------------------------
      1          6           0       -0.257500   -1.944500    0.492400
      2          6           0        0.328600   -0.088900   -0.790900
      3          6           0       -2.035200   -0.704100    0.038800
      4          6           0       -1.115000    0.328500   -0.931600
      5          6           0       -1.035600   -2.713900   -0.451000
      6          6           0       -2.149400   -2.010600   -0.699500
      7          1           0       -2.926400   -2.281900   -1.396700
      8          6           0       -3.257400    0.122600    0.383100
      9          1           0       -3.968300    0.119700   -0.452400
     10          1           0       -3.787800   -0.245000    1.268100
     11          6           0       -2.719500    1.539600    0.601500
     12          1           0       -3.490600    2.290300    0.412400
     13          1           0       -2.311900    1.663400    1.609300
     14          6           0       -1.587200    1.666600   -0.398600
     15          8           0       -1.117400    2.739400   -0.762300
     16          1           0       -0.742100   -3.663400   -0.868400
     17          1           0       -1.456100    0.236200   -1.969900
     18          1           0        0.790300   -0.617200   -1.617900
     19          6           0        1.215800    0.565400    0.183600
     20          8           0        0.815300    1.175200    1.162400
     21          7           0       -1.178600   -1.070800    1.179700
     22          1           0       -0.739000   -0.294200    1.679800
     23          1           0        0.671800   -2.297300    0.929300
     24         35           0        3.054200    0.299800    0.006600
 ---------------------------------------------------------------------
                    Distance matrix (angstroms):
                    1          2          3          4          5
     1  C    0.000000
     2  C    2.331013   0.000000
     3  C    2.214625   2.579617   0.000000
     4  C    2.815957   1.509305   1.689588   0.000000
     5  C    1.444790   2.977784   2.297477   3.081149   0.000000
     6  C    2.237025   3.137159   1.505015   2.568120   1.340498
     7  H    3.287182   3.971306   2.311785   3.211180   2.157799
     8  C    3.644756   3.779207   1.515173   2.522045   3.698358
     9  H    4.350127   4.315257   2.157962   2.900785   4.077992
    10  H    3.994124   4.605279   2.189420   3.508766   4.077423
    11  C    4.267587   3.725816   2.412278   2.528157   4.694203
    12  H    5.328496   4.657769   3.350253   3.361320   5.640435
    13  H    4.299415   3.975394   2.854486   3.109775   5.003452
    14  C    3.949940   2.627921   2.451987   1.515775   4.415404
    15  O    4.924695   3.176636   3.652644   2.416838   5.462790
    16  H    2.245269   3.732219   3.354486   4.009777   1.077922
    17  H    3.500716   2.163535   2.292247   1.096784   3.344692
    18  H    2.704252   1.084526   3.276531   2.235067   3.015247
    19  C    2.926699   1.471354   3.493079   2.594691   4.028067
    20  O    3.366352   2.377016   3.594384   2.971161   4.599347
    21  N    1.443661   2.668154   1.473053   2.533707   2.319355
    22  H    2.089318   2.699310   2.130970   2.710819   3.237781
    23  H    1.085794   2.820267   3.264832   3.681091   2.234726
    24  Br   4.029918   2.866355   5.187566   4.273555   5.100809
                    6          7          8          9         10
     6  C    0.000000
     7  H    1.078620   0.000000
     8  C    2.636329   3.009796   0.000000
     9  H    2.812052   2.782973   1.097018   0.000000
    10  H    3.110168   3.462966   1.095299   1.767967   0.000000
    11  C    3.823812   4.317346   1.531314   2.164792   2.184129
    12  H    4.640353   4.949361   2.180405   2.384865   2.692266
    13  H    4.342262   4.997903   2.184400   3.062234   2.436532
    14  C    3.732078   4.287227   2.405111   2.839970   3.357789
    15  O    4.861221   5.374793   3.569199   3.884134   4.490012
    16  H    2.177331   2.637956   4.714529   4.989315   5.052364
    17  H    2.672581   2.971728   2.965501   2.937265   4.019082
    18  H    3.380364   4.078482   4.575498   4.954360   5.424622
    19  C    4.328997   5.268993   4.499488   5.241950   5.183522
    20  O    4.733438   5.700952   4.278102   5.157954   4.818368
    21  N    2.314534   3.340570   2.525903   3.444338   2.738190
    22  H    3.255200   4.266207   2.863126   3.891782   3.076865
    23  H    3.270223   4.284572   4.646812   5.411239   4.920849
    24  Br   5.737071   6.663483   6.325302   7.039789   6.978621
                   11         12         13         14         15
    11  C    0.000000
    12  H    1.092659   0.000000
    13  H    1.094132   1.793016   0.000000
    14  C    1.516058   2.160938   2.134681   0.000000
    15  O    2.422023   2.685831   2.865151   1.226332   0.000000
    16  H    5.756902   6.681410   6.080959   5.416992   6.414667
    17  H    3.147559   3.746181   3.947147   2.128900   2.799826
    18  H    4.679340   5.558937   5.023903   3.514960   3.954508
    19  C    4.075573   5.017752   3.960163   3.067313   3.326383
    20  O    3.597528   4.510734   3.196473   2.906923   3.144284
    21  N    3.085916   4.151034   2.990782   3.186117   4.277001
    22  H    2.906533   3.982116   2.512207   2.980592   3.912770
    23  H    5.131293   6.216014   5.005198   4.751726   5.606344
    24  Br   5.935202   6.852822   5.763947   4.855401   4.893373
                   16         17         18         19         20
    16  H    0.000000
    17  H    4.114605   0.000000
    18  H    3.491323   2.428685   0.000000
    19  C    4.777324   3.447461   2.196587   0.000000
    20  O    5.473728   3.981492   3.308080   1.220781   0.000000
    21  N    3.332690   3.421291   3.450925   3.066352   3.003407
    22  H    4.224316   3.757109   3.649372   2.607445   2.200611
    23  H    2.664032   4.399084   3.053687   3.007832   3.483272
    24  Br   5.557380   4.924774   2.933451   1.865901   2.667372
                   21         22         23         24
    21  N    0.000000
    22  H    1.022964   0.000000
    23  H    2.234051   2.562424   0.000000
    24  Br   4.601229   4.188174   3.643094   0.000000
 Stoichiometry    C10H10BrNO2
 Framework group  C1[X(C10H10BrNO2)]
 Deg. of freedom    66
 Full point group                 C1      NOp   1
 Largest Abelian subgroup         C1      NOp   1
 Largest concise Abelian subgroup C1      NOp   1
                         Standard orientation:                         
 ---------------------------------------------------------------------
 Center     Atomic      Atomic             Coordinates (Angstroms)
 Number     Number       Type             X           Y           Z
 ---------------------------------------------------------------------
      1          6           0        0.446932    1.980047    0.519236
      2          6           0       -0.283635    0.206262   -0.804993
      3          6           0        2.115130    0.597992    0.059237
      4          6           0        1.119728   -0.332662   -0.939645
      5          6           0        1.299598    2.695819   -0.401661
      6          6           0        2.350805    1.902822   -0.652763
      7          1           0        3.156296    2.118077   -1.337067
      8          6           0        3.256877   -0.338167    0.399487
      9          1           0        3.974763   -0.381967   -0.428866
     10          1           0        3.807153   -0.034363    1.296470
     11          6           0        2.595422   -1.706673    0.585479
     12          1           0        3.300456   -2.518113    0.389529
     13          1           0        2.167209   -1.812853    1.586720
     14          6           0        1.467778   -1.716303   -0.427811
     15          8           0        0.910672   -2.737292   -0.816532
     16          1           0        1.094478    3.674728   -0.803629
     17          1           0        1.479306   -0.251508   -1.972628
     18          1           0       -0.688271    0.787762   -1.626166
     19          6           0       -1.235331   -0.385931    0.148142
     20          8           0       -0.900463   -1.046045    1.118924
     21          7           0        1.280765    1.017048    1.198584
     22          1           0        0.769695    0.272702    1.679430
     23          1           0       -0.453083    2.404428    0.953773
     24         35           0       -3.041567    0.041978   -0.041572
 ---------------------------------------------------------------------
 Rotational constants (GHZ):           0.9200981           0.3747929           0.2995681
 Standard basis: STO-3G (5D, 7F)
 There are    94 symmetry adapted cartesian basis functions of A   symmetry.
 There are    93 symmetry adapted basis functions of A   symmetry.
    93 basis functions,   282 primitive gaussians,    94 cartesian basis functions
    64 alpha electrons       64 beta electrons
       nuclear repulsion energy      1228.8323260561 Hartrees.
 NAtoms=   24 NActive=   24 NUniq=   24 SFac= 1.00D+00 NAtFMM=   60 NAOKFM=F Big=F
 Integral buffers will be    131072 words long.
 Raffenetti 1 integral format.
 Two-electron integral symmetry is turned on.
 External calculation of energy, first and second derivatives.
 Running external command "~/scripts/MiMe -H 'pbepbe def2svp' -EF 'wb97xd def2svp' -c 12 -m 48GB R"
         input file       "/local/jobs/1158157/Gau-134148.EIn"
         output file      "/local/jobs/1158157/Gau-134148.EOu"
         message file     "/local/jobs/1158157/Gau-134148.EMs"
         fchk file        "/local/jobs/1158157/Gau-134148.EFC"
         mat. el file     "/local/jobs/1158157/Gau-134148.EUF"
 Read checkpoint file Gau-134148_H.chk type G16
 Write formatted file Gau-134148_H.fchk

deriv: 2

spelevel: wb97xd def2svp
gradlevel: wb97xd def2svp
hesslevel: pbepbe def2svp

runspe: False
runforce: True
runfreq: True

Running Gaussian ...

Parsing files ...
SPE file: Gau-134148_F.out
FORCE file: Gau-134148_F.out
HESS file: Gau-134148_H.out

 ExternalExternalExternalExternalExternalExternalExternalExternalExternalExternal
 Output from external command:
 "~/scripts/MiMe -H 'pbepbe def2svp' -EF 'wb97xd def2svp' -c 12 -m 48GB R /local/jobs/1158157/Gau-134148.EIn /local/jobs/1158157/Gau-134148.EOu /local/jobs/1158157/Gau-134148.EMs /local/jobs/1158157/Gau-134148.EFC /local/jobs/1158157/Gau-134148.EUF"
  
 --------------------------------------------------
 Force calculation at wb97xd def2svp
 Hessian calculation at pbepbe def2svp
 ExternalExternalExternalExternalExternalExternalExternalExternalExternalExternal

 Recovered energy= -3165.49200118     dipole=      4.078200000000      4.589500000000     -0.817600000000
 Energy=    -3165.49200     NIter=   0.
 Dipole moment=       4.078200       4.589500      -0.817600
 ***** Axes restored to original set *****
 -------------------------------------------------------------------
 Center     Atomic                   Forces (Hartrees/Bohr)
 Number     Number              X              Y              Z
 -------------------------------------------------------------------
      1        6          -0.020418610    0.038342047    0.018370883
      2        6          -0.007955297   -0.005102196    0.006516904
      3        6          -0.004928871   -0.017152736    0.004066932
      4        6           0.018940459   -0.023022672    0.021107038
      5        6           0.008658751    0.007330187    0.005560014
      6        6          -0.000175981    0.018211766    0.007755130
      7        1          -0.007401127    0.001833437   -0.005234286
      8        6           0.000639058    0.005504250    0.007668460
      9        1          -0.000175561   -0.001635434   -0.003139095
     10        1          -0.000168921   -0.004801504    0.000376207
     11        6          -0.005569663   -0.011659667   -0.012574993
     12        1           0.001755111    0.006989657    0.002741257
     13        1           0.001800005    0.003010236    0.003881241
     14        6           0.024151924    0.053819080   -0.009204346
     15        8          -0.016341428   -0.034847281    0.009179338
     16        1           0.003806040   -0.005508730   -0.004671157
     17        1          -0.000395855   -0.001063587   -0.001050740
     18        1           0.002739953    0.003995288   -0.006062314
     19        6          -0.052583946    0.003425429    0.015409621
     20        8           0.001850873   -0.009166482   -0.015212113
     21        7           0.021843717   -0.025121966   -0.042357255
     22        1           0.001552037    0.000335645   -0.002523572
     23        1           0.001744436    0.002628285    0.007150228
     24       35           0.026632894   -0.006343053   -0.007753387
 -------------------------------------------------------------------
 Cartesian Forces:  Max     0.053819080 RMS     0.015623359
 FormGI is forming the generalized inverse of G from B-inverse, IUseBI=4.

 GradGradGradGradGradGradGradGradGradGradGradGradGradGradGradGradGradGrad
 Berny optimization.
 Internal  Forces:  Max     0.050230308 RMS     0.009308440
 Search for a saddle point.
 Step number   1 out of a maximum of   50
 All quantities printed in internal units (Hartrees-Bohrs-Radians)
 Swapping is turned off.
 Second derivative matrix not updated -- analytic derivatives used.
 ITU=  0
     Eigenvalues ---   -0.04613  -0.00644  -0.00214   0.00134   0.00751
     Eigenvalues ---    0.00837   0.01155   0.01319   0.01384   0.01605
     Eigenvalues ---    0.02126   0.02139   0.02277   0.03033   0.03350
     Eigenvalues ---    0.03470   0.03628   0.03789   0.04215   0.04276
     Eigenvalues ---    0.04938   0.05299   0.05746   0.06268   0.06647
     Eigenvalues ---    0.07021   0.07670   0.08115   0.08304   0.09206
     Eigenvalues ---    0.09288   0.10039   0.10414   0.11073   0.13014
     Eigenvalues ---    0.16105   0.17706   0.18531   0.19194   0.19572
     Eigenvalues ---    0.20333   0.21947   0.22404   0.23668   0.25292
     Eigenvalues ---    0.26286   0.26906   0.27458   0.30454   0.30631
     Eigenvalues ---    0.31788   0.34567   0.34775   0.35096   0.35152
     Eigenvalues ---    0.35387   0.35791   0.37792   0.37906   0.39330
     Eigenvalues ---    0.39525   0.40830   0.43397   0.58760   0.78673
     Eigenvalues ---    0.80223
 Eigenvectors required to have negative eigenvalues:
                          D43       D47       D5        R7        D12
   1                    0.29881   0.25929  -0.24527  -0.23902  -0.23679
                          D45       D13       D28       D1        D18
   1                    0.23015  -0.22655  -0.19791   0.19326  -0.19056
 RFO step:  Lambda0=5.078651671D-03 Lambda=-4.10963724D-02.
 Linear search not attempted -- option 19 set.
 Maximum step size (   0.100) exceeded in Quadratic search.
    -- Step size scaled by   0.282
 Iteration  1 RMS(Cart)=  0.03778898 RMS(Int)=  0.00121318
 Iteration  2 RMS(Cart)=  0.00153790 RMS(Int)=  0.00005963
 Iteration  3 RMS(Cart)=  0.00000302 RMS(Int)=  0.00005959
 Iteration  4 RMS(Cart)=  0.00000000 RMS(Int)=  0.00005959
 Variable       Old X    -DE/DX   Delta X   Delta X   Delta X     New X
                                 (Linear)    (Quad)   (Total)
    R1        2.73026   0.00131   0.00000   0.00130   0.00126   2.73152
    R2        2.72812  -0.05023   0.00000  -0.05553  -0.05560   2.67253
    R3        2.05185   0.00352   0.00000   0.00206   0.00206   2.05391
    R4        2.85217  -0.02505   0.00000  -0.02182  -0.02182   2.83035
    R5        2.04946   0.00384   0.00000   0.00215   0.00215   2.05160
    R6        2.78046  -0.02492   0.00000  -0.02176  -0.02176   2.75870
    R7        3.19286  -0.02790   0.00000  -0.01042  -0.01047   3.18239
    R8        2.84407  -0.02106   0.00000  -0.01498  -0.01495   2.82912
    R9        2.86326  -0.00048   0.00000   0.00236   0.00235   2.86561
   R10        2.78367  -0.01817   0.00000  -0.01772  -0.01765   2.76602
   R11        2.86440   0.00936   0.00000   0.01293   0.01294   2.87734
   R12        2.07262   0.00121   0.00000   0.00122   0.00122   2.07384
   R13        2.53317   0.01175   0.00000   0.00664   0.00664   2.53982
   R14        2.03698   0.00770   0.00000   0.00465   0.00465   2.04162
   R15        2.03830   0.00825   0.00000   0.00495   0.00495   2.04325
   R16        2.07306   0.00251   0.00000   0.00182   0.00182   2.07488
   R17        2.06981   0.00200   0.00000   0.00112   0.00112   2.07093
   R18        2.89376   0.00576   0.00000   0.00180   0.00182   2.89558
   R19        2.06483   0.00309   0.00000   0.00235   0.00235   2.06718
   R20        2.06761   0.00459   0.00000   0.00360   0.00360   2.07121
   R21        2.86493   0.00478   0.00000   0.00203   0.00208   2.86701
   R22        2.31743  -0.03947   0.00000  -0.01521  -0.01521   2.30222
   R23        2.30694  -0.01739   0.00000  -0.00221  -0.00221   2.30474
   R24        3.52604   0.02788   0.00000   0.02833   0.02833   3.55437
   R25        1.93312  -0.00031   0.00000   0.00283   0.00283   1.93595
    A1        1.86454   0.00026   0.00000   0.00785   0.00763   1.87217
    A2        2.15393   0.00632   0.00000   0.01178   0.01185   2.16577
    A3        2.15454  -0.00595   0.00000  -0.01023  -0.01030   2.14424
    A4        2.06101   0.00317   0.00000   0.01065   0.01064   2.07165
    A5        2.11238  -0.00944   0.00000  -0.02857  -0.02859   2.08379
    A6        2.05439   0.00604   0.00000   0.01482   0.01480   2.06919
    A7        1.86515  -0.00915   0.00000  -0.01473  -0.01475   1.85040
    A8        1.80943   0.00900   0.00000   0.00485   0.00484   1.81427
    A9        1.85487  -0.01199   0.00000  -0.01440  -0.01434   1.84053
   A10        2.12223   0.00245   0.00000   0.01336   0.01341   2.13564
   A11        1.78029   0.00578   0.00000   0.00430   0.00409   1.78438
   A12        2.01407   0.00029   0.00000   0.00099   0.00087   2.01494
   A13        1.87377  -0.01587   0.00000   0.01224   0.01230   1.88608
   A14        2.10519   0.00870   0.00000  -0.00974  -0.00981   2.09538
   A15        1.94168  -0.00048   0.00000  -0.00012  -0.00025   1.94143
   A16        1.73949   0.00581   0.00000   0.00543   0.00541   1.74490
   A17        1.89959   0.00474   0.00000   0.00185   0.00186   1.90145
   A18        1.88630  -0.00261   0.00000  -0.00737  -0.00740   1.87890
   A19        1.86411  -0.00277   0.00000  -0.00318  -0.00333   1.86079
   A20        2.18376   0.00076   0.00000   0.00139   0.00145   2.18521
   A21        2.23522   0.00200   0.00000   0.00185   0.00192   2.23713
   A22        1.87703  -0.01191   0.00000  -0.00509  -0.00518   1.87185
   A23        2.20198   0.00186   0.00000  -0.00522  -0.00516   2.19682
   A24        2.19741   0.00973   0.00000   0.00992   0.00994   2.20735
   A25        1.92647  -0.00195   0.00000  -0.00417  -0.00415   1.92232
   A26        1.97263   0.00209   0.00000  -0.00423  -0.00424   1.96839
   A27        1.82755  -0.00643   0.00000  -0.00042  -0.00044   1.82711
   A28        1.87621  -0.00083   0.00000   0.00060   0.00057   1.87678
   A29        1.91633   0.00294   0.00000   0.00124   0.00122   1.91755
   A30        1.94489   0.00424   0.00000   0.00700   0.00704   1.95192
   A31        1.94247   0.00476   0.00000   0.01148   0.01147   1.95394
   A32        1.94650  -0.00170   0.00000   0.00202   0.00204   1.94854
   A33        1.81912   0.00448   0.00000   0.00576   0.00575   1.82488
   A34        1.92258  -0.00200   0.00000  -0.00686  -0.00692   1.91566
   A35        1.93409  -0.00075   0.00000  -0.00302  -0.00312   1.93097
   A36        1.89643  -0.00473   0.00000  -0.00926  -0.00926   1.88717
   A37        1.97217  -0.01030   0.00000  -0.00843  -0.00844   1.96373
   A38        2.15152   0.00401   0.00000  -0.00126  -0.00127   2.15026
   A39        2.15921   0.00631   0.00000   0.00954   0.00954   2.16875
   A40        2.15957   0.00032   0.00000  -0.00319  -0.00319   2.15638
   A41        2.05779  -0.01003   0.00000  -0.00048  -0.00048   2.05730
   A42        2.06053   0.00976   0.00000   0.00388   0.00388   2.06441
   A43        1.72435   0.00993   0.00000   0.02024   0.02032   1.74467
   A44        2.00205  -0.01226   0.00000  -0.00443  -0.00446   1.99758
   A45        2.02589  -0.00271   0.00000  -0.00116  -0.00118   2.02472
    D1        0.40237  -0.00127   0.00000  -0.02224  -0.02225   0.38012
    D2       -2.75321  -0.00191   0.00000  -0.01859  -0.01870  -2.77191
    D3        3.06909  -0.00205   0.00000  -0.00676  -0.00660   3.06249
    D4       -0.08648  -0.00269   0.00000  -0.00310  -0.00305  -0.08954
    D5       -0.68817   0.00111   0.00000   0.02569   0.02569  -0.66248
    D6       -2.85435   0.00394   0.00000   0.01592   0.01585  -2.83850
    D7        2.92850  -0.00227   0.00000   0.00273   0.00287   2.93136
    D8        0.76232   0.00055   0.00000  -0.00704  -0.00698   0.75534
    D9        1.84948   0.00347   0.00000   0.05238   0.05242   1.90190
   D10       -2.46292   0.00388   0.00000   0.06319   0.06313  -2.39979
   D11       -0.22718   0.00778   0.00000   0.04263   0.04262  -0.18456
   D12       -1.65156   0.00407   0.00000   0.04595   0.04601  -1.60554
   D13        0.31923   0.00448   0.00000   0.05676   0.05672   0.37595
   D14        2.55497   0.00839   0.00000   0.03620   0.03621   2.59118
   D15        0.37357   0.00005   0.00000   0.05985   0.05986   0.43343
   D16       -2.88074   0.00119   0.00000   0.06223   0.06224  -2.81850
   D17       -3.12615   0.00010   0.00000   0.05266   0.05265  -3.07350
   D18       -0.09728   0.00124   0.00000   0.05504   0.05503  -0.04225
   D19       -1.34069   0.01118   0.00000  -0.00223  -0.00225  -1.34294
   D20        2.73500   0.00531   0.00000   0.00064   0.00058   2.73557
   D21        0.76283   0.00406   0.00000   0.00578   0.00575   0.76858
   D22        2.68087   0.00810   0.00000  -0.01265  -0.01266   2.66821
   D23        0.47338   0.00223   0.00000  -0.00978  -0.00983   0.46354
   D24       -1.49879   0.00098   0.00000  -0.00464  -0.00466  -1.50345
   D25        0.55045   0.00893   0.00000  -0.00941  -0.00932   0.54114
   D26       -1.65704   0.00307   0.00000  -0.00655  -0.00649  -1.66353
   D27        2.65397   0.00182   0.00000  -0.00141  -0.00132   2.65266
   D28        1.44678  -0.00943   0.00000  -0.00296  -0.00301   1.44377
   D29       -1.57547  -0.00719   0.00000  -0.00032  -0.00034  -1.57581
   D30       -2.76899  -0.00347   0.00000  -0.00005  -0.00022  -2.76921
   D31        0.49194  -0.00123   0.00000   0.00258   0.00245   0.49439
   D32       -0.49643   0.00458   0.00000   0.01625   0.01614  -0.48028
   D33        2.76451   0.00682   0.00000   0.01889   0.01881   2.78332
   D34        1.38844   0.00132   0.00000   0.00917   0.00918   1.39761
   D35       -2.79297   0.00029   0.00000   0.00410   0.00413  -2.78885
   D36       -0.67289   0.00243   0.00000   0.01001   0.01005  -0.66284
   D37       -0.70616   0.00432   0.00000   0.01622   0.01620  -0.68995
   D38        1.39562   0.00329   0.00000   0.01115   0.01115   1.40677
   D39       -2.76748   0.00544   0.00000   0.01706   0.01707  -2.75041
   D40       -2.87414  -0.00730   0.00000  -0.00470  -0.00469  -2.87882
   D41       -0.77236  -0.00833   0.00000  -0.00977  -0.00974  -0.78210
   D42        1.34773  -0.00618   0.00000  -0.00386  -0.00382   1.34391
   D43       -1.25577   0.01700   0.00000   0.00113   0.00102  -1.25475
   D44        0.89338   0.00745   0.00000   0.00902   0.00902   0.90241
   D45        0.69518   0.00512   0.00000  -0.01830  -0.01841   0.67676
   D46        2.84433  -0.00443   0.00000  -0.01042  -0.01041   2.83393
   D47        3.03283   0.01361   0.00000   0.00405   0.00393   3.03676
   D48       -1.10120   0.00406   0.00000   0.01193   0.01194  -1.08926
   D49       -2.14564   0.00905   0.00000  -0.00713  -0.00707  -2.15271
   D50        1.02048   0.00809   0.00000  -0.00080  -0.00077   1.01971
   D51       -0.10529  -0.00234   0.00000   0.00760   0.00762  -0.09767
   D52        3.06083  -0.00330   0.00000   0.01393   0.01392   3.07474
   D53        1.87719   0.00453   0.00000   0.00956   0.00953   1.88672
   D54       -1.23988   0.00357   0.00000   0.01588   0.01583  -1.22405
   D55        0.06812   0.00070   0.00000   0.00720   0.00710   0.07521
   D56        3.09076  -0.00221   0.00000   0.00326   0.00309   3.09385
   D57       -3.05895   0.00138   0.00000   0.00341   0.00341  -3.05553
   D58       -0.03630  -0.00153   0.00000  -0.00053  -0.00060  -0.03690
   D59        2.69440  -0.00202   0.00000   0.00060   0.00062   2.69502
   D60       -1.43407  -0.00238   0.00000   0.00154   0.00155  -1.43252
   D61        0.60887  -0.00622   0.00000  -0.00509  -0.00509   0.60377
   D62        0.62619   0.00236   0.00000   0.00510   0.00513   0.63132
   D63        2.78091   0.00200   0.00000   0.00604   0.00606   2.78697
   D64       -1.45934  -0.00183   0.00000  -0.00059  -0.00059  -1.45993
   D65       -1.45055  -0.00118   0.00000  -0.00086  -0.00084  -1.45139
   D66        0.70417  -0.00154   0.00000   0.00008   0.00008   0.70425
   D67        2.74711  -0.00538   0.00000  -0.00655  -0.00656   2.74055
   D68       -0.29545   0.00334   0.00000  -0.00281  -0.00280  -0.29824
   D69        2.82150   0.00426   0.00000  -0.00935  -0.00936   2.81214
   D70       -2.38664  -0.00454   0.00000  -0.01824  -0.01819  -2.40483
   D71        0.73030  -0.00361   0.00000  -0.02477  -0.02475   0.70555
   D72        1.78189   0.00148   0.00000  -0.00185  -0.00186   1.78003
   D73       -1.38435   0.00240   0.00000  -0.00838  -0.00842  -1.39277
         Item               Value     Threshold  Converged?
 Maximum Force            0.050230     0.000450     NO 
 RMS     Force            0.009308     0.000300     NO 
 Maximum Displacement     0.231371     0.001800     NO 
 RMS     Displacement     0.038296     0.001200     NO 
 Predicted change in Energy=-9.497993D-03
 GradGradGradGradGradGradGradGradGradGradGradGradGradGradGradGradGradGrad

                          Input orientation:                          
 ---------------------------------------------------------------------
 Center     Atomic      Atomic             Coordinates (Angstroms)
 Number     Number       Type             X           Y           Z
 ---------------------------------------------------------------------
      1          6           0       -0.267058   -1.938830    0.503848
      2          6           0        0.321216   -0.104676   -0.804634
      3          6           0       -2.037473   -0.710358    0.039913
      4          6           0       -1.113496    0.304864   -0.935588
      5          6           0       -1.031767   -2.707177   -0.452294
      6          6           0       -2.150649   -2.005705   -0.702109
      7          1           0       -2.930218   -2.267699   -1.404043
      8          6           0       -3.248837    0.128978    0.397155
      9          1           0       -3.969728    0.124092   -0.431010
     10          1           0       -3.769300   -0.235567    1.290015
     11          6           0       -2.695680    1.543781    0.597694
     12          1           0       -3.456039    2.309425    0.418066
     13          1           0       -2.269158    1.672894    1.599047
     14          6           0       -1.570423    1.660137   -0.413257
     15          8           0       -1.100351    2.716273   -0.797733
     16          1           0       -0.729455   -3.654712   -0.874200
     17          1           0       -1.459675    0.214097   -1.973025
     18          1           0        0.802407   -0.594371   -1.645655
     19          6           0        1.160535    0.537420    0.202537
     20          8           0        0.721405    1.052764    1.216955
     21          7           0       -1.168705   -1.070230    1.161605
     22          1           0       -0.723219   -0.289598    1.653210
     23          1           0        0.660158   -2.279643    0.957093
     24         35           0        3.026510    0.408740    0.004211
 ---------------------------------------------------------------------
                    Distance matrix (angstroms):
                    1          2          3          4          5
     1  C    0.000000
     2  C    2.328586   0.000000
     3  C    2.204257   2.577504   0.000000
     4  C    2.796891   1.497756   1.684046   0.000000
     5  C    1.445456   2.954271   2.289323   3.051663   0.000000
     6  C    2.237570   3.120023   1.497107   2.543408   1.344013
     7  H    3.292510   3.950922   2.303761   3.184024   2.168659
     8  C    3.630182   3.774146   1.516414   2.523256   3.698749
     9  H    4.340434   4.313251   2.156776   2.906086   4.080215
    10  H    3.973016   4.597500   2.188013   3.506945   4.079042
    11  C    4.246833   3.712896   2.413607   2.527682   4.684200
    12  H    5.312685   4.646561   3.357740   3.367217   5.639230
    13  H    4.272284   3.955689   2.857353   3.103455   4.992410
    14  C    3.936039   2.616494   2.458200   1.522622   4.400580
    15  O    4.904944   3.158901   3.649883   2.415382   5.434873
    16  H    2.248796   3.702906   3.348990   3.978631   1.080380
    17  H    3.491752   2.153677   2.289190   1.097431   3.321080
    18  H    2.751671   1.085662   3.304469   2.232377   3.041752
    19  C    2.874131   1.459841   3.436663   2.553552   3.970189
    20  O    3.230358   2.363607   3.479286   2.925689   4.471818
    21  N    1.414241   2.649199   1.463714   2.508416   2.302829
    22  H    2.061330   2.676946   2.122976   2.684693   3.220720
    23  H    1.086883   2.819405   3.252859   3.661662   2.243160
    24  Br   4.075330   2.869920   5.186288   4.246606   5.136822
                    6          7          8          9         10
     6  C    0.000000
     7  H    1.081240   0.000000
     8  C    2.640316   3.014945   0.000000
     9  H    2.813996   2.783530   1.097982   0.000000
    10  H    3.118008   3.477292   1.095889   1.769591   0.000000
    11  C    3.819083   4.311536   1.532275   2.167244   2.190445
    12  H    4.645339   4.954456   2.190369   2.400101   2.708397
    13  H    4.340674   4.998382   2.188148   3.067875   2.447070
    14  C    3.722700   4.273008   2.412113   2.848932   3.365990
    15  O    4.838320   5.343782   3.569011   3.884225   4.493922
    16  H    2.183720   2.654787   4.720164   4.997514   5.061130
    17  H    2.649565   2.940332   2.970876   2.947249   4.022933
    18  H    3.406271   4.097670   4.594441   4.976427   5.444943
    19  C    4.271980   5.213833   4.432524   5.185732   5.107190
    20  O    4.613646   5.588332   4.157917   5.058156   4.672426
    21  N    2.304942   3.334578   2.519809   3.436358   2.734272
    22  H    3.245013   4.257995   2.851601   3.880068   3.068132
    23  H    3.275459   4.297197   4.625498   5.398205   4.889702
    24  Br   5.755989   6.680502   6.293859   7.015539   6.946327
                   11         12         13         14         15
    11  C    0.000000
    12  H    1.093902   0.000000
    13  H    1.096037   1.791249   0.000000
    14  C    1.517157   2.160606   2.130202   0.000000
    15  O    2.422194   2.681968   2.863442   1.218282   0.000000
    16  H    5.749509   6.683947   6.072151   5.400678   6.382231
    17  H    3.147120   3.754089   3.942467   2.129829   2.787707
    18  H    4.673428   5.552057   5.010298   3.497418   3.911499
    19  C    4.004910   4.949667   3.873284   3.016260   3.295382
    20  O    3.507285   4.434913   3.077989   2.877319   3.185125
    21  N    3.079400   4.148110   2.987822   3.177495   4.263951
    22  H    2.892403   3.968476   2.498847   2.964711   3.896744
    23  H    5.099940   6.188148   4.961405   4.730245   5.580142
    24  Br   5.863787   6.768110   5.673243   4.782475   4.795707
                   16         17         18         19         20
    16  H    0.000000
    17  H    4.087582   0.000000
    18  H    3.508196   2.424419   0.000000
    19  C    4.722860   3.420980   2.196593   0.000000
    20  O    5.351472   3.954294   3.303657   1.219614   0.000000
    21  N    3.319186   3.400010   3.463009   2.988262   2.843005
    22  H    4.208543   3.734388   3.647319   2.517328   2.019701
    23  H    2.678708   4.392951   3.103977   2.958982   3.343084
    24  Br   5.602725   4.906445   2.945322   1.880892   2.683100
                   21         22         23         24
    21  N    0.000000
    22  H    1.024460   0.000000
    23  H    2.202100   2.521625   0.000000
    24  Br   4.596383   4.155400   3.706077   0.000000
 Stoichiometry    C10H10BrNO2
 Framework group  C1[X(C10H10BrNO2)]
 Deg. of freedom    66
 Full point group                 C1      NOp   1
 Largest Abelian subgroup         C1      NOp   1
 Largest concise Abelian subgroup C1      NOp   1
                         Standard orientation:                         
 ---------------------------------------------------------------------
 Center     Atomic      Atomic             Coordinates (Angstroms)
 Number     Number       Type             X           Y           Z
 ---------------------------------------------------------------------
      1          6           0        0.504222    1.982916    0.517330
      2          6           0       -0.278590    0.244233   -0.819271
      3          6           0        2.125099    0.562397    0.055129
      4          6           0        1.100258   -0.327678   -0.941605
      5          6           0        1.363284    2.667882   -0.421913
      6          6           0        2.395879    1.844042   -0.669711
      7          1           0        3.208182    2.021548   -1.360894
      8          6           0        3.226936   -0.415889    0.413490
      9          1           0        3.952505   -0.485510   -0.407647
     10          1           0        3.776419   -0.124257    1.315705
     11          6           0        2.511213   -1.759024    0.591245
     12          1           0        3.179517   -2.605741    0.409417
     13          1           0        2.061706   -1.848905    1.586817
     14          6           0        1.391138   -1.732599   -0.431740
     15          8           0        0.805924   -2.722630   -0.833703
     16          1           0        1.177565    3.648771   -0.834934
     17          1           0        1.465913   -0.266146   -1.974496
     18          1           0       -0.690523    0.795867   -1.658719
     19          6           0       -1.197662   -0.307249    0.171845
     20          8           0       -0.832369   -0.881409    1.183951
     21          7           0        1.291781    1.008180    1.172858
     22          1           0        0.753403    0.279127    1.650509
     23          1           0       -0.382075    2.424026    0.965901
     24         35           0       -3.033834    0.039488   -0.042641
 ---------------------------------------------------------------------
 Rotational constants (GHZ):           0.9282348           0.3781472           0.3037794
 Standard basis: STO-3G (5D, 7F)
 There are    94 symmetry adapted cartesian basis functions of A   symmetry.
 There are    93 symmetry adapted basis functions of A   symmetry.
    93 basis functions,   282 primitive gaussians,    94 cartesian basis functions
    64 alpha electrons       64 beta electrons
       nuclear repulsion energy      1234.0945336492 Hartrees.
 NAtoms=   24 NActive=   24 NUniq=   24 SFac= 1.00D+00 NAtFMM=   60 NAOKFM=F Big=F
 Integral buffers will be    131072 words long.
 Raffenetti 1 integral format.
 Two-electron integral symmetry is turned on.
 External calculation of energy, first and second derivatives.
 Running external command "~/scripts/MiMe -H 'pbepbe def2svp' -EF 'wb97xd def2svp' -c 12 -m 48GB R"
         input file       "/local/jobs/1158157/Gau-134148.EIn"
         output file      "/local/jobs/1158157/Gau-134148.EOu"
         message file     "/local/jobs/1158157/Gau-134148.EMs"
         fchk file        "/local/jobs/1158157/Gau-134148.EFC"
         mat. el file     "/local/jobs/1158157/Gau-134148.EUF"
 Read checkpoint file Gau-134148_H.chk type G16
 Write formatted file Gau-134148_H.fchk

deriv: 2

spelevel: wb97xd def2svp
gradlevel: wb97xd def2svp
hesslevel: pbepbe def2svp

runspe: False
runforce: True
runfreq: True

Running Gaussian ...

Parsing files ...
SPE file: Gau-134148_F.out
FORCE file: Gau-134148_F.out
HESS file: Gau-134148_H.out

 ExternalExternalExternalExternalExternalExternalExternalExternalExternalExternal
 Output from external command:
 "~/scripts/MiMe -H 'pbepbe def2svp' -EF 'wb97xd def2svp' -c 12 -m 48GB R /local/jobs/1158157/Gau-134148.EIn /local/jobs/1158157/Gau-134148.EOu /local/jobs/1158157/Gau-134148.EMs /local/jobs/1158157/Gau-134148.EFC /local/jobs/1158157/Gau-134148.EUF"
  
 --------------------------------------------------
 Force calculation at wb97xd def2svp
 Hessian calculation at pbepbe def2svp
 ExternalExternalExternalExternalExternalExternalExternalExternalExternalExternal

 Recovered energy= -3165.50089019     dipole=      4.253600000000      4.312300000000     -0.794700000000
 Energy=    -3165.50089     NIter=   0.
 Dipole moment=       4.253600       4.312300      -0.794700
 ***** Axes restored to original set *****
 -------------------------------------------------------------------
 Center     Atomic                   Forces (Hartrees/Bohr)
 Number     Number              X              Y              Z
 -------------------------------------------------------------------
      1        6          -0.014824688    0.027928459    0.013315053
      2        6          -0.005517241   -0.003322671    0.004799162
      3        6          -0.005492013   -0.013602084    0.003996645
      4        6           0.013685583   -0.017092981    0.016867625
      5        6           0.005882219    0.005266046    0.003925961
      6        6           0.000365496    0.012537327    0.006234129
      7        1          -0.005273544    0.001684208   -0.004243079
      8        6           0.000875943    0.005379424    0.005851930
      9        1          -0.000044030   -0.001360710   -0.002433326
     10        1          -0.000017074   -0.003937799    0.000221675
     11        6          -0.005060375   -0.009413355   -0.010505882
     12        1           0.001636854    0.005503441    0.002500696
     13        1           0.001234510    0.002359185    0.002992661
     14        6           0.018667673    0.039299569   -0.007992885
     15        8          -0.012124445   -0.024579844    0.007479696
     16        1           0.003223195   -0.003768751   -0.003964908
     17        1          -0.000581381   -0.001013705   -0.000700846
     18        1           0.002416119    0.003945284   -0.004408914
     19        6          -0.041199225   -0.002788069    0.011599156
     20        8           0.003200623   -0.002604116   -0.011587139
     21        7           0.016120543   -0.018966442   -0.031957977
     22        1           0.000707558    0.000025773   -0.001159304
     23        1           0.001269662    0.002141231    0.005383595
     24       35           0.020848035   -0.003619421   -0.006213725
 -------------------------------------------------------------------
 Cartesian Forces:  Max     0.041199225 RMS     0.011742989
 FormGI is forming the generalized inverse of G from B-inverse, IUseBI=4.

 GradGradGradGradGradGradGradGradGradGradGradGradGradGradGradGradGradGrad
 Berny optimization.
 Internal  Forces:  Max     0.036755034 RMS     0.006756123
 Search for a saddle point.
 Step number   2 out of a maximum of   50
 All quantities printed in internal units (Hartrees-Bohrs-Radians)
 Swapping is turned off.
 Second derivative matrix not updated -- analytic derivatives used.
 ITU=  0  0
     Eigenvalues ---   -0.03723  -0.00505   0.00004   0.00138   0.00800
     Eigenvalues ---    0.00874   0.01162   0.01326   0.01446   0.01719
     Eigenvalues ---    0.02158   0.02321   0.02618   0.03136   0.03472
     Eigenvalues ---    0.03537   0.03657   0.04105   0.04269   0.04419
     Eigenvalues ---    0.05209   0.05326   0.05786   0.06418   0.06981
     Eigenvalues ---    0.07216   0.07742   0.08189   0.08920   0.09319
     Eigenvalues ---    0.09523   0.10557   0.10951   0.11533   0.14702
     Eigenvalues ---    0.16219   0.17889   0.19012   0.19524   0.20607
     Eigenvalues ---    0.21013   0.22204   0.23521   0.24438   0.25253
     Eigenvalues ---    0.26447   0.27114   0.28501   0.30745   0.32480
     Eigenvalues ---    0.33929   0.34401   0.34630   0.34988   0.35043
     Eigenvalues ---    0.35550   0.36463   0.37583   0.37678   0.38805
     Eigenvalues ---    0.39018   0.42617   0.45280   0.58475   0.80682
     Eigenvalues ---    0.82949
 Eigenvectors required to have negative eigenvalues:
                          D43       D47       D5        D45       D12
   1                   -0.30252  -0.26637   0.25971  -0.24322   0.24254
                          D13       R7        D1        D14       D28
   1                    0.23361   0.22411  -0.20116   0.19877   0.19630
 RFO step:  Lambda0=4.018807643D-03 Lambda=-2.40025260D-02.
 Linear search not attempted -- option 19 set.
 Maximum step size (   0.100) exceeded in Quadratic search.
    -- Step size scaled by   0.324
 Iteration  1 RMS(Cart)=  0.02223188 RMS(Int)=  0.00029681
 Iteration  2 RMS(Cart)=  0.00058587 RMS(Int)=  0.00011556
 Iteration  3 RMS(Cart)=  0.00000021 RMS(Int)=  0.00011556
 Variable       Old X    -DE/DX   Delta X   Delta X   Delta X     New X
                                 (Linear)    (Quad)   (Total)
    R1        2.73152   0.00093   0.00000  -0.00504  -0.00504   2.72647
    R2        2.67253  -0.03676   0.00000  -0.04537  -0.04540   2.62713
    R3        2.05391   0.00266   0.00000   0.00154   0.00154   2.05545
    R4        2.83035  -0.01762   0.00000  -0.02590  -0.02590   2.80445
    R5        2.05160   0.00271   0.00000   0.00118   0.00118   2.05278
    R6        2.75870  -0.01810   0.00000  -0.02406  -0.02406   2.73464
    R7        3.18239  -0.01948   0.00000   0.01051   0.01049   3.19287
    R8        2.82912  -0.01492   0.00000  -0.01572  -0.01571   2.81341
    R9        2.86561  -0.00064   0.00000   0.00075   0.00073   2.86634
   R10        2.76602  -0.01323   0.00000  -0.01900  -0.01899   2.74703
   R11        2.87734   0.00725   0.00000   0.01243   0.01246   2.88979
   R12        2.07384   0.00093   0.00000   0.00110   0.00110   2.07494
   R13        2.53982   0.00834   0.00000   0.00779   0.00781   2.54762
   R14        2.04162   0.00576   0.00000   0.00415   0.00415   2.04577
   R15        2.04325   0.00615   0.00000   0.00447   0.00447   2.04772
   R16        2.07488   0.00187   0.00000   0.00160   0.00160   2.07649
   R17        2.07093   0.00150   0.00000   0.00111   0.00111   2.07204
   R18        2.89558   0.00424   0.00000  -0.00025  -0.00027   2.89531
   R19        2.06718   0.00230   0.00000   0.00208   0.00208   2.06926
   R20        2.07121   0.00349   0.00000   0.00365   0.00365   2.07486
   R21        2.86701   0.00419   0.00000   0.00434   0.00437   2.87138
   R22        2.30222  -0.02835   0.00000  -0.01321  -0.01321   2.28901
   R23        2.30474  -0.01189   0.00000  -0.00494  -0.00494   2.29979
   R24        3.55437   0.02158   0.00000   0.04006   0.04006   3.59443
   R25        1.93595  -0.00023   0.00000   0.00041   0.00041   1.93636
    A1        1.87217   0.00025   0.00000   0.00898   0.00850   1.88067
    A2        2.16577   0.00478   0.00000   0.01819   0.01808   2.18386
    A3        2.14424  -0.00443   0.00000  -0.00713  -0.00759   2.13665
    A4        2.07165   0.00180   0.00000   0.01155   0.01138   2.08303
    A5        2.08379  -0.00392   0.00000  -0.00365  -0.00383   2.07996
    A6        2.06919   0.00195   0.00000   0.00334   0.00314   2.07233
    A7        1.85040  -0.00736   0.00000  -0.01665  -0.01661   1.83380
    A8        1.81427   0.00637   0.00000   0.00039   0.00040   1.81468
    A9        1.84053  -0.00826   0.00000  -0.01122  -0.01111   1.82941
   A10        2.13564   0.00246   0.00000   0.01484   0.01487   2.15051
   A11        1.78438   0.00381   0.00000   0.00470   0.00440   1.78878
   A12        2.01494   0.00013   0.00000   0.00195   0.00180   2.01675
   A13        1.88608  -0.01077   0.00000   0.01112   0.01110   1.89718
   A14        2.09538   0.00634   0.00000   0.00191   0.00184   2.09721
   A15        1.94143  -0.00058   0.00000  -0.00018  -0.00015   1.94128
   A16        1.74490   0.00456   0.00000   0.00299   0.00294   1.74784
   A17        1.90145   0.00240   0.00000  -0.00981  -0.00981   1.89164
   A18        1.87890  -0.00171   0.00000  -0.00685  -0.00684   1.87205
   A19        1.86079  -0.00230   0.00000  -0.00142  -0.00161   1.85917
   A20        2.18521   0.00065   0.00000   0.00024   0.00033   2.18554
   A21        2.23713   0.00164   0.00000   0.00115   0.00124   2.23838
   A22        1.87185  -0.00837   0.00000  -0.00141  -0.00165   1.87020
   A23        2.19682   0.00104   0.00000  -0.00743  -0.00730   2.18951
   A24        2.20735   0.00704   0.00000   0.00760   0.00766   2.21501
   A25        1.92232  -0.00143   0.00000  -0.00529  -0.00528   1.91704
   A26        1.96839   0.00105   0.00000  -0.00751  -0.00753   1.96086
   A27        1.82711  -0.00449   0.00000   0.00169   0.00168   1.82879
   A28        1.87678  -0.00054   0.00000   0.00053   0.00047   1.87725
   A29        1.91755   0.00180   0.00000   0.00109   0.00107   1.91862
   A30        1.95192   0.00362   0.00000   0.00945   0.00949   1.96141
   A31        1.95394   0.00360   0.00000   0.01084   0.01084   1.96478
   A32        1.94854  -0.00119   0.00000   0.00205   0.00207   1.95061
   A33        1.82488   0.00354   0.00000   0.00663   0.00662   1.83149
   A34        1.91566  -0.00174   0.00000  -0.00995  -0.00999   1.90567
   A35        1.93097  -0.00089   0.00000  -0.00453  -0.00461   1.92636
   A36        1.88717  -0.00335   0.00000  -0.00486  -0.00488   1.88229
   A37        1.96373  -0.00808   0.00000  -0.00753  -0.00752   1.95621
   A38        2.15026   0.00381   0.00000   0.00160   0.00154   2.15180
   A39        2.16875   0.00428   0.00000   0.00553   0.00547   2.17422
   A40        2.15638   0.00406   0.00000   0.01702   0.01702   2.17340
   A41        2.05730  -0.00994   0.00000  -0.01855  -0.01855   2.03875
   A42        2.06441   0.00611   0.00000   0.00203   0.00202   2.06643
   A43        1.74467   0.00775   0.00000   0.02530   0.02517   1.76984
   A44        1.99758  -0.00901   0.00000   0.00642   0.00613   2.00372
   A45        2.02472  -0.00186   0.00000   0.00546   0.00525   2.02997
    D1        0.38012  -0.00146   0.00000  -0.03513  -0.03513   0.34499
    D2       -2.77191  -0.00199   0.00000  -0.03828  -0.03848  -2.81039
    D3        3.06249  -0.00164   0.00000   0.00478   0.00520   3.06769
    D4       -0.08954  -0.00218   0.00000   0.00163   0.00185  -0.08768
    D5       -0.66248   0.00103   0.00000   0.04133   0.04149  -0.62099
    D6       -2.83850   0.00283   0.00000   0.01422   0.01404  -2.82446
    D7        2.93136  -0.00175   0.00000  -0.00611  -0.00566   2.92570
    D8        0.75534   0.00005   0.00000  -0.03322  -0.03312   0.72223
    D9        1.90190   0.00098   0.00000  -0.00059  -0.00063   1.90126
   D10       -2.39979   0.00245   0.00000   0.01308   0.01305  -2.38674
   D11       -0.18456   0.00518   0.00000   0.00453   0.00448  -0.18008
   D12       -1.60554   0.00086   0.00000   0.03384   0.03388  -1.57166
   D13        0.37595   0.00234   0.00000   0.04751   0.04756   0.42351
   D14        2.59118   0.00506   0.00000   0.03896   0.03900   2.63018
   D15        0.43343  -0.00255   0.00000  -0.05156  -0.05153   0.38190
   D16       -2.81850   0.00028   0.00000  -0.04619  -0.04616  -2.86466
   D17       -3.07350  -0.00269   0.00000  -0.01546  -0.01549  -3.08899
   D18       -0.04225   0.00014   0.00000  -0.01009  -0.01012  -0.05237
   D19       -1.34294   0.00862   0.00000   0.00766   0.00771  -1.33523
   D20        2.73557   0.00385   0.00000  -0.00123  -0.00120   2.73437
   D21        0.76858   0.00290   0.00000   0.00831   0.00833   0.77691
   D22        2.66821   0.00616   0.00000  -0.00071  -0.00072   2.66749
   D23        0.46354   0.00139   0.00000  -0.00960  -0.00964   0.45391
   D24       -1.50345   0.00044   0.00000  -0.00006  -0.00011  -1.50356
   D25        0.54114   0.00678   0.00000   0.00210   0.00216   0.54329
   D26       -1.66353   0.00201   0.00000  -0.00679  -0.00676  -1.67029
   D27        2.65266   0.00107   0.00000   0.00276   0.00277   2.65543
   D28        1.44377  -0.00684   0.00000   0.00632   0.00623   1.45000
   D29       -1.57581  -0.00481   0.00000   0.01604   0.01599  -1.55982
   D30       -2.76921  -0.00299   0.00000   0.00221   0.00201  -2.76721
   D31        0.49439  -0.00096   0.00000   0.01193   0.01176   0.50615
   D32       -0.48028   0.00320   0.00000   0.02238   0.02223  -0.45806
   D33        2.78332   0.00523   0.00000   0.03210   0.03199   2.81530
   D34        1.39761   0.00082   0.00000   0.00693   0.00690   1.40452
   D35       -2.78885  -0.00016   0.00000  -0.00110  -0.00110  -2.78994
   D36       -0.66284   0.00191   0.00000   0.00731   0.00732  -0.65552
   D37       -0.68995   0.00363   0.00000   0.01945   0.01943  -0.67053
   D38        1.40677   0.00264   0.00000   0.01142   0.01142   1.41819
   D39       -2.75041   0.00472   0.00000   0.01984   0.01984  -2.73057
   D40       -2.87882  -0.00505   0.00000  -0.00547  -0.00542  -2.88424
   D41       -0.78210  -0.00603   0.00000  -0.01350  -0.01342  -0.79552
   D42        1.34391  -0.00396   0.00000  -0.00508  -0.00501   1.33890
   D43       -1.25475   0.01274   0.00000  -0.01284  -0.01302  -1.26778
   D44        0.90241   0.00607   0.00000   0.01578   0.01585   0.91826
   D45        0.67676   0.00337   0.00000  -0.03299  -0.03316   0.64360
   D46        2.83393  -0.00330   0.00000  -0.00437  -0.00429   2.82964
   D47        3.03676   0.01022   0.00000  -0.00708  -0.00729   3.02947
   D48       -1.08926   0.00355   0.00000   0.02154   0.02158  -1.06768
   D49       -2.15271   0.00552   0.00000  -0.00807  -0.00805  -2.16076
   D50        1.01971   0.00501   0.00000   0.00601   0.00601   1.02572
   D51       -0.09767  -0.00147   0.00000   0.00914   0.00915  -0.08853
   D52        3.07474  -0.00198   0.00000   0.02323   0.02321   3.09795
   D53        1.88672   0.00255   0.00000  -0.00266  -0.00265   1.88407
   D54       -1.22405   0.00204   0.00000   0.01143   0.01141  -1.21263
   D55        0.07521   0.00085   0.00000   0.00964   0.00952   0.08474
   D56        3.09385  -0.00174   0.00000  -0.00151  -0.00178   3.09207
   D57       -3.05553   0.00142   0.00000   0.01292   0.01301  -3.04252
   D58       -0.03690  -0.00118   0.00000   0.00177   0.00171  -0.03519
   D59        2.69502  -0.00127   0.00000   0.00532   0.00534   2.70036
   D60       -1.43252  -0.00176   0.00000   0.00187   0.00187  -1.43065
   D61        0.60377  -0.00427   0.00000   0.00094   0.00093   0.60471
   D62        0.63132   0.00200   0.00000   0.01005   0.01008   0.64140
   D63        2.78697   0.00150   0.00000   0.00660   0.00661   2.79357
   D64       -1.45993  -0.00101   0.00000   0.00566   0.00567  -1.45425
   D65       -1.45139  -0.00083   0.00000   0.00261   0.00263  -1.44876
   D66        0.70425  -0.00132   0.00000  -0.00084  -0.00084   0.70341
   D67        2.74055  -0.00383   0.00000  -0.00177  -0.00177   2.73877
   D68       -0.29824   0.00229   0.00000  -0.00590  -0.00592  -0.30416
   D69        2.81214   0.00279   0.00000  -0.02025  -0.02028   2.79187
   D70       -2.40483  -0.00363   0.00000  -0.02037  -0.02033  -2.42516
   D71        0.70555  -0.00312   0.00000  -0.03471  -0.03469   0.67086
   D72        1.78003   0.00114   0.00000  -0.00242  -0.00244   1.77759
   D73       -1.39277   0.00164   0.00000  -0.01677  -0.01680  -1.40957
         Item               Value     Threshold  Converged?
 Maximum Force            0.036755     0.000450     NO 
 RMS     Force            0.006756     0.000300     NO 
 Maximum Displacement     0.151451     0.001800     NO 
 RMS     Displacement     0.022572     0.001200     NO 
 Predicted change in Energy=-5.747168D-03
 GradGradGradGradGradGradGradGradGradGradGradGradGradGradGradGradGradGrad

                          Input orientation:                          
 ---------------------------------------------------------------------
 Center     Atomic      Atomic             Coordinates (Angstroms)
 Number     Number       Type             X           Y           Z
 ---------------------------------------------------------------------
      1          6           0       -0.274463   -1.935727    0.530694
      2          6           0        0.311469   -0.095159   -0.821602
      3          6           0       -2.040355   -0.715069    0.044218
      4          6           0       -1.113689    0.302742   -0.935621
      5          6           0       -1.011721   -2.693621   -0.450980
      6          6           0       -2.135922   -1.995702   -0.709005
      7          1           0       -2.905522   -2.244837   -1.430011
      8          6           0       -3.248333    0.127002    0.408070
      9          1           0       -3.972515    0.116908   -0.418298
     10          1           0       -3.761881   -0.245172    1.302503
     11          6           0       -2.694575    1.542624    0.599907
     12          1           0       -3.450835    2.316285    0.430938
     13          1           0       -2.257675    1.677008    1.598202
     14          6           0       -1.574358    1.666408   -0.419198
     15          8           0       -1.124168    2.716450   -0.821657
     16          1           0       -0.689904   -3.630941   -0.886682
     17          1           0       -1.471398    0.208040   -1.969401
     18          1           0        0.797527   -0.581056   -1.662833
     19          6           0        1.134829    0.515619    0.199750
     20          8           0        0.704669    1.040328    1.210059
     21          7           0       -1.164195   -1.065369    1.150012
     22          1           0       -0.725563   -0.283987    1.647013
     23          1           0        0.651508   -2.256470    1.002696
     24         35           0        3.018070    0.328595    0.009025
 ---------------------------------------------------------------------
                    Distance matrix (angstroms):
                    1          2          3          4          5
     1  C    0.000000
     2  C    2.357904   0.000000
     3  C    2.201145   2.581668   0.000000
     4  C    2.804483   1.484049   1.689596   0.000000
     5  C    1.442788   2.939422   2.284289   3.037016   0.000000
     6  C    2.237293   3.100720   1.488791   2.525700   1.348145
     7  H    3.295814   3.916671   2.293918   3.153609   2.178621
     8  C    3.621297   3.772750   1.516800   2.528457   3.700853
     9  H    4.334684   4.308148   2.153915   2.911193   4.082455
    10  H    3.951676   4.596357   2.183514   3.510317   4.078355
    11  C    4.238001   3.706659   2.415361   2.528706   4.677834
    12  H    5.308380   4.640996   3.365726   3.374031   5.641473
    13  H    4.257294   3.949243   2.860791   3.101220   4.985373
    14  C    3.945554   2.611779   2.470494   1.529213   4.396297
    15  O    4.918699   3.156929   3.655743   2.416419   5.423920
    16  H    2.248399   3.675424   3.345535   3.956748   1.082577
    17  H    3.504121   2.141959   2.287030   1.098010   3.307045
    18  H    2.792106   1.086287   3.314447   2.227708   3.033958
    19  C    2.846880   1.447111   3.408897   2.527888   3.915399
    20  O    3.205798   2.360420   3.460601   2.907646   4.432541
    21  N    1.390216   2.646914   1.453667   2.494824   2.288586
    22  H    2.043992   2.684241   2.117418   2.676731   3.207771
    23  H    1.087697   2.848676   3.246648   3.663681   2.251801
    24  Br   4.029897   2.862726   5.165089   4.238450   5.058124
                    6          7          8          9         10
     6  C    0.000000
     7  H    1.083607   0.000000
     8  C    2.644086   3.020213   0.000000
     9  H    2.814375   2.782064   1.098829   0.000000
    10  H    3.123181   3.492656   1.096474   1.771052   0.000000
    11  C    3.813803   4.302316   1.532133   2.168533   2.197498
    12  H    4.649914   4.956242   2.198747   2.414666   2.723498
    13  H    4.338989   4.997064   2.190967   3.072598   2.458627
    14  C    3.716234   4.253420   2.419987   2.855190   3.376929
    15  O    4.820862   5.306382   3.567848   3.877292   4.498976
    16  H    2.190101   2.669355   4.726953   5.004127   5.068827
    17  H    2.624247   2.892103   2.969248   2.944454   4.019586
    18  H    3.393543   4.066318   4.599888   4.978888   5.449242
    19  C    4.222603   5.157585   4.405285   5.160030   5.076675
    20  O    4.579218   5.549393   4.135647   5.037887   4.648776
    21  N    2.294715   3.328646   2.513138   3.426958   2.728360
    22  H    3.235722   4.250322   2.840469   3.868969   3.056046
    23  H    3.281415   4.309369   4.609044   5.388296   4.859342
    24  Br   5.699260   6.616822   6.282332   7.006832   6.926040
                   11         12         13         14         15
    11  C    0.000000
    12  H    1.095003   0.000000
    13  H    1.097968   1.787404   0.000000
    14  C    1.519469   2.160147   2.130009   0.000000
    15  O    2.421754   2.672546   2.867228   1.211293   0.000000
    16  H    5.744077   6.687927   6.066867   5.390984   6.362561
    17  H    3.143027   3.758257   3.937498   2.130861   2.780288
    18  H    4.671701   5.552211   5.006742   3.496221   3.908201
    19  C    3.984871   4.931953   3.848841   3.007841   3.315116
    20  O    3.489907   4.416255   3.054750   2.870614   3.206541
    21  N    3.073485   4.145043   2.986169   3.176990   4.265119
    22  H    2.882697   3.958201   2.489026   2.965421   3.905872
    23  H    5.078545   6.169782   4.928511   4.729190   5.586701
    24  Br   5.870036   6.780535   5.672494   4.802449   4.852837
                   16         17         18         19         20
    16  H    0.000000
    17  H    4.064577   0.000000
    18  H    3.480899   2.421710   0.000000
    19  C    4.658750   3.404738   2.187621   0.000000
    20  O    5.306780   3.941693   3.300155   1.216997   0.000000
    21  N    3.309869   3.383295   3.463381   2.947547   2.816064
    22  H    4.197974   3.725159   3.655562   2.488976   1.997574
    23  H    2.694125   4.406121   3.151726   2.926227   3.303741
    24  Br   5.498117   4.907549   2.924618   1.902092   2.702013
                   21         22         23         24
    21  N    0.000000
    22  H    1.024679   0.000000
    23  H    2.176511   2.490414   0.000000
    24  Br   4.553716   4.131955   3.642878   0.000000
 Stoichiometry    C10H10BrNO2
 Framework group  C1[X(C10H10BrNO2)]
 Deg. of freedom    66
 Full point group                 C1      NOp   1
 Largest Abelian subgroup         C1      NOp   1
 Largest concise Abelian subgroup C1      NOp   1
                         Standard orientation:                         
 ---------------------------------------------------------------------
 Center     Atomic      Atomic             Coordinates (Angstroms)
 Number     Number       Type             X           Y           Z
 ---------------------------------------------------------------------
      1          6           0        0.449550    1.973727    0.535079
      2          6           0       -0.282031    0.201476   -0.837373
      3          6           0        2.105480    0.604107    0.058555
      4          6           0        1.103356   -0.320815   -0.938943
      5          6           0        1.262435    2.669497   -0.432784
      6          6           0        2.323072    1.876091   -0.683879
      7          1           0        3.119982    2.060540   -1.394596
      8          6           0        3.229620   -0.344413    0.429100
      9          1           0        3.961265   -0.393322   -0.389270
     10          1           0        3.763907   -0.025261    1.331837
     11          6           0        2.550124   -1.706417    0.604209
     12          1           0        3.236550   -2.543133    0.437600
     13          1           0        2.091592   -1.807977    1.596664
     14          6           0        1.435102   -1.723405   -0.427887
     15          8           0        0.898053   -2.726589   -0.843133
     16          1           0        1.030179    3.634563   -0.864847
     17          1           0        1.479897   -0.251504   -1.968039
     18          1           0       -0.713320    0.734185   -1.680124
     19          6           0       -1.168057   -0.340369    0.170344
     20          8           0       -0.797829   -0.907876    1.181260
     21          7           0        1.251279    1.023653    1.157404
[...]
 Frc consts  --     23.0678                27.4756                 5.8919
 IR Inten    --      0.0000                 0.0000                 0.0000
  Atom  AN      X      Y      Z        X      Y      Z        X      Y      Z
     1   6     0.03  -0.01   0.03    -0.00   0.00  -0.00    -0.00  -0.00   0.00
     2   6     0.05   0.04  -0.12     0.00  -0.00   0.00    -0.00  -0.00  -0.00
     3   6    -0.00  -0.01   0.00    -0.01  -0.03  -0.00     0.00  -0.00   0.00
     4   6     0.01   0.00   0.01    -0.02  -0.01  -0.01     0.00  -0.00  -0.00
     5   6    -0.00   0.00  -0.00    -0.00   0.00   0.00     0.00   0.00  -0.00
     6   6    -0.00   0.00  -0.01    -0.00   0.00  -0.00    -0.00  -0.00  -0.00
     7   1     0.00   0.01  -0.00     0.00  -0.00  -0.00    -0.00  -0.00   0.00
     8   6     0.00  -0.00  -0.00    -0.01  -0.01  -0.01    -0.00  -0.00   0.01
     9   1     0.01   0.01   0.00     0.01   0.02   0.01     0.06  -0.00  -0.08
    10   1    -0.00   0.01  -0.00    -0.02  -0.02  -0.01    -0.01  -0.00  -0.01
    11   6    -0.00  -0.00  -0.00    -0.02  -0.03  -0.02     0.01   0.03  -0.07
    12   1     0.02   0.02  -0.01     0.09   0.06   0.06     0.22  -0.25  -0.08
    13   1    -0.04   0.00  -0.01    -0.01  -0.00   0.01    -0.32  -0.10   0.87
    14   6     0.02   0.05   0.03     0.37   0.69   0.24     0.00  -0.00  -0.00
    15   8    -0.02  -0.04  -0.02    -0.24  -0.47  -0.16     0.00   0.00   0.00
    16   1     0.01   0.01  -0.01     0.00   0.00  -0.00    -0.00   0.00   0.00
    17   1    -0.06   0.04  -0.01     0.01   0.02   0.00    -0.00  -0.00   0.00
    18   1     0.14   0.11  -0.14    -0.04  -0.00   0.04    -0.00   0.00  -0.00
    19   6     0.11  -0.35   0.70    -0.01   0.03  -0.06    -0.00   0.00  -0.00
    20   8    -0.14   0.22  -0.43     0.01  -0.02   0.04     0.00  -0.00   0.00
    21   7    -0.03   0.01  -0.01    -0.00   0.00   0.00     0.00  -0.00   0.00
    22   1    -0.12   0.05  -0.13     0.03  -0.02  -0.00    -0.00   0.00  -0.00
    23   1    -0.01  -0.03  -0.02     0.00   0.01   0.00    -0.00   0.00   0.00
    24  35     0.00  -0.00  -0.00    -0.00  -0.00   0.00     0.00  -0.00   0.00
                     58                     59                     60
                      A                      A                      A
 Frequencies --   3076.4037              3093.9900              3141.8620
 Red. masses --      1.0639                 1.0850                 1.1014
 Frc consts  --      5.9324                 6.1197                 6.4056
 IR Inten    --      0.0000                 0.0000                 0.0000
  Atom  AN      X      Y      Z        X      Y      Z        X      Y      Z
     1   6    -0.00   0.00  -0.00     0.00  -0.00   0.00    -0.00   0.00  -0.00
     2   6    -0.00   0.00  -0.00    -0.00  -0.00   0.00     0.00  -0.00  -0.00
     3   6    -0.00   0.00  -0.00    -0.00  -0.00  -0.00     0.00  -0.00  -0.00
     4   6    -0.00  -0.00   0.00     0.03   0.01  -0.08     0.00   0.00   0.00
     5   6     0.00  -0.00  -0.00     0.00   0.00  -0.00    -0.00   0.00   0.00
     6   6    -0.00   0.00   0.00    -0.00   0.00   0.00    -0.00  -0.00   0.00
     7   1     0.00  -0.00  -0.00     0.00  -0.00  -0.00     0.00  -0.00  -0.00
     8   6     0.07   0.01  -0.02     0.00   0.00  -0.00    -0.01  -0.02  -0.07
     9   1    -0.51  -0.01   0.68    -0.03  -0.00   0.04    -0.22  -0.01   0.29
    10   1    -0.25  -0.16  -0.41    -0.02  -0.01  -0.03     0.37   0.23   0.56
    11   6    -0.00   0.01  -0.00    -0.00   0.00   0.00    -0.04   0.04   0.02
    12   1     0.06  -0.06  -0.02     0.01  -0.01  -0.00     0.37  -0.43  -0.10
    13   1    -0.02  -0.01   0.05     0.00   0.00  -0.00     0.05   0.02  -0.15
    14   6    -0.00  -0.00  -0.00     0.00   0.00  -0.00     0.00   0.00   0.00
    15   8     0.00   0.00   0.00    -0.00  -0.00   0.00    -0.00  -0.00  -0.00
    16   1     0.00  -0.00  -0.00     0.00  -0.00   0.00    -0.00  -0.00  -0.00
    17   1     0.02   0.01  -0.06    -0.33  -0.08   0.93     0.00  -0.00   0.00
    18   1     0.00  -0.00   0.00    -0.02   0.01  -0.03     0.00  -0.00   0.00
    19   6    -0.00   0.00  -0.00    -0.00   0.00   0.00     0.00   0.00   0.00
    20   8     0.00  -0.00   0.00     0.00  -0.00   0.00    -0.00   0.00  -0.00
    21   7    -0.00   0.00   0.00    -0.00   0.00   0.00    -0.00   0.00   0.00
    22   1    -0.00  -0.00   0.00     0.00   0.00   0.00    -0.00  -0.00  -0.00
    23   1     0.00  -0.00  -0.00    -0.00   0.00   0.00     0.00  -0.00  -0.00
    24  35     0.00  -0.00   0.00     0.00  -0.00  -0.00    -0.00  -0.00  -0.00
                     61                     62                     63
                      A                      A                      A
 Frequencies --   3146.9358              3239.8007              3244.8020
 Red. masses --      1.1014                 1.0924                 1.0949
 Frc consts  --      6.4262                 6.7554                 6.7921
 IR Inten    --      0.0000                 0.0000                 0.0000
  Atom  AN      X      Y      Z        X      Y      Z        X      Y      Z
     1   6    -0.00   0.00  -0.00    -0.06   0.02   0.03     0.05  -0.01  -0.03
     2   6     0.00  -0.00   0.00    -0.00   0.00  -0.00    -0.00   0.00  -0.01
     3   6     0.00  -0.00  -0.00     0.00  -0.00  -0.00    -0.00  -0.00   0.00
     4   6     0.00   0.00  -0.00     0.00  -0.00  -0.00     0.00  -0.00  -0.00
     5   6    -0.00   0.00   0.00     0.01  -0.03   0.01     0.00  -0.01   0.01
     6   6    -0.00   0.00   0.00     0.03   0.01  -0.03     0.05   0.01  -0.05
     7   1     0.00  -0.00  -0.00    -0.33  -0.10   0.36    -0.50  -0.15   0.56
     8   6    -0.00  -0.01  -0.06     0.00   0.00  -0.00     0.00   0.00  -0.00
     9   1    -0.21  -0.01   0.27    -0.00   0.00   0.00    -0.00   0.00   0.00
    10   1     0.26   0.16   0.39     0.00   0.00   0.00    -0.00   0.00  -0.00
    11   6     0.05  -0.04  -0.03     0.00  -0.00  -0.00    -0.00   0.00  -0.00
    12   1    -0.47   0.55   0.13    -0.00   0.00   0.00    -0.00   0.00   0.00
    13   1    -0.10  -0.04   0.28    -0.00  -0.00   0.00    -0.00  -0.00  -0.00
    14   6    -0.00  -0.00  -0.00     0.00   0.00  -0.00     0.00  -0.00   0.00
    15   8     0.00   0.00   0.00    -0.00   0.00  -0.00    -0.00   0.00  -0.00
    16   1     0.00  -0.00   0.00    -0.14   0.32  -0.17    -0.07   0.17  -0.09
    17   1    -0.00  -0.00   0.01    -0.00  -0.00   0.00    -0.00   0.00   0.00
    18   1     0.00  -0.00   0.00     0.01  -0.01   0.01     0.05  -0.04   0.09
    19   6    -0.00   0.00  -0.00     0.00  -0.00  -0.00    -0.00  -0.00   0.00
    20   8     0.00  -0.00   0.00    -0.00   0.00   0.00     0.00  -0.00   0.00
    21   7    -0.00   0.00   0.00     0.00  -0.00   0.00    -0.00   0.00  -0.00
    22   1    -0.00   0.00  -0.00    -0.01  -0.00   0.00     0.00   0.00  -0.00
    23   1    -0.00   0.00   0.00     0.64  -0.19  -0.38    -0.50   0.15   0.30
    24  35     0.00   0.00   0.00     0.00   0.00   0.00    -0.00  -0.00   0.00
                     64                     65                     66
                      A                      A                      A
 Frequencies --   3246.4997              3270.2000              3462.6827
 Red. masses --      1.0920                 1.1069                 1.0784
 Frc consts  --      6.7815                 6.9742                 7.6186
 IR Inten    --      0.0000                 0.0000                 0.0000
  Atom  AN      X      Y      Z        X      Y      Z        X      Y      Z
     1   6    -0.00   0.00   0.00     0.02  -0.00  -0.01    -0.00  -0.00   0.00
     2   6    -0.04   0.03  -0.07     0.00  -0.00   0.00    -0.00  -0.00   0.00
     3   6     0.00   0.00   0.00    -0.00   0.00  -0.00     0.00   0.00  -0.00
     4   6     0.00  -0.00  -0.00    -0.00   0.00   0.00     0.00  -0.00   0.00
     5   6    -0.00   0.00  -0.00     0.03  -0.07   0.03     0.00   0.00  -0.00
     6   6    -0.01  -0.00   0.01    -0.03  -0.00   0.03    -0.00   0.00  -0.00
     7   1     0.06   0.02  -0.07     0.26   0.08  -0.28    -0.00   0.00  -0.00
     8   6    -0.00   0.00   0.00    -0.00  -0.00   0.00    -0.00   0.00   0.00
     9   1     0.00  -0.00  -0.00     0.00  -0.00  -0.00    -0.00  -0.00   0.00
    10   1    -0.00  -0.00  -0.00     0.00   0.00   0.00    -0.00  -0.00  -0.00
    11   6    -0.00   0.00  -0.00     0.00  -0.00  -0.00    -0.00   0.00   0.00
    12   1    -0.00  -0.00  -0.00    -0.00  -0.00   0.00    -0.00  -0.00   0.00
    13   1    -0.00   0.00   0.00    -0.00   0.00   0.00     0.00  -0.00  -0.00
    14   6     0.00  -0.00   0.00     0.00  -0.00   0.00     0.00   0.00  -0.00
    15   8     0.00   0.00   0.00    -0.00   0.00  -0.00    -0.00  -0.00   0.00
    16   1     0.01  -0.02   0.01    -0.33   0.74  -0.38     0.00   0.00   0.00
    17   1    -0.01  -0.00   0.03    -0.00  -0.00  -0.00     0.00  -0.00  -0.00
    18   1     0.44  -0.39   0.80    -0.00   0.00  -0.00    -0.00  -0.00   0.00
    19   6    -0.00  -0.00   0.00    -0.00   0.00  -0.00    -0.00   0.00  -0.00
    20   8     0.00  -0.00   0.00     0.00  -0.00   0.00     0.00  -0.00   0.00
    21   7     0.00  -0.00   0.00    -0.00   0.00  -0.00    -0.03  -0.05   0.04
    22   1    -0.00  -0.00   0.00     0.00   0.00  -0.00     0.35   0.75  -0.55
    23   1     0.05  -0.01  -0.03    -0.16   0.05   0.10     0.01  -0.00  -0.00
    24  35     0.00  -0.00   0.00    -0.00  -0.00  -0.00     0.00  -0.00   0.00

 -------------------
 - Thermochemistry -
 -------------------
 Temperature   298.150 Kelvin.  Pressure   1.00000 Atm.
 Atom     1 has atomic number  6 and mass  12.00000
 Atom     2 has atomic number  6 and mass  12.00000
 Atom     3 has atomic number  6 and mass  12.00000
 Atom     4 has atomic number  6 and mass  12.00000
 Atom     5 has atomic number  6 and mass  12.00000
 Atom     6 has atomic number  6 and mass  12.00000
 Atom     7 has atomic number  1 and mass   1.00783
 Atom     8 has atomic number  6 and mass  12.00000
 Atom     9 has atomic number  1 and mass   1.00783
 Atom    10 has atomic number  1 and mass   1.00783
 Atom    11 has atomic number  6 and mass  12.00000
 Atom    12 has atomic number  1 and mass   1.00783
 Atom    13 has atomic number  1 and mass   1.00783
 Atom    14 has atomic number  6 and mass  12.00000
 Atom    15 has atomic number  8 and mass  15.99491
 Atom    16 has atomic number  1 and mass   1.00783
 Atom    17 has atomic number  1 and mass   1.00783
 Atom    18 has atomic number  1 and mass   1.00783
 Atom    19 has atomic number  6 and mass  12.00000
 Atom    20 has atomic number  8 and mass  15.99491
 Atom    21 has atomic number  7 and mass  14.00307
 Atom    22 has atomic number  1 and mass   1.00783
 Atom    23 has atomic number  1 and mass   1.00783
 Atom    24 has atomic number 35 and mass  78.91834
 Molecular mass:   254.98949 amu.
 Principal axes and moments of inertia in atomic units:
                           1         2         3
     Eigenvalues --  1900.702514748.756525872.55048
           X            0.99997  -0.00738  -0.00003
           Y            0.00738   0.99972  -0.02254
           Z            0.00020   0.02254   0.99975
 This molecule is an asymmetric top.
 Rotational symmetry number  1.
 Warning -- assumption of classical behavior for rotation
           may cause significant error
 Rotational temperatures (Kelvin)      0.04557     0.01824     0.01475
 Rotational constants (GHZ):           0.94951     0.38005     0.30732
    3 imaginary frequencies ignored.
 Zero-point vibrational energy     470616.3 (Joules/Mol)
                                  112.47999 (Kcal/Mol)
 Warning -- explicit consideration of  16 degrees of freedom as
           vibrations may cause significant error
 Vibrational temperatures:     87.66   130.83   229.77   278.64   369.03
          (Kelvin)            399.41   431.32   512.77   530.86   576.55
                              628.10   743.22   776.27   812.15   833.63
                              868.73   924.56   971.20   988.64  1044.28
                             1075.35  1128.24  1152.17  1193.46  1225.61
                             1261.73  1275.15  1289.35  1363.97  1408.02
                             1456.15  1466.51  1483.94  1496.64  1536.51
                             1575.37  1620.24  1638.42  1695.07  1740.40
                             1763.09  1805.45  1831.77  1871.74  1923.04
                             1958.84  1981.20  2011.95  2080.98  2125.39
                             2285.48  2604.10  2725.89  4401.41  4426.26
                             4451.56  4520.44  4527.74  4661.35  4668.55
                             4670.99  4705.09  4982.03
 
 Zero-point correction=                           0.179248 (Hartree/Particle)
 Thermal correction to Energy=                    0.189885
 Thermal correction to Enthalpy=                  0.190829
 Thermal correction to Gibbs Free Energy=         0.141942
 Sum of electronic and zero-point Energies=          -3165.333578
 Sum of electronic and thermal Energies=             -3165.322941
 Sum of electronic and thermal Enthalpies=           -3165.321997
 Sum of electronic and thermal Free Energies=        -3165.370884
 
                     E (Thermal)             CV                S
                      KCal/Mol        Cal/Mol-Kelvin    Cal/Mol-Kelvin
 Total                  119.154             43.733            102.890
 Electronic               0.000              0.000              0.000
 Translational            0.889              2.981             42.508
 Rotational               0.889              2.981             32.339
 Vibrational            117.377             37.772             28.044
 Vibration     1          0.597              1.973              4.427
 Vibration     2          0.602              1.956              3.640
 Vibration     3          0.622              1.892              2.553
 Vibration     4          0.635              1.849              2.192
 Vibration     5          0.666              1.752              1.686
 Vibration     6          0.679              1.715              1.548
 Vibration     7          0.692              1.674              1.418
 Vibration     8          0.732              1.562              1.138
 Vibration     9          0.741              1.536              1.084
 Vibration    10          0.767              1.469              0.960
 Vibration    11          0.797              1.391              0.838
 Vibration    12          0.872              1.213              0.618
 Vibration    13          0.895              1.163              0.566
 Vibration    14          0.920              1.108              0.515
 Vibration    15          0.936              1.076              0.486
 Vibration    16          0.962              1.024              0.443
                       Q            Log10(Q)             Ln(Q)
 Total Bot       0.514193D-65        -65.288874       -150.333188
 Total V=0       0.144390D+18         17.159538         39.511297
 Vib (Bot)       0.123277D-79        -79.909117       -183.997542
 Vib (Bot)    1  0.338902D+01          0.530075          1.220542
 Vib (Bot)    2  0.226076D+01          0.354254          0.815700
 Vib (Bot)    3  0.126602D+01          0.102440          0.235878
 Vib (Bot)    4  0.103206D+01          0.013706          0.031560
 Vib (Bot)    5  0.758562D+00         -0.120009         -0.276331
 Vib (Bot)    6  0.693446D+00         -0.158987         -0.366081
 Vib (Bot)    7  0.634463D+00         -0.197594         -0.454977
 Vib (Bot)    8  0.515524D+00         -0.287751         -0.662572
 Vib (Bot)    9  0.493782D+00         -0.306465         -0.705661
 Vib (Bot)   10  0.444555D+00         -0.352075         -0.810682
 Vib (Bot)   11  0.397075D+00         -0.401128         -0.923631
 Vib (Bot)   12  0.313456D+00         -0.503823         -1.160095
 Vib (Bot)   13  0.293781D+00         -0.531977         -1.224922
 Vib (Bot)   14  0.274139D+00         -0.562029         -1.294119
 Vib (Bot)   15  0.263158D+00         -0.579784         -1.335002
 Vib (Bot)   16  0.246336D+00         -0.608472         -1.401059
 Vib (V=0)       0.346174D+03          2.539295          5.846943
 Vib (V=0)    1  0.392571D+01          0.593918          1.367547
 Vib (V=0)    2  0.281539D+01          0.449539          1.035101
 Vib (V=0)    3  0.186118D+01          0.269788          0.621210
 Vib (V=0)    4  0.164680D+01          0.216641          0.498835
 Vib (V=0)    5  0.140852D+01          0.148764          0.342543
 Vib (V=0)    6  0.135491D+01          0.131910          0.303734
 Vib (V=0)    7  0.130780D+01          0.116542          0.268347
 Vib (V=0)    8  0.121817D+01          0.085707          0.197348
 Vib (V=0)    9  0.120272D+01          0.080166          0.184589
 Vib (V=0)   10  0.116905D+01          0.067833          0.156192
 Vib (V=0)   11  0.113849D+01          0.056329          0.129702
 Vib (V=0)   12  0.109013D+01          0.037479          0.086298
 Vib (V=0)   13  0.107992D+01          0.033392          0.076887
 Vib (V=0)   14  0.107022D+01          0.029474          0.067865
 Vib (V=0)   15  0.106502D+01          0.027359          0.062997
 Vib (V=0)   16  0.105739D+01          0.024234          0.055802
 Electronic      0.100000D+01          0.000000          0.000000
 Translational   0.160043D+09          8.204237         18.890955
 Rotational      0.260619D+07          6.416006         14.773400
 ***** Axes restored to original set *****
 -------------------------------------------------------------------
 Center     Atomic                   Forces (Hartrees/Bohr)
 Number     Number              X              Y              Z
 -------------------------------------------------------------------
      1        6           0.000550882   -0.001161008   -0.000997030
      2        6          -0.001325113   -0.001163355   -0.000175522
      3        6           0.000021729    0.000082310    0.000088847
      4        6           0.000476890    0.000664399   -0.001356326
      5        6          -0.000033181   -0.000107530   -0.000136221
      6        6           0.000190061   -0.000023367    0.000074160
      7        1          -0.000090919    0.000146633   -0.000014965
      8        6           0.000067031   -0.000047491    0.000033030
      9        1          -0.000108947    0.000128924    0.000110229
     10        1           0.000125479   -0.000148006    0.000041854
     11        6          -0.000171463    0.000333975    0.000569686
     12        1          -0.000227942   -0.000206926   -0.000011596
     13        1          -0.000029959    0.000228267   -0.000082915
     14        6           0.000167016   -0.000632282    0.001036755
     15        8          -0.000331054    0.000245794   -0.000656058
     16        1          -0.000110705    0.000012020   -0.000212963
     17        1          -0.000541800    0.000090495    0.000159040
     18        1           0.000103073   -0.000522431    0.000359091
     19        6           0.001264408    0.000763547    0.001471572
     20        8          -0.000257874    0.000936021   -0.001778783
     21        7          -0.000222435    0.001528585    0.000544108
     22        1          -0.000209565   -0.001030697    0.000081788
     23        1           0.000036622    0.000097324   -0.000243439
     24       35           0.000657761   -0.000215199    0.001095660
 -------------------------------------------------------------------
 Cartesian Forces:  Max     0.001778783 RMS     0.000601151


 PERICLES, SOPHOCLES,
 PELOPONESIAN WAR,
 FRENCH VERBS, LATIN VERBS
 H2SO4.
 Error termination request processed by link 9999.
 Error termination via Lnk1e in /apps/gaussian/g16/C.01/g16/l9999.exe at Thu Jan 18 17:59:11 2024.
 Job cpu time:       1 days 12 hours 17 minutes 30.6 seconds.
 Elapsed time:       0 days  5 hours 41 minutes 57.3 seconds.
 File lengths (MBytes):  RWF=      6 Int=      0 D2E=      0 Chk=      2 Scr=      1
