Unloading slurm/anatra/current
  ERROR: No such file or directory on
    '/cm/local/modulefiles/slurm/anatra/current'
environment: line 0: unalias: gv: not found
environment: line 0: unalias: sl: not found
 Entering Gaussian System, Link 0=g16
 Initial command:
 /apps/gaussian/g16/C.01/g16/l1.exe "/local/jobs/1158156/Gau-77359.inp" -scrdir="/local/jobs/1158156/"
 Entering Link 1 = /apps/gaussian/g16/C.01/g16/l1.exe PID=     77360.
  
 Copyright (c) 1988-2019, Gaussian, Inc.  All Rights Reserved.
  
 This is part of the Gaussian(R) 16 program.  It is based on
 the Gaussian(R) 09 system (copyright 2009, Gaussian, Inc.),
 the Gaussian(R) 03 system (copyright 2003, Gaussian, Inc.),
 the Gaussian(R) 98 system (copyright 1998, Gaussian, Inc.),
 the Gaussian(R) 94 system (copyright 1995, Gaussian, Inc.),
 the Gaussian 92(TM) system (copyright 1992, Gaussian, Inc.),
 the Gaussian 90(TM) system (copyright 1990, Gaussian, Inc.),
 the Gaussian 88(TM) system (copyright 1988, Gaussian, Inc.),
 the Gaussian 86(TM) system (copyright 1986, Carnegie Mellon
 University), and the Gaussian 82(TM) system (copyright 1983,
 Carnegie Mellon University). Gaussian is a federally registered
 trademark of Gaussian, Inc.
  
 This software contains proprietary and confidential information,
 including trade secrets, belonging to Gaussian, Inc.
  
 This software is provided under written license and may be
 used, copied, transmitted, or stored only in accord with that
 written license.
  
 The following legend is applicable only to US Government
 contracts under FAR:
  
                    RESTRICTED RIGHTS LEGEND
  
 Use, reproduction and disclosure by the US Government is
 subject to restrictions as set forth in subparagraphs (a)
 and (c) of the Commercial Computer Software - Restricted
 Rights clause in FAR 52.227-19.
  
 Gaussian, Inc.
 340 Quinnipiac St., Bldg. 40, Wallingford CT 06492
  
  
 ---------------------------------------------------------------
 Warning -- This program may not be used in any manner that
 competes with the business of Gaussian, Inc. or will provide
 assistance to any competitor of Gaussian, Inc.  The licensee
 of this program is prohibited from giving any competitor of
 Gaussian, Inc. access to this program.  By using this program,
 the user acknowledges that Gaussian, Inc. is engaged in the
 business of creating and licensing software in the field of
 computational chemistry and represents and warrants to the
 licensee that it is not a competitor of Gaussian, Inc. and that
 it will not use this program in any manner prohibited above.
 ---------------------------------------------------------------
  

 Cite this work as:
 Gaussian 16, Revision C.01,
 M. J. Frisch, G. W. Trucks, H. B. Schlegel, G. E. Scuseria, 
 M. A. Robb, J. R. Cheeseman, G. Scalmani, V. Barone, 
 G. A. Petersson, H. Nakatsuji, X. Li, M. Caricato, A. V. Marenich, 
 J. Bloino, B. G. Janesko, R. Gomperts, B. Mennucci, H. P. Hratchian, 
 J. V. Ortiz, A. F. Izmaylov, J. L. Sonnenberg, D. Williams-Young, 
 F. Ding, F. Lipparini, F. Egidi, J. Goings, B. Peng, A. Petrone, 
 T. Henderson, D. Ranasinghe, V. G. Zakrzewski, J. Gao, N. Rega, 
 G. Zheng, W. Liang, M. Hada, M. Ehara, K. Toyota, R. Fukuda, 
 J. Hasegawa, M. Ishida, T. Nakajima, Y. Honda, O. Kitao, H. Nakai, 
 T. Vreven, K. Throssell, J. A. Montgomery, Jr., J. E. Peralta, 
 F. Ogliaro, M. J. Bearpark, J. J. Heyd, E. N. Brothers, K. N. Kudin, 
 V. N. Staroverov, T. A. Keith, R. Kobayashi, J. Normand, 
 K. Raghavachari, A. P. Rendell, J. C. Burant, S. S. Iyengar, 
 J. Tomasi, M. Cossi, J. M. Millam, M. Klene, C. Adamo, R. Cammi, 
 J. W. Ochterski, R. L. Martin, K. Morokuma, O. Farkas, 
 J. B. Foresman, and D. J. Fox, Gaussian, Inc., Wallingford CT, 2019.
 
 ******************************************
 Gaussian 16:  ES64L-G16RevC.01  3-Jul-2019
                18-Jan-2024 
 ******************************************
 %nprocshared=12
 Will use up to   12 processors via shared memory.
 %mem=48GB
 ----------------------------------------------------------------------
 # external="~/scripts/MiMe -H 'pbepbe def2svp' -EF 'wb97xd def2svp' -c
  12 -m 48GB" opt=(calcall,ts,noeigen,maxcycles=50,maxstep=10,nomicro)
 ----------------------------------------------------------------------
 1/5=1,6=50,8=10,10=4,11=1,18=20,26=1,38=1/1,3;
 2/9=110,12=2,17=6,18=5,40=1/2;
 3/11=9,25=1,30=1,41=9900000,43=2,71=2,140=1/1;
 4/20=17,22=2,24=3,113=1,114=1/2;
 6/7=2,8=2,9=2,10=2,18=1/1;
 7/25=1,44=-1/16;
 1/5=1,6=50,8=10,10=4,11=1,18=20,26=1/3(3);
 2/9=110/2;
 7/8=1,9=1,25=1,44=-1/16;
 99//99;
 2/9=110/2;
 3/11=9,25=1,30=1,41=9900000,43=2,71=2,140=1/1;
 4/16=2,20=17,22=2,24=3,113=1,114=1/2;
 7/25=1,44=-1/16;
 1/5=1,6=50,8=10,10=4,11=1,18=20,26=1/3(-4);
 2/9=110/2;
 6/7=2,8=2,9=2,10=2,18=1/1;
 7/8=1,9=1,25=1,44=-1/16;
 99//99;
 -----
 *****
 -----
 Symbolic Z-matrix:
 Charge =  0 Multiplicity = 1
 C                    -1.3702   -1.1403    0.2064 
 C                    -0.7558    1.0745    0.4479 
 C                     0.8224   -1.0488   -0.4901 
 C                     0.4828    1.0089   -0.3265 
 C                    -0.5147   -1.684     1.261 
 C                     0.7603   -1.6448    0.8547 
 H                     1.6214   -1.9327    1.4402 
 C                     2.1344   -0.8467   -1.1832 
 H                     2.732    -1.7637   -1.2043 
 H                     1.9589   -0.5494   -2.2243 
 C                     2.8795    0.2805   -0.4393 
 H                     3.5219   -0.1491    0.3372 
 H                     3.493     0.8687   -1.1278 
 C                     1.8545    1.1796    0.2336 
 O                     2.1015    1.9406    1.1586 
 H                    -0.8674   -2.0171    2.2257 
 H                     0.4116    1.3562   -1.3585 
 H                    -0.7091    1.1299    1.5312 
 C                    -0.5513   -1.3121   -1.0671 
 H                    -0.6272   -2.3346   -1.4563 
 H                    -0.8476   -0.617    -1.8576 
 Cl                   -2.0176    2.097    -0.1611 
 C                    -2.8412   -1.3691    0.2271 
 H                    -3.3446   -0.7133   -0.4888 
 H                    -3.0749   -2.4056   -0.0352 
 H                    -3.253    -1.1641    1.2206 
 

 GradGradGradGradGradGradGradGradGradGradGradGradGradGradGradGradGradGrad
 Berny optimization.
 Initialization pass.
                           ----------------------------
                           !    Initial Parameters    !
                           ! (Angstroms and Degrees)  !
 --------------------------                            --------------------------
 ! Name  Definition              Value          Derivative Info.                !
 --------------------------------------------------------------------------------
 ! R1    R(1,5)                  1.4628         calculate D2E/DX2 analytically  !
 ! R2    R(1,19)                 1.5238         calculate D2E/DX2 analytically  !
 ! R3    R(1,23)                 1.4888         calculate D2E/DX2 analytically  !
 ! R4    R(2,4)                  1.4622         calculate D2E/DX2 analytically  !
 ! R5    R(2,18)                 1.0857         calculate D2E/DX2 analytically  !
 ! R6    R(2,22)                 1.7345         calculate D2E/DX2 analytically  !
 ! R7    R(3,6)                  1.4723         calculate D2E/DX2 analytically  !
 ! R8    R(3,8)                  1.4975         calculate D2E/DX2 analytically  !
 ! R9    R(3,19)                 1.513          calculate D2E/DX2 analytically  !
 ! R10   R(4,14)                 1.4914         calculate D2E/DX2 analytically  !
 ! R11   R(4,17)                 1.0912         calculate D2E/DX2 analytically  !
 ! R12   R(5,6)                  1.3387         calculate D2E/DX2 analytically  !
 ! R13   R(5,16)                 1.0798         calculate D2E/DX2 analytically  !
 ! R14   R(6,7)                  1.0804         calculate D2E/DX2 analytically  !
 ! R15   R(8,9)                  1.0947         calculate D2E/DX2 analytically  !
 ! R16   R(8,10)                 1.0968         calculate D2E/DX2 analytically  !
 ! R17   R(8,11)                 1.5424         calculate D2E/DX2 analytically  !
 ! R18   R(11,12)                1.0955         calculate D2E/DX2 analytically  !
 ! R19   R(11,13)                1.0938         calculate D2E/DX2 analytically  !
 ! R20   R(11,14)                1.5205         calculate D2E/DX2 analytically  !
 ! R21   R(14,15)                1.223          calculate D2E/DX2 analytically  !
 ! R22   R(19,20)                1.0967         calculate D2E/DX2 analytically  !
 ! R23   R(19,21)                1.0935         calculate D2E/DX2 analytically  !
 ! R24   R(23,24)                1.0936         calculate D2E/DX2 analytically  !
 ! R25   R(23,25)                1.0944         calculate D2E/DX2 analytically  !
 ! R26   R(23,26)                1.0948         calculate D2E/DX2 analytically  !
 ! A1    A(5,1,19)             104.2605         calculate D2E/DX2 analytically  !
 ! A2    A(5,1,23)             120.7107         calculate D2E/DX2 analytically  !
 ! A3    A(19,1,23)            121.6864         calculate D2E/DX2 analytically  !
 ! A4    A(4,2,18)             119.6219         calculate D2E/DX2 analytically  !
 ! A5    A(4,2,22)             117.1749         calculate D2E/DX2 analytically  !
 ! A6    A(18,2,22)            110.5813         calculate D2E/DX2 analytically  !
 ! A7    A(6,3,8)              120.9539         calculate D2E/DX2 analytically  !
 ! A8    A(6,3,19)             103.8625         calculate D2E/DX2 analytically  !
 ! A9    A(8,3,19)             129.9718         calculate D2E/DX2 analytically  !
 ! A10   A(2,4,14)             125.1017         calculate D2E/DX2 analytically  !
 ! A11   A(2,4,17)             115.5514         calculate D2E/DX2 analytically  !
 ! A12   A(14,4,17)            112.2564         calculate D2E/DX2 analytically  !
 ! A13   A(1,5,6)              109.1057         calculate D2E/DX2 analytically  !
 ! A14   A(1,5,16)             124.5925         calculate D2E/DX2 analytically  !
 ! A15   A(6,5,16)             126.2457         calculate D2E/DX2 analytically  !
 ! A16   A(3,6,5)              109.2228         calculate D2E/DX2 analytically  !
 ! A17   A(3,6,7)              124.7004         calculate D2E/DX2 analytically  !
 ! A18   A(5,6,7)              125.9312         calculate D2E/DX2 analytically  !
 ! A19   A(3,8,9)              111.9706         calculate D2E/DX2 analytically  !
 ! A20   A(3,8,10)             109.6154         calculate D2E/DX2 analytically  !
 ! A21   A(3,8,11)             107.3751         calculate D2E/DX2 analytically  !
 ! A22   A(9,8,10)             107.223          calculate D2E/DX2 analytically  !
 ! A23   A(9,8,11)             110.9612         calculate D2E/DX2 analytically  !
 ! A24   A(10,8,11)            109.6933         calculate D2E/DX2 analytically  !
 ! A25   A(8,11,12)            109.7873         calculate D2E/DX2 analytically  !
 ! A26   A(8,11,13)            111.122          calculate D2E/DX2 analytically  !
 ! A27   A(8,11,14)            108.6587         calculate D2E/DX2 analytically  !
 ! A28   A(12,11,13)           109.1555         calculate D2E/DX2 analytically  !
 ! A29   A(12,11,14)           108.2705         calculate D2E/DX2 analytically  !
 ! A30   A(13,11,14)           109.7975         calculate D2E/DX2 analytically  !
 ! A31   A(4,14,11)            112.714          calculate D2E/DX2 analytically  !
 ! A32   A(4,14,15)            122.7514         calculate D2E/DX2 analytically  !
 ! A33   A(11,14,15)           124.5081         calculate D2E/DX2 analytically  !
 ! A34   A(1,19,3)              98.6029         calculate D2E/DX2 analytically  !
 ! A35   A(1,19,20)            111.378          calculate D2E/DX2 analytically  !
 ! A36   A(1,19,21)            112.7595         calculate D2E/DX2 analytically  !
 ! A37   A(3,19,20)            111.1257         calculate D2E/DX2 analytically  !
 ! A38   A(3,19,21)            114.2711         calculate D2E/DX2 analytically  !
 ! A39   A(20,19,21)           108.5024         calculate D2E/DX2 analytically  !
 ! A40   A(1,23,24)            110.7039         calculate D2E/DX2 analytically  !
 ! A41   A(1,23,25)            110.6828         calculate D2E/DX2 analytically  !
 ! A42   A(1,23,26)            110.8222         calculate D2E/DX2 analytically  !
 ! A43   A(24,23,25)           108.2245         calculate D2E/DX2 analytically  !
 ! A44   A(24,23,26)           107.9756         calculate D2E/DX2 analytically  !
 ! A45   A(25,23,26)           108.331          calculate D2E/DX2 analytically  !
 ! D1    D(19,1,5,6)            23.0327         calculate D2E/DX2 analytically  !
 ! D2    D(19,1,5,16)         -159.5491         calculate D2E/DX2 analytically  !
 ! D3    D(23,1,5,6)           164.4171         calculate D2E/DX2 analytically  !
 ! D4    D(23,1,5,16)          -18.1646         calculate D2E/DX2 analytically  !
 ! D5    D(5,1,19,3)           -35.7111         calculate D2E/DX2 analytically  !
 ! D6    D(5,1,19,20)           81.0757         calculate D2E/DX2 analytically  !
 ! D7    D(5,1,19,21)         -156.6622         calculate D2E/DX2 analytically  !
 ! D8    D(23,1,19,3)         -176.6196         calculate D2E/DX2 analytically  !
 ! D9    D(23,1,19,20)         -59.8327         calculate D2E/DX2 analytically  !
 ! D10   D(23,1,19,21)          62.4294         calculate D2E/DX2 analytically  !
 ! D11   D(5,1,23,24)          166.9633         calculate D2E/DX2 analytically  !
 ! D12   D(5,1,23,25)          -73.0335         calculate D2E/DX2 analytically  !
 ! D13   D(5,1,23,26)           47.1809         calculate D2E/DX2 analytically  !
 ! D14   D(19,1,23,24)         -58.3383         calculate D2E/DX2 analytically  !
 ! D15   D(19,1,23,25)          61.6649         calculate D2E/DX2 analytically  !
 ! D16   D(19,1,23,26)        -178.1206         calculate D2E/DX2 analytically  !
 ! D17   D(18,2,4,14)           -7.977          calculate D2E/DX2 analytically  !
 ! D18   D(18,2,4,17)         -156.0965         calculate D2E/DX2 analytically  !
 ! D19   D(22,2,4,14)          130.3078         calculate D2E/DX2 analytically  !
 ! D20   D(22,2,4,17)          -17.8117         calculate D2E/DX2 analytically  !
 ! D21   D(8,3,6,5)            178.4424         calculate D2E/DX2 analytically  !
 ! D22   D(8,3,6,7)              2.6139         calculate D2E/DX2 analytically  !
 ! D23   D(19,3,6,5)           -24.693          calculate D2E/DX2 analytically  !
 ! D24   D(19,3,6,7)           159.4785         calculate D2E/DX2 analytically  !
 ! D25   D(6,3,8,9)             51.8848         calculate D2E/DX2 analytically  !
 ! D26   D(6,3,8,10)           170.7483         calculate D2E/DX2 analytically  !
 ! D27   D(6,3,8,11)           -70.1496         calculate D2E/DX2 analytically  !
 ! D28   D(19,3,8,9)           -98.2635         calculate D2E/DX2 analytically  !
 ! D29   D(19,3,8,10)           20.6            calculate D2E/DX2 analytically  !
 ! D30   D(19,3,8,11)          139.702          calculate D2E/DX2 analytically  !
 ! D31   D(6,3,19,1)            36.0362         calculate D2E/DX2 analytically  !
 ! D32   D(6,3,19,20)          -80.9441         calculate D2E/DX2 analytically  !
 ! D33   D(6,3,19,21)          155.8657         calculate D2E/DX2 analytically  !
 ! D34   D(8,3,19,1)          -170.0468         calculate D2E/DX2 analytically  !
 ! D35   D(8,3,19,20)           72.9729         calculate D2E/DX2 analytically  !
 ! D36   D(8,3,19,21)          -50.2173         calculate D2E/DX2 analytically  !
 ! D37   D(2,4,14,11)          143.9173         calculate D2E/DX2 analytically  !
 ! D38   D(2,4,14,15)          -34.2897         calculate D2E/DX2 analytically  !
 ! D39   D(17,4,14,11)         -67.0704         calculate D2E/DX2 analytically  !
 ! D40   D(17,4,14,15)         114.7226         calculate D2E/DX2 analytically  !
 ! D41   D(1,5,6,3)              0.9437         calculate D2E/DX2 analytically  !
 ! D42   D(1,5,6,7)            176.7081         calculate D2E/DX2 analytically  !
 ! D43   D(16,5,6,3)          -176.4209         calculate D2E/DX2 analytically  !
 ! D44   D(16,5,6,7)            -0.6565         calculate D2E/DX2 analytically  !
 ! D45   D(3,8,11,12)           92.0212         calculate D2E/DX2 analytically  !
 ! D46   D(3,8,11,13)         -147.1267         calculate D2E/DX2 analytically  !
 ! D47   D(3,8,11,14)          -26.2174         calculate D2E/DX2 analytically  !
 ! D48   D(9,8,11,12)          -30.6399         calculate D2E/DX2 analytically  !
 ! D49   D(9,8,11,13)           90.2121         calculate D2E/DX2 analytically  !
 ! D50   D(9,8,11,14)         -148.8786         calculate D2E/DX2 analytically  !
 ! D51   D(10,8,11,12)        -148.9268         calculate D2E/DX2 analytically  !
 ! D52   D(10,8,11,13)         -28.0748         calculate D2E/DX2 analytically  !
 ! D53   D(10,8,11,14)          92.8345         calculate D2E/DX2 analytically  !
 ! D54   D(8,11,14,4)          -17.7035         calculate D2E/DX2 analytically  !
 ! D55   D(8,11,14,15)         160.4666         calculate D2E/DX2 analytically  !
 ! D56   D(12,11,14,4)        -136.897          calculate D2E/DX2 analytically  !
 ! D57   D(12,11,14,15)         41.273          calculate D2E/DX2 analytically  !
 ! D58   D(13,11,14,4)         104.0181         calculate D2E/DX2 analytically  !
 ! D59   D(13,11,14,15)        -77.8119         calculate D2E/DX2 analytically  !
 --------------------------------------------------------------------------------
 Trust Radius=1.00D-01 FncErr=1.00D-07 GrdErr=1.00D-07 EigMax=2.50D+02 EigMin=1.00D-04
 Number of steps in this run=     50 maximum allowed number of steps=    156.
 Search for a saddle point of order  1.
 GradGradGradGradGradGradGradGradGradGradGradGradGradGradGradGradGradGrad

                          Input orientation:                          
 ---------------------------------------------------------------------
 Center     Atomic      Atomic             Coordinates (Angstroms)
 Number     Number       Type             X           Y           Z
 ---------------------------------------------------------------------
      1          6           0       -1.370200   -1.140300    0.206400
      2          6           0       -0.755800    1.074500    0.447900
      3          6           0        0.822400   -1.048800   -0.490100
      4          6           0        0.482800    1.008900   -0.326500
      5          6           0       -0.514700   -1.684000    1.261000
      6          6           0        0.760300   -1.644800    0.854700
      7          1           0        1.621400   -1.932700    1.440200
      8          6           0        2.134400   -0.846700   -1.183200
      9          1           0        2.732000   -1.763700   -1.204300
     10          1           0        1.958900   -0.549400   -2.224300
     11          6           0        2.879500    0.280500   -0.439300
     12          1           0        3.521900   -0.149100    0.337200
     13          1           0        3.493000    0.868700   -1.127800
     14          6           0        1.854500    1.179600    0.233600
     15          8           0        2.101500    1.940600    1.158600
     16          1           0       -0.867400   -2.017100    2.225700
     17          1           0        0.411600    1.356200   -1.358500
     18          1           0       -0.709100    1.129900    1.531200
     19          6           0       -0.551300   -1.312100   -1.067100
     20          1           0       -0.627200   -2.334600   -1.456300
     21          1           0       -0.847600   -0.617000   -1.857600
     22         17           0       -2.017600    2.097000   -0.161100
     23          6           0       -2.841200   -1.369100    0.227100
     24          1           0       -3.344600   -0.713300   -0.488800
     25          1           0       -3.074900   -2.405600   -0.035200
     26          1           0       -3.253000   -1.164100    1.220600
 ---------------------------------------------------------------------
                    Distance matrix (angstroms):
                    1          2          3          4          5
     1  C    0.000000
     2  C    2.311093   0.000000
     3  C    2.302386   2.806949   0.000000
     4  C    2.887326   1.462234   2.091942   0.000000
     5  C    1.462761   2.885928   2.292960   3.281291   0.000000
     6  C    2.283384   3.139847   1.472263   2.917938   1.338746
     7  H    3.331641   3.959671   2.268422   3.615335   2.157982
     8  C    3.781456   3.834678   1.497523   2.627731   3.700394
     9  H    4.382550   4.790605   2.160494   3.676513   4.077391
    10  H    4.164177   4.140930   2.132717   2.865103   4.421915
    11  C    4.527201   3.825306   2.449751   2.507481   4.274444
    12  H    4.993218   4.450637   2.963307   3.319276   4.416273
    13  H    5.428341   4.536241   3.348966   3.118179   5.318299
    14  C    3.972577   2.621190   2.560222   1.491446   3.856017
    15  O    4.738284   3.069102   3.645658   2.386164   4.471321
    16  H    2.258132   3.568055   3.341945   4.182516   1.079814
    17  H    3.443288   2.169161   2.589768   1.091197   4.118571
    18  H    2.710342   1.085720   3.343334   2.210501   2.833519
    19  C    1.523783   2.834238   1.513046   2.646676   2.357901
    20  H    2.177837   3.906978   2.165217   3.699668   2.796365
    21  H    2.192498   2.860932   2.201229   2.599573   3.312850
    22  Cl   3.321791   1.734510   4.250870   2.731908   4.310109
    23  C    1.488831   3.220066   3.746856   4.124358   2.565290
    24  H    2.136326   3.282609   4.180485   4.200155   3.465890
    25  H    2.136670   4.209834   4.151721   4.939726   2.958964
    26  H    2.138715   3.441570   4.421388   4.590387   2.787511
                    6          7          8          9         10
     6  C    0.000000
     7  H    1.080366   0.000000
     8  C    2.584212   2.885272   0.000000
     9  H    2.853282   2.873217   1.094742   0.000000
    10  H    3.480917   3.931410   1.096849   1.764259   0.000000
    11  C    3.142010   3.164426   1.542446   2.187632   2.173123
    12  H    3.182980   2.830148   2.173343   2.367931   3.027291
    13  H    4.208995   4.236196   2.188940   2.741259   2.359403
    14  C    3.091969   3.346137   2.488284   3.391250   3.006927
    15  O    3.840087   3.913087   3.640625   4.438768   4.202909
    16  H    2.160476   2.611180   4.690548   4.978433   5.472167
    17  H    3.745110   4.484774   2.802060   3.891248   2.602894
    18  H    3.211814   3.849549   4.400046   5.262799   4.903270
    19  C    2.350383   3.375252   2.728197   3.317051   2.867390
    20  H    2.782391   3.688826   3.148788   3.416673   3.234915
    21  H    3.316366   4.324640   3.065926   3.815135   2.831162
    22  Cl   4.769659   5.660827   5.191258   6.209023   5.203151
    23  C    3.666155   4.658761   5.197927   5.767597   5.451810
    24  H    4.418471   5.465266   5.524439   6.208087   5.582646
    25  H    4.009925   4.945268   5.557417   5.958097   5.794547
    26  H    4.058514   4.939509   5.907883   6.485359   6.277666
                   11         12         13         14         15
    11  C    0.000000
    12  H    1.095530   0.000000
    13  H    1.093798   1.784090   0.000000
    14  C    1.520461   2.134572   2.152847   0.000000
    15  O    2.431975   2.656893   2.883204   1.223011   0.000000
    16  H    5.140083   5.130479   6.211835   4.647160   5.061270
    17  H    2.844748   3.849064   3.128243   2.155906   3.087568
    18  H    4.181196   4.578519   4.979573   2.873722   2.948820
    19  C    3.834175   4.462688   4.595208   3.699765   4.750910
    20  H    4.491100   5.020765   5.229253   4.622142   5.706211
    21  H    4.087586   4.912088   4.645505   3.860341   4.933150
    22  Cl   5.230550   5.998277   5.727996   3.998821   4.328170
    23  C    5.990966   6.479935   6.853145   5.342800   6.020971
    24  H    6.303135   6.938978   7.047256   5.579926   6.278305
    25  H    6.544716   6.981994   7.419712   6.101221   6.863653
    26  H    6.515343   6.907235   7.426693   5.705581   6.189804
                   16         17         18         19         20
    16  H    0.000000
    17  H    5.085419   0.000000
    18  H    3.226608   3.107659   0.000000
    19  C    3.382229   2.851651   3.569233   0.000000
    20  H    3.703461   3.835450   4.575437   1.096697   0.000000
    21  H    4.316713   2.393367   3.815076   1.093548   1.777574
    22  Cl   4.893423   2.807769   2.347623   3.820057   4.821808
    23  C    2.882740   4.530132   3.534336   2.630940   2.944116
    24  H    3.899349   4.375871   3.797848   2.914707   3.308917
    25  H    3.183655   5.296975   4.533253   2.937536   2.831219
    26  H    2.725605   5.141300   3.439525   3.543255   3.928192
                   21         22         23         24         25
    21  H    0.000000
    22  Cl   3.407757   0.000000
    23  C    2.980951   3.583694   0.000000
    24  H    2.849192   3.125076   1.093617   0.000000
    25  H    3.388377   4.626785   1.094417   1.772673   0.000000
    26  H    3.944690   3.751011   1.094827   1.770215   1.774845
                   26
    26  H    0.000000
 Stoichiometry    C11H13ClO
 Framework group  C1[X(C11H13ClO)]
 Deg. of freedom    72
 Full point group                 C1      NOp   1
 Largest Abelian subgroup         C1      NOp   1
 Largest concise Abelian subgroup C1      NOp   1
                         Standard orientation:                         
 ---------------------------------------------------------------------
 Center     Atomic      Atomic             Coordinates (Angstroms)
 Number     Number       Type             X           Y           Z
 ---------------------------------------------------------------------
      1          6           0       -1.441238   -1.145665    0.162447
      2          6           0       -0.738135    1.047558    0.353671
      3          6           0        0.784761   -1.178142   -0.424794
      4          6           0        0.532613    0.897341   -0.353975
      5          6           0       -0.664408   -1.685256    1.278265
      6          6           0        0.629432   -1.718174    0.936013
      7          1           0        1.446623   -2.020862    1.574581
      8          6           0        2.137078   -1.061207   -1.057363
      9          1           0        2.692155   -2.003820   -1.014576
     10          1           0        2.026706   -0.797082   -2.116198
     11          6           0        2.895894    0.060027   -0.318327
     12          1           0        3.478994   -0.367049    0.504951
     13          1           0        3.568836    0.593406   -0.995859
     14          6           0        1.881601    1.028935    0.268381
     15          8           0        2.117711    1.813619    1.176279
     16          1           0       -1.078943   -1.964768    2.235361
     17          1           0        0.528161    1.207128   -1.400265
     18          1           0       -0.742108    1.142847    1.435195
     19          6           0       -0.569655   -1.402744   -1.060733
     20          1           0       -0.673360   -2.435232   -1.415638
     21          1           0       -0.794532   -0.726448   -1.890131
     22         17           0       -1.920157    2.100352   -0.355537
     23          6           0       -2.920453   -1.308333    0.116841
     24          1           0       -3.357428   -0.659232   -0.647174
     25          1           0       -3.188467   -2.342906   -0.118907
     26          1           0       -3.370600   -1.046949    1.080009
 ---------------------------------------------------------------------
 Rotational constants (GHZ):           0.9244285           0.6743049           0.4755489
 Standard basis: STO-3G (5D, 7F)
 There are    82 symmetry adapted cartesian basis functions of A   symmetry.
 There are    82 symmetry adapted basis functions of A   symmetry.
    82 basis functions,   246 primitive gaussians,    82 cartesian basis functions
    52 alpha electrons       52 beta electrons
       nuclear repulsion energy       908.0129164764 Hartrees.
 NAtoms=   26 NActive=   26 NUniq=   26 SFac= 1.00D+00 NAtFMM=   60 NAOKFM=F Big=F
 Integral buffers will be    131072 words long.
 Raffenetti 1 integral format.
 Two-electron integral symmetry is turned on.
 External calculation of energy, first and second derivatives.
 Running external command "~/scripts/MiMe -H 'pbepbe def2svp' -EF 'wb97xd def2svp' -c 12 -m 48GB R"
         input file       "/local/jobs/1158156/Gau-77360.EIn"
         output file      "/local/jobs/1158156/Gau-77360.EOu"
         message file     "/local/jobs/1158156/Gau-77360.EMs"
         fchk file        "/local/jobs/1158156/Gau-77360.EFC"
         mat. el file     "/local/jobs/1158156/Gau-77360.EUF"
 Read checkpoint file Gau-77360_H.chk type G16
 Write formatted file Gau-77360_H.fchk

deriv: 2

spelevel: wb97xd def2svp
gradlevel: wb97xd def2svp
hesslevel: pbepbe def2svp

runspe: False
runforce: True
runfreq: True

Running Gaussian ...

Parsing files ...
SPE file: Gau-77360_F.out
FORCE file: Gau-77360_F.out
HESS file: Gau-77360_H.out

 ExternalExternalExternalExternalExternalExternalExternalExternalExternalExternal
 Output from external command:
 "~/scripts/MiMe -H 'pbepbe def2svp' -EF 'wb97xd def2svp' -c 12 -m 48GB R /local/jobs/1158156/Gau-77360.EIn /local/jobs/1158156/Gau-77360.EOu /local/jobs/1158156/Gau-77360.EMs /local/jobs/1158156/Gau-77360.EFC /local/jobs/1158156/Gau-77360.EUF"
  
 --------------------------------------------------
 Force calculation at wb97xd def2svp
 Hessian calculation at pbepbe def2svp
 ExternalExternalExternalExternalExternalExternalExternalExternalExternalExternal

 Recovered energy= -961.646326437     dipole=     -0.013600000000     -3.841900000000     -1.684100000000
 Energy=    -961.646326     NIter=   0.
 Dipole moment=      -0.013600      -3.841900      -1.684100
 ***** Axes restored to original set *****
 -------------------------------------------------------------------
 Center     Atomic                   Forces (Hartrees/Bohr)
 Number     Number              X              Y              Z
 -------------------------------------------------------------------
      1        6           0.015534276   -0.002419620    0.014527655
      2        6           0.025165460   -0.022585668   -0.018047436
      3        6          -0.004429335    0.012610082    0.015743331
      4        6          -0.021236225   -0.032971712    0.026292277
      5        6          -0.037879607    0.012672307   -0.016281519
      6        6           0.027636103    0.016673924   -0.030992173
      7        1           0.007459484    0.000724715    0.004393524
      8        6           0.002409326    0.002146362   -0.006570415
      9        1           0.003197174   -0.003573800   -0.001107518
     10        1          -0.001042977   -0.000650928   -0.002835174
     11        6          -0.004833236   -0.008862506   -0.001695690
     12        1           0.004303113    0.003908736    0.002499569
     13        1           0.005662964    0.003040961    0.000434486
     14        6          -0.002934437    0.023313384    0.025673252
     15        8           0.000713731   -0.019685487   -0.018114633
     16        1          -0.003500551   -0.000526457    0.007940079
     17        1          -0.002224943   -0.004554298   -0.006165094
     18        1           0.003099557   -0.001799130    0.003737807
     19        6           0.002900822    0.019773422    0.009087448
     20        1          -0.001481477   -0.006229005    0.002473783
     21        1          -0.000650856    0.000848145   -0.004001381
     22       17          -0.010341671    0.000337161   -0.005595914
     23        6          -0.000933156    0.009902642   -0.000069257
     24        1          -0.003325322    0.002729021   -0.002740165
     25        1          -0.001444547   -0.004850756   -0.001392684
     26        1          -0.001823672    0.000028504    0.002805842
 -------------------------------------------------------------------
 Cartesian Forces:  Max     0.037879607 RMS     0.012266822
 FormGI is forming the generalized inverse of G from B-inverse, IUseBI=4.

 GradGradGradGradGradGradGradGradGradGradGradGradGradGradGradGradGradGrad
 Berny optimization.
 Internal  Forces:  Max     0.200674620 RMS     0.033152262
 Search for a saddle point.
 Step number   1 out of a maximum of   50
 All quantities printed in internal units (Hartrees-Bohrs-Radians)
 Swapping is turned off.
 Second derivative matrix not updated -- analytic derivatives used.
 ITU=  0
     Eigenvalues ---   -0.58328  -0.01747  -0.00462  -0.00334  -0.00243
     Eigenvalues ---    0.00041   0.00621   0.01178   0.01277   0.01549
     Eigenvalues ---    0.01648   0.01762   0.02224   0.02680   0.02811
     Eigenvalues ---    0.03167   0.03516   0.04622   0.04738   0.04803
     Eigenvalues ---    0.05386   0.05449   0.06201   0.06612   0.07203
     Eigenvalues ---    0.08064   0.08187   0.08348   0.08556   0.09061
     Eigenvalues ---    0.09656   0.10143   0.10616   0.10994   0.11630
     Eigenvalues ---    0.12822   0.14497   0.15221   0.17319   0.18536
     Eigenvalues ---    0.19364   0.20354   0.21370   0.21802   0.22398
     Eigenvalues ---    0.23644   0.25651   0.26314   0.27626   0.29290
     Eigenvalues ---    0.30383   0.32836   0.33996   0.34399   0.34632
     Eigenvalues ---    0.34796   0.34981   0.35119   0.35212   0.35430
     Eigenvalues ---    0.35464   0.35555   0.36130   0.36335   0.37622
     Eigenvalues ---    0.38739   0.38963   0.49183   0.65065   0.81332
     Eigenvalues ---    0.93740   1.78077
 Eigenvectors required to have negative eigenvalues:
                          R4        A27       A21       D47       A31
   1                    0.30669  -0.29618  -0.28516   0.23335  -0.20921
                          A30       A19       D56       D54       D46
   1                    0.20136   0.19501   0.18746   0.18311   0.17891
 RFO step:  Lambda0=8.952459618D-02 Lambda=-9.71757942D-02.
 Linear search not attempted -- option 19 set.
 Maximum step size (   0.100) exceeded in Quadratic search.
    -- Step size scaled by   0.256
 Iteration  1 RMS(Cart)=  0.02974034 RMS(Int)=  0.00054418
 Iteration  2 RMS(Cart)=  0.00077062 RMS(Int)=  0.00017149
 Iteration  3 RMS(Cart)=  0.00000031 RMS(Int)=  0.00017149
 Variable       Old X    -DE/DX   Delta X   Delta X   Delta X     New X
                                 (Linear)    (Quad)   (Total)
    R1        2.76422  -0.02123   0.00000  -0.03953  -0.03948   2.72473
    R2        2.87953  -0.00114   0.00000  -0.01072  -0.01072   2.86882
    R3        2.81348   0.00622   0.00000   0.00117   0.00117   2.81465
    R4        2.76322  -0.02681   0.00000  -0.05324  -0.05324   2.70998
    R5        2.05171   0.00377   0.00000   0.00150   0.00150   2.05321
    R6        3.27775   0.00969   0.00000   0.00028   0.00028   3.27803
    R7        2.78217  -0.02556   0.00000  -0.03648  -0.03650   2.74568
    R8        2.82991  -0.00596   0.00000   0.00082   0.00082   2.83073
    R9        2.85924  -0.00364   0.00000  -0.00303  -0.00310   2.85615
   R10        2.81842   0.01206   0.00000   0.00675   0.00675   2.82517
   R11        2.06206   0.00453   0.00000   0.00325   0.00325   2.06531
   R12        2.52986   0.03177   0.00000   0.02665   0.02669   2.55656
   R13        2.04055   0.00840   0.00000   0.00469   0.00469   2.04524
   R14        2.04160   0.00813   0.00000   0.00419   0.00419   2.04579
   R15        2.06876   0.00476   0.00000   0.00212   0.00212   2.07088
   R16        2.07274   0.00268   0.00000   0.00147   0.00147   2.07421
   R17        2.91480  -0.04067   0.00000  -0.00348  -0.00348   2.91132
   R18        2.07025   0.00276   0.00000   0.00183   0.00183   2.07208
   R19        2.06698   0.00454   0.00000   0.00288   0.00288   2.06986
   R20        2.87325  -0.02560   0.00000   0.00121   0.00121   2.87447
   R21        2.31116  -0.02581   0.00000  -0.00908  -0.00908   2.30208
   R22        2.07246   0.00503   0.00000   0.00281   0.00281   2.07527
   R23        2.06651   0.00361   0.00000   0.00243   0.00243   2.06894
   R24        2.06664   0.00496   0.00000   0.00335   0.00335   2.06999
   R25        2.06815   0.00523   0.00000   0.00359   0.00359   2.07173
   R26        2.06892   0.00324   0.00000   0.00147   0.00147   2.07039
    A1        1.81969  -0.00313   0.00000   0.00394   0.00362   1.82331
    A2        2.10680   0.00450   0.00000   0.01924   0.01918   2.12598
    A3        2.12383   0.00048   0.00000   0.00134   0.00100   2.12483
    A4        2.08780  -0.00400   0.00000   0.02038   0.01946   2.10726
    A5        2.04509   0.00724   0.00000   0.01960   0.01868   2.06376
    A6        1.93001   0.00273   0.00000   0.00893   0.00781   1.93782
    A7        2.11104   0.00232   0.00000   0.01025   0.01036   2.12141
    A8        1.81274   0.00230   0.00000   0.00313   0.00295   1.81569
    A9        2.26844   0.00229   0.00000  -0.01311  -0.01303   2.25541
   A10        2.18344   0.02135   0.00000   0.01255   0.01256   2.19600
   A11        2.01675  -0.00529   0.00000  -0.00551  -0.00550   2.01126
   A12        1.95924  -0.00464   0.00000  -0.00833  -0.00833   1.95092
   A13        1.90425   0.00007   0.00000   0.00602   0.00596   1.91022
   A14        2.17455  -0.00122   0.00000  -0.00102  -0.00099   2.17356
   A15        2.20340   0.00095   0.00000  -0.00476  -0.00474   2.19866
   A16        1.90630  -0.00557   0.00000   0.00036   0.00025   1.90655
   A17        2.17643   0.00157   0.00000   0.00095   0.00100   2.17744
   A18        2.19791   0.00356   0.00000  -0.00104  -0.00099   2.19692
   A19        1.95426   0.07941   0.00000  -0.00187  -0.00187   1.95238
   A20        1.91315   0.01788   0.00000   0.00266   0.00266   1.91581
   A21        1.87405  -0.16146   0.00000  -0.00163  -0.00163   1.87242
   A22        1.87139  -0.02294   0.00000  -0.00165  -0.00165   1.86974
   A23        1.93664   0.04897   0.00000   0.00073   0.00072   1.93736
   A24        1.91451   0.04095   0.00000   0.00193   0.00193   1.91644
   A25        1.91615   0.07493   0.00000   0.00455   0.00454   1.92069
   A26        1.93944   0.03552   0.00000   0.00506   0.00506   1.94451
   A27        1.89645  -0.20067   0.00000   0.00398   0.00397   1.90042
   A28        1.90512  -0.02997   0.00000  -0.00933  -0.00935   1.89578
   A29        1.88968   0.02869   0.00000  -0.00063  -0.00066   1.88902
   A30        1.91633   0.09176   0.00000  -0.00369  -0.00371   1.91262
   A31        1.96723  -0.10886   0.00000  -0.00010  -0.00016   1.96707
   A32        2.14242   0.06131   0.00000   0.00720   0.00714   2.14955
   A33        2.17308   0.04648   0.00000  -0.00650  -0.00657   2.16651
   A34        1.72095   0.00297   0.00000   0.01547   0.01527   1.73622
   A35        1.94391   0.00510   0.00000  -0.01488  -0.01480   1.92911
   A36        1.96802  -0.00804   0.00000   0.00866   0.00859   1.97662
   A37        1.93951   0.00207   0.00000  -0.01411  -0.01410   1.92541
   A38        1.99441  -0.00294   0.00000   0.00398   0.00391   1.99831
   A39        1.89372   0.00111   0.00000   0.00073   0.00074   1.89447
   A40        1.93215   0.00152   0.00000   0.00184   0.00184   1.93398
   A41        1.93178  -0.00004   0.00000  -0.00106  -0.00106   1.93072
   A42        1.93421   0.00070   0.00000   0.00332   0.00332   1.93753
   A43        1.88887  -0.00072   0.00000  -0.00339  -0.00339   1.88548
   A44        1.88453  -0.00091   0.00000  -0.00011  -0.00012   1.88441
   A45        1.89073  -0.00065   0.00000  -0.00078  -0.00078   1.88996
    D1        0.40200   0.00213   0.00000  -0.02566  -0.02566   0.37633
    D2       -2.78466  -0.00224   0.00000  -0.01997  -0.02002  -2.80468
    D3        2.86962   0.00411   0.00000   0.00368   0.00385   2.87347
    D4       -0.31703  -0.00025   0.00000   0.00937   0.00950  -0.30754
    D5       -0.62328  -0.00403   0.00000   0.03366   0.03378  -0.58950
    D6        1.41504   0.00173   0.00000   0.02015   0.02011   1.43515
    D7       -2.73427   0.00112   0.00000   0.01635   0.01627  -2.71800
    D8       -3.08259  -0.00798   0.00000  -0.00480  -0.00458  -3.08717
    D9       -1.04428  -0.00222   0.00000  -0.01831  -0.01825  -1.06253
   D10        1.08960  -0.00283   0.00000  -0.02211  -0.02209   1.06751
   D11        2.91406  -0.00091   0.00000  -0.04831  -0.04835   2.86571
   D12       -1.27468  -0.00084   0.00000  -0.05205  -0.05210  -1.32677
   D13        0.82346  -0.00122   0.00000  -0.05154  -0.05159   0.77188
   D14       -1.01819   0.00050   0.00000  -0.01101  -0.01096  -1.02916
   D15        1.07626   0.00056   0.00000  -0.01476  -0.01471   1.06154
   D16       -3.10879   0.00019   0.00000  -0.01424  -0.01420  -3.12300
   D17       -0.13922   0.00969   0.00000  -0.03519  -0.03546  -0.17469
   D18       -2.72440  -0.01162   0.00000  -0.02939  -0.02967  -2.75407
   D19        2.27430   0.01937   0.00000   0.03783   0.03811   2.31240
   D20       -0.31087  -0.00195   0.00000   0.04362   0.04390  -0.26697
   D21        3.11441  -0.01644   0.00000   0.02406   0.02400   3.13841
   D22        0.04562  -0.01021   0.00000   0.02013   0.02010   0.06572
   D23       -0.43097  -0.00154   0.00000   0.02076   0.02075  -0.41023
   D24        2.78343   0.00469   0.00000   0.01683   0.01684   2.80027
   D25        0.90556  -0.00158   0.00000  -0.00293  -0.00296   0.90260
   D26        2.98012   0.03149   0.00000  -0.00442  -0.00445   2.97567
   D27       -1.22434  -0.00345   0.00000  -0.00157  -0.00161  -1.22595
   D28       -1.71502  -0.02082   0.00000  -0.00525  -0.00521  -1.72023
   D29        0.35954   0.01226   0.00000  -0.00674  -0.00671   0.35283
   D30        2.43826  -0.02269   0.00000  -0.00389  -0.00386   2.43440
   D31        0.62895   0.00591   0.00000  -0.03075  -0.03083   0.59812
   D32       -1.41274  -0.00215   0.00000  -0.01662  -0.01660  -1.42934
   D33        2.72037  -0.00304   0.00000  -0.00943  -0.00941   2.71096
   D34       -2.96788   0.02272   0.00000  -0.02614  -0.02621  -2.99409
   D35        1.27362   0.01466   0.00000  -0.01201  -0.01198   1.26164
   D36       -0.87646   0.01377   0.00000  -0.00482  -0.00479  -0.88125
   D37        2.51183  -0.03791   0.00000   0.02570   0.02576   2.53759
   D38       -0.59847  -0.00181   0.00000   0.00520   0.00515  -0.59332
   D39       -1.17060  -0.01771   0.00000   0.02057   0.02063  -1.14997
   D40        2.00229   0.01840   0.00000   0.00007   0.00001   2.00230
   D41        0.01647  -0.00090   0.00000   0.00410   0.00409   0.02056
   D42        3.08414  -0.00733   0.00000   0.00820   0.00816   3.09230
   D43       -3.07913   0.00363   0.00000  -0.00183  -0.00178  -3.08090
   D44       -0.01146  -0.00280   0.00000   0.00226   0.00229  -0.00917
   D45        1.60607   0.02033   0.00000  -0.00270  -0.00270   1.60338
   D46       -2.56785   0.05566   0.00000  -0.00809  -0.00810  -2.57595
   D47       -0.45758   0.06079   0.00000  -0.00691  -0.00691  -0.46449
   D48       -0.53477  -0.00221   0.00000   0.00023   0.00024  -0.53453
   D49        1.57450   0.03313   0.00000  -0.00516  -0.00517   1.56933
   D50       -2.59842   0.03826   0.00000  -0.00398  -0.00398  -2.60240
   D51       -2.59926  -0.02960   0.00000   0.00061   0.00062  -2.59864
   D52       -0.49000   0.00573   0.00000  -0.00478  -0.00478  -0.49478
   D53        1.62027   0.01086   0.00000  -0.00359  -0.00359   1.61667
   D54       -0.30898   0.04619   0.00000   0.00643   0.00647  -0.30252
   D55        2.80067   0.00958   0.00000   0.02764   0.02761   2.82828
   D56       -2.38930   0.05379   0.00000  -0.00092  -0.00087  -2.39017
   D57        0.72035   0.01718   0.00000   0.02030   0.02027   0.74062
   D58        1.81546   0.01993   0.00000   0.01288   0.01291   1.82837
   D59       -1.35807  -0.01669   0.00000   0.03410   0.03405  -1.32402
         Item               Value     Threshold  Converged?
 Maximum Force            0.200675     0.000450     NO 
 RMS     Force            0.033152     0.000300     NO 
 Maximum Displacement     0.156616     0.001800     NO 
 RMS     Displacement     0.029653     0.001200     NO 
 Predicted change in Energy=-2.320531D-03
 GradGradGradGradGradGradGradGradGradGradGradGradGradGradGradGradGradGrad

                          Input orientation:                          
 ---------------------------------------------------------------------
 Center     Atomic      Atomic             Coordinates (Angstroms)
 Number     Number       Type             X           Y           Z
 ---------------------------------------------------------------------
      1          6           0       -1.382558   -1.169513    0.219671
      2          6           0       -0.725405    1.125691    0.448727
      3          6           0        0.820470   -1.044456   -0.470042
      4          6           0        0.489405    1.020963   -0.306127
      5          6           0       -0.530814   -1.689217    1.260546
      6          6           0        0.759141   -1.633936    0.856538
      7          1           0        1.621534   -1.915920    1.447091
      8          6           0        2.124287   -0.848274   -1.180992
      9          1           0        2.716640   -1.769828   -1.208814
     10          1           0        1.938855   -0.551648   -2.221381
     11          6           0        2.882308    0.273378   -0.445626
     12          1           0        3.532664   -0.155683    0.325900
     13          1           0        3.498457    0.859047   -1.136337
     14          6           0        1.873099    1.185013    0.235676
     15          8           0        2.149325    1.959725    1.134313
     16          1           0       -0.880475   -2.030135    2.226401
     17          1           0        0.420473    1.345803   -1.347371
     18          1           0       -0.702116    1.180207    1.533623
     19          6           0       -0.554133   -1.294996   -1.046280
     20          1           0       -0.618646   -2.314526   -1.449280
     21          1           0       -0.853006   -0.591254   -1.829915
     22         17           0       -2.011381    2.095188   -0.195776
     23          6           0       -2.853712   -1.402258    0.219757
     24          1           0       -3.356359   -0.715666   -0.470042
     25          1           0       -3.082498   -2.427227   -0.094889
     26          1           0       -3.275956   -1.246977    1.218729
 ---------------------------------------------------------------------
                    Distance matrix (angstroms):
                    1          2          3          4          5
     1  C    0.000000
     2  C    2.398390   0.000000
     3  C    2.311855   2.818404   0.000000
     4  C    2.928975   1.434062   2.098197   0.000000
     5  C    1.441867   2.936089   2.288366   3.292474   0.000000
     6  C    2.282140   3.160020   1.452949   2.910848   1.352872
     7  H    3.329903   3.969414   2.253120   3.602884   2.172279
     8  C    3.789857   3.830570   1.497958   2.632922   3.703763
     9  H    4.382279   4.793657   2.160419   3.682925   4.080466
    10  H    4.168006   4.128102   2.135611   2.870925   4.417821
    11  C    4.551223   3.813384   2.447132   2.510842   4.290944
    12  H    5.019815   4.448388   2.963012   3.323459   4.442650
    13  H    5.456933   4.519351   3.352445   3.125677   5.336077
    14  C    4.017879   2.607898   2.564488   1.495015   3.884630
    15  O    4.806547   3.070783   3.655806   2.389869   4.529222
    16  H    2.240474   3.625384   3.337002   4.195172   1.082296
    17  H    3.468912   2.141834   2.577410   1.092915   4.113091
    18  H    2.776806   1.086514   3.358878   2.197671   2.887474
    19  C    1.518112   2.850282   1.511408   2.645840   2.340384
    20  H    2.163333   3.930511   2.154771   3.695952   2.782424
    21  H    2.194450   2.855940   2.203444   2.592922   3.295494
    22  Cl   3.350565   1.734659   4.236976   2.723979   4.316789
    23  C    1.489451   3.312498   3.755457   4.162329   2.561531
    24  H    2.139525   3.340157   4.189749   4.222872   3.453467
    25  H    2.137894   4.298212   4.157638   4.969218   2.982105
    26  H    2.142212   3.567600   4.435500   4.652599   2.780850
                    6          7          8          9         10
     6  C    0.000000
     7  H    1.082585   0.000000
     8  C    2.575348   2.880876   0.000000
     9  H    2.848851   2.876531   1.095864   0.000000
    10  H    3.469388   3.926782   1.097625   1.764710   0.000000
    11  C    3.137087   3.156731   1.540604   2.187371   2.173494
    12  H    3.187356   2.829827   2.175760   2.372068   3.030784
    13  H    4.205992   4.230530   2.192095   2.743624   2.366376
    14  C    3.094002   3.338653   2.490844   3.395468   3.009559
    15  O    3.863182   3.923904   3.639523   4.440908   4.196663
    16  H    2.172979   2.623055   4.694222   4.980733   5.469672
    17  H    3.721660   4.459866   2.782919   3.872820   2.582576
    18  H    3.242394   3.872059   4.412757   5.283139   4.906536
    19  C    2.336725   3.366894   2.718758   3.309054   2.854544
    20  H    2.770973   3.683240   3.121787   3.388016   3.200733
    21  H    3.302004   4.314725   3.058012   3.810141   2.819451
    22  Cl   4.763352   5.655623   5.170916   6.190216   5.168480
    23  C    3.675849   4.668836   5.200911   5.762356   5.445309
    24  H    4.420449   5.467671   5.528157   6.207927   5.579730
    25  H    4.036423   4.976651   5.548272   5.941633   5.766606
    26  H    4.069757   4.948236   5.922859   6.486721   6.285865
                   11         12         13         14         15
    11  C    0.000000
    12  H    1.096498   0.000000
    13  H    1.095322   1.780164   0.000000
    14  C    1.521103   2.135360   2.151851   0.000000
    15  O    2.424302   2.653698   2.861382   1.218207   0.000000
    16  H    5.157948   5.157642   6.231406   4.677856   5.127507
    17  H    2.832644   3.839274   3.123372   2.154533   3.086193
    18  H    4.193788   4.601799   4.987648   2.883820   2.982919
    19  C    3.824880   4.459016   4.590370   3.699366   4.759925
    20  H    4.467801   5.004522   5.207690   4.614612   5.710152
    21  H    4.076323   4.906257   4.638928   3.854016   4.930328
    22  Cl   5.227772   6.006246   5.724597   4.012948   4.370235
    23  C    6.012687   6.507766   6.877684   5.388596   6.096698
    24  H    6.316626   6.957423   7.064854   5.608729   6.328050
    25  H    6.557071   7.006949   7.429211   6.141294   6.937453
    26  H    6.557878   6.953083   7.474914   5.778731   6.302677
                   16         17         18         19         20
    16  H    0.000000
    17  H    5.085398   0.000000
    18  H    3.289080   3.096409   0.000000
    19  C    3.370070   2.830960   3.578327   0.000000
    20  H    3.695952   3.806332   4.595414   1.098185   0.000000
    21  H    4.304049   2.367866   3.804501   1.094834   1.780301
    22  Cl   4.915707   2.793145   2.354184   3.786856   4.791300
    23  C    2.883490   4.552803   3.608980   2.627245   2.934865
    24  H    3.889554   4.391335   3.828056   2.918928   3.318181
    25  H    3.224124   5.298610   4.618641   2.929116   2.813830
    26  H    2.714234   5.193358   3.551765   3.541312   3.913978
                   21         22         23         24         25
    21  H    0.000000
    22  Cl   3.351003   0.000000
    23  C    2.976862   3.621370   0.000000
    24  H    2.851580   3.128113   1.095392   0.000000
    25  H    3.369235   4.648624   1.096315   1.773465   0.000000
    26  H    3.949037   3.843182   1.095604   1.772203   1.776516
                   26
    26  H    0.000000
 Stoichiometry    C11H13ClO
 Framework group  C1[X(C11H13ClO)]
 Deg. of freedom    72
 Full point group                 C1      NOp   1
 Largest Abelian subgroup         C1      NOp   1
 Largest concise Abelian subgroup C1      NOp   1
                         Standard orientation:                         
 ---------------------------------------------------------------------
 Center     Atomic      Atomic             Coordinates (Angstroms)
 Number     Number       Type             X           Y           Z
 ---------------------------------------------------------------------
      1          6           0       -1.489012   -1.139588    0.174391
      2          6           0       -0.680078    1.109585    0.372181
      3          6           0        0.745354   -1.190146   -0.416984
      4          6           0        0.555964    0.897385   -0.323308
      5          6           0       -0.722918   -1.686642    1.266550
      6          6           0        0.584111   -1.734143    0.920599
      7          1           0        1.397497   -2.058312    1.557237
      8          6           0        2.089687   -1.107260   -1.072558
      9          1           0        2.615282   -2.068561   -1.048781
     10          1           0        1.971590   -0.829419   -2.127848
     11          6           0        2.893096   -0.020244   -0.333375
     12          1           0        3.476765   -0.470785    0.478198
     13          1           0        3.579142    0.499898   -1.010518
     14          6           0        1.922839    0.979885    0.276623
     15          8           0        2.214206    1.759668    1.166046
     16          1           0       -1.137940   -1.973279    2.224130
     17          1           0        0.556012    1.195149   -1.374878
     18          1           0       -0.700392    1.194576    1.455175
     19          6           0       -0.617141   -1.360547   -1.048590
     20          1           0       -0.736708   -2.384562   -1.426886
     21          1           0       -0.830394   -0.661172   -1.863488
     22         17           0       -1.864042    2.147412   -0.355959
     23          6           0       -2.971637   -1.268322    0.113417
     24          1           0       -3.393274   -0.568944   -0.616634
     25          1           0       -3.259149   -2.283595   -0.184013
     26          1           0       -3.424956   -1.054123    1.087567
 ---------------------------------------------------------------------
 Rotational constants (GHZ):           0.9199417           0.6716558           0.4721468
 Standard basis: STO-3G (5D, 7F)
 There are    82 symmetry adapted cartesian basis functions of A   symmetry.
 There are    82 symmetry adapted basis functions of A   symmetry.
    82 basis functions,   246 primitive gaussians,    82 cartesian basis functions
    52 alpha electrons       52 beta electrons
       nuclear repulsion energy       907.0216807853 Hartrees.
 NAtoms=   26 NActive=   26 NUniq=   26 SFac= 1.00D+00 NAtFMM=   60 NAOKFM=F Big=F
 Integral buffers will be    131072 words long.
 Raffenetti 1 integral format.
 Two-electron integral symmetry is turned on.
 External calculation of energy, first and second derivatives.
 Running external command "~/scripts/MiMe -H 'pbepbe def2svp' -EF 'wb97xd def2svp' -c 12 -m 48GB R"
         input file       "/local/jobs/1158156/Gau-77360.EIn"
         output file      "/local/jobs/1158156/Gau-77360.EOu"
         message file     "/local/jobs/1158156/Gau-77360.EMs"
         fchk file        "/local/jobs/1158156/Gau-77360.EFC"
         mat. el file     "/local/jobs/1158156/Gau-77360.EUF"
 Read checkpoint file Gau-77360_H.chk type G16
 Write formatted file Gau-77360_H.fchk

deriv: 2

spelevel: wb97xd def2svp
gradlevel: wb97xd def2svp
hesslevel: pbepbe def2svp

runspe: False
runforce: True
runfreq: True

Running Gaussian ...

Parsing files ...
SPE file: Gau-77360_F.out
FORCE file: Gau-77360_F.out
HESS file: Gau-77360_H.out

 ExternalExternalExternalExternalExternalExternalExternalExternalExternalExternal
 Output from external command:
 "~/scripts/MiMe -H 'pbepbe def2svp' -EF 'wb97xd def2svp' -c 12 -m 48GB R /local/jobs/1158156/Gau-77360.EIn /local/jobs/1158156/Gau-77360.EOu /local/jobs/1158156/Gau-77360.EMs /local/jobs/1158156/Gau-77360.EFC /local/jobs/1158156/Gau-77360.EUF"
  
 --------------------------------------------------
 Force calculation at wb97xd def2svp
 Hessian calculation at pbepbe def2svp
 ExternalExternalExternalExternalExternalExternalExternalExternalExternalExternal

 Recovered energy= -961.648899460     dipole=     -0.150100000000     -3.777900000000     -1.700600000000
 Energy=    -961.648899     NIter=   0.
 Dipole moment=      -0.150100      -3.777900      -1.700600
 ***** Axes restored to original set *****
 -------------------------------------------------------------------
 Center     Atomic                   Forces (Hartrees/Bohr)
 Number     Number              X              Y              Z
 -------------------------------------------------------------------
      1        6           0.013474210   -0.011320291    0.010960915
      2        6           0.021192084   -0.013639363   -0.011998327
      3        6          -0.003675956    0.002264856    0.012739311
      4        6          -0.017970707   -0.020739357    0.020892700
      5        6          -0.031869033    0.011586643   -0.012532034
      6        6           0.023345042    0.014739023   -0.025893655
      7        1           0.005825138    0.001427133    0.004032928
      8        6           0.002564669    0.002402552   -0.006020026
      9        1           0.002555445   -0.002769548   -0.000961931
     10        1          -0.001147379   -0.000600886   -0.002230917
     11        6          -0.003353358   -0.007595434   -0.001568211
     12        1           0.003491835    0.003490857    0.002129134
     13        1           0.004692413    0.002497978    0.000571423
     14        6          -0.001380054    0.018028960    0.019544859
     15        8          -0.000572234   -0.015927763   -0.013113911
     16        1          -0.002627020    0.000061647    0.006586687
     17        1          -0.001477610   -0.004504854   -0.005008825
     18        1           0.002468016   -0.002514079    0.002983031
     19        6           0.002008707    0.020046166    0.006488291
     20        1          -0.001232649   -0.005136533    0.001841541
     21        1          -0.000668457    0.000202278   -0.003444476
     22       17          -0.009134699   -0.000670320   -0.005309662
     23        6          -0.001323755    0.010194553    0.000269812
     24        1          -0.002641051    0.002320170   -0.001983811
     25        1          -0.001071873   -0.003646416   -0.001280045
     26        1          -0.001471723   -0.000197970    0.002305201
 -------------------------------------------------------------------
 Cartesian Forces:  Max     0.031869033 RMS     0.009854106
 FormGI is forming the generalized inverse of G from B-inverse, IUseBI=4.

 GradGradGradGradGradGradGradGradGradGradGradGradGradGradGradGradGradGrad
 Berny optimization.
 Internal  Forces:  Max     0.137958186 RMS     0.023330704
 Search for a saddle point.
 Step number   2 out of a maximum of   50
 All quantities printed in internal units (Hartrees-Bohrs-Radians)
 Swapping is turned off.
 Second derivative matrix not updated -- analytic derivatives used.
 ITU=  0  0
     Eigenvalues ---   -0.50701  -0.01085  -0.00330   0.00001   0.00059
     Eigenvalues ---    0.00450   0.01021   0.01187   0.01283   0.01592
     Eigenvalues ---    0.01811   0.02201   0.02421   0.02729   0.02771
     Eigenvalues ---    0.03391   0.03542   0.04576   0.04731   0.04786
     Eigenvalues ---    0.05177   0.05412   0.05877   0.06624   0.07108
     Eigenvalues ---    0.07651   0.08049   0.08386   0.08543   0.09102
     Eigenvalues ---    0.09702   0.10234   0.10619   0.10998   0.11314
     Eigenvalues ---    0.12671   0.13450   0.14995   0.16948   0.18494
     Eigenvalues ---    0.18911   0.20230   0.21532   0.21966   0.22683
     Eigenvalues ---    0.24811   0.25719   0.26128   0.27594   0.29594
     Eigenvalues ---    0.31265   0.33319   0.34217   0.34316   0.34613
     Eigenvalues ---    0.34787   0.34830   0.34898   0.35164   0.35202
     Eigenvalues ---    0.35247   0.35886   0.35973   0.37313   0.37708
     Eigenvalues ---    0.38335   0.38446   0.49059   0.62453   0.83728
     Eigenvalues ---    0.85436   1.51030
 Eigenvectors required to have negative eigenvalues:
                          R4        A27       A21       D47       A31
   1                   -0.30285   0.28601   0.28252  -0.22803   0.20794
                          A30       A19       D56       R1        D46
   1                   -0.19441  -0.19081  -0.18143  -0.17615  -0.17344
 RFO step:  Lambda0=4.816823628D-02 Lambda=-6.09578126D-02.
 Linear search not attempted -- option 19 set.
 Maximum step size (   0.100) exceeded in Quadratic search.
    -- Step size scaled by   0.346
 Iteration  1 RMS(Cart)=  0.02240051 RMS(Int)=  0.00052442
 Iteration  2 RMS(Cart)=  0.00074425 RMS(Int)=  0.00015625
 Iteration  3 RMS(Cart)=  0.00000026 RMS(Int)=  0.00015625
 Variable       Old X    -DE/DX   Delta X   Delta X   Delta X     New X
                                 (Linear)    (Quad)   (Total)
    R1        2.72473  -0.01772   0.00000  -0.03573  -0.03570   2.68903
    R2        2.86882  -0.00112   0.00000  -0.00420  -0.00423   2.86459
    R3        2.81465   0.00507   0.00000   0.00292   0.00292   2.81757
    R4        2.70998  -0.02108   0.00000  -0.04689  -0.04689   2.66309
    R5        2.05321   0.00290   0.00000   0.00157   0.00157   2.05478
    R6        3.27803   0.00837   0.00000   0.00601   0.00601   3.28404
    R7        2.74568  -0.02154   0.00000  -0.04069  -0.04070   2.70498
    R8        2.83073  -0.00384   0.00000   0.00243   0.00243   2.83316
    R9        2.85615  -0.00216   0.00000  -0.00424  -0.00427   2.85188
   R10        2.82517   0.00861   0.00000  -0.00262  -0.00262   2.82254
   R11        2.06531   0.00353   0.00000   0.00221   0.00221   2.06752
   R12        2.55656   0.02634   0.00000   0.03000   0.03003   2.58659
   R13        2.04524   0.00671   0.00000   0.00546   0.00546   2.05071
   R14        2.04579   0.00647   0.00000   0.00490   0.00490   2.05069
   R15        2.07088   0.00374   0.00000   0.00266   0.00266   2.07354
   R16        2.07421   0.00215   0.00000   0.00143   0.00143   2.07564
   R17        2.91132  -0.02693   0.00000   0.00182   0.00182   2.91314
   R18        2.07208   0.00220   0.00000   0.00175   0.00175   2.07383
   R19        2.06986   0.00362   0.00000   0.00354   0.00354   2.07339
   R20        2.87447  -0.01582   0.00000   0.00615   0.00615   2.88062
   R21        2.30208  -0.01993   0.00000  -0.00716  -0.00716   2.29492
   R22        2.07527   0.00417   0.00000   0.00349   0.00349   2.07876
   R23        2.06894   0.00278   0.00000   0.00218   0.00218   2.07112
   R24        2.06999   0.00391   0.00000   0.00353   0.00353   2.07352
   R25        2.07173   0.00400   0.00000   0.00325   0.00325   2.07498
   R26        2.07039   0.00264   0.00000   0.00207   0.00207   2.07246
    A1        1.82331  -0.00180   0.00000   0.00378   0.00340   1.82671
    A2        2.12598   0.00381   0.00000   0.01786   0.01774   2.14372
    A3        2.12483   0.00049   0.00000   0.00290   0.00259   2.12742
    A4        2.10726  -0.00300   0.00000   0.01026   0.00949   2.11674
    A5        2.06376   0.00572   0.00000   0.01923   0.01845   2.08222
    A6        1.93782   0.00272   0.00000   0.01086   0.00995   1.94777
    A7        2.12141   0.00234   0.00000   0.00886   0.00877   2.13017
    A8        1.81569   0.00243   0.00000   0.00855   0.00827   1.82396
    A9        2.25541   0.00067   0.00000  -0.00231  -0.00257   2.25284
   A10        2.19600   0.01476   0.00000  -0.00465  -0.00492   2.19107
   A11        2.01126  -0.00363   0.00000   0.00830   0.00798   2.01924
   A12        1.95092  -0.00262   0.00000   0.01780   0.01752   1.96843
   A13        1.91022   0.00003   0.00000   0.00437   0.00433   1.91455
   A14        2.17356  -0.00082   0.00000  -0.00014  -0.00012   2.17343
   A15        2.19866   0.00065   0.00000  -0.00443  -0.00442   2.19425
   A16        1.90655  -0.00443   0.00000  -0.00008  -0.00017   1.90638
   A17        2.17744   0.00138   0.00000   0.00267   0.00270   2.18014
   A18        2.19692   0.00270   0.00000  -0.00297  -0.00294   2.19398
   A19        1.95238   0.05703   0.00000   0.00006  -0.00001   1.95238
   A20        1.91581   0.01167   0.00000   0.00558   0.00561   1.92142
   A21        1.87242  -0.11392   0.00000  -0.01185  -0.01187   1.86055
   A22        1.86974  -0.01630   0.00000   0.00090   0.00090   1.87064
   A23        1.93736   0.03384   0.00000  -0.00285  -0.00289   1.93447
   A24        1.91644   0.02984   0.00000   0.00870   0.00872   1.92516
   A25        1.92069   0.05325   0.00000   0.00054   0.00057   1.92126
   A26        1.94451   0.02373   0.00000   0.01206   0.01203   1.95653
   A27        1.90042  -0.13796   0.00000   0.00636   0.00632   1.90674
   A28        1.89578  -0.02115   0.00000  -0.01008  -0.01010   1.88567
   A29        1.88902   0.01853   0.00000  -0.00990  -0.00991   1.87912
   A30        1.91262   0.06477   0.00000   0.00035   0.00024   1.91286
   A31        1.96707  -0.07445   0.00000   0.01263   0.01261   1.97968
   A32        2.14955   0.04235   0.00000   0.00104   0.00102   2.15057
   A33        2.16651   0.03183   0.00000  -0.01378  -0.01379   2.15272
   A34        1.73622   0.00239   0.00000   0.01196   0.01180   1.74802
   A35        1.92911   0.00320   0.00000  -0.01749  -0.01750   1.91161
   A36        1.97662  -0.00552   0.00000   0.00918   0.00913   1.98575
   A37        1.92541   0.00135   0.00000  -0.01198  -0.01195   1.91347
   A38        1.99831  -0.00178   0.00000   0.00681   0.00669   2.00501
   A39        1.89447   0.00067   0.00000   0.00063   0.00067   1.89514
   A40        1.93398   0.00124   0.00000   0.00150   0.00150   1.93548
   A41        1.93072  -0.00007   0.00000   0.00098   0.00098   1.93169
   A42        1.93753   0.00053   0.00000   0.00080   0.00080   1.93833
   A43        1.88548  -0.00052   0.00000  -0.00162  -0.00162   1.88386
   A44        1.88441  -0.00073   0.00000  -0.00096  -0.00096   1.88346
   A45        1.88996  -0.00053   0.00000  -0.00086  -0.00086   1.88910
    D1        0.37633   0.00070   0.00000  -0.02324  -0.02326   0.35307
    D2       -2.80468  -0.00281   0.00000  -0.02838  -0.02845  -2.83312
    D3        2.87347   0.00386   0.00000   0.00936   0.00950   2.88297
    D4       -0.30754   0.00035   0.00000   0.00422   0.00431  -0.30322
    D5       -0.58950  -0.00169   0.00000   0.03522   0.03524  -0.55425
    D6        1.43515   0.00220   0.00000   0.02120   0.02113   1.45628
    D7       -2.71800   0.00152   0.00000   0.01558   0.01546  -2.70254
    D8       -3.08717  -0.00640   0.00000  -0.00432  -0.00417  -3.09134
    D9       -1.06253  -0.00250   0.00000  -0.01834  -0.01828  -1.08081
   D10        1.06751  -0.00318   0.00000  -0.02395  -0.02395   1.04356
   D11        2.86571  -0.00188   0.00000  -0.04655  -0.04659   2.81912
   D12       -1.32677  -0.00177   0.00000  -0.04697  -0.04700  -1.37378
   D13        0.77188  -0.00213   0.00000  -0.04687  -0.04691   0.72497
   D14       -1.02916   0.00135   0.00000  -0.00664  -0.00660  -1.03576
   D15        1.06154   0.00145   0.00000  -0.00705  -0.00702   1.05453
   D16       -3.12300   0.00109   0.00000  -0.00695  -0.00692  -3.12991
   D17       -0.17469   0.00649   0.00000   0.01581   0.01560  -0.15908
   D18       -2.75407  -0.00961   0.00000  -0.03448  -0.03467  -2.78873
   D19        2.31240   0.01661   0.00000   0.08704   0.08723   2.39964
   D20       -0.26697   0.00052   0.00000   0.03676   0.03696  -0.23001
   D21        3.13841  -0.01210   0.00000  -0.00682  -0.00703   3.13137
   D22        0.06572  -0.00699   0.00000  -0.00081  -0.00096   0.06476
   D23       -0.41023  -0.00054   0.00000   0.02414   0.02416  -0.38607
   D24        2.80027   0.00457   0.00000   0.03015   0.03023   2.83050
   D25        0.90260   0.00024   0.00000   0.01283   0.01282   0.91542
   D26        2.97567   0.02349   0.00000   0.01764   0.01763   2.99330
   D27       -1.22595  -0.00098   0.00000   0.02424   0.02422  -1.20173
   D28       -1.72023  -0.01510   0.00000  -0.03047  -0.03045  -1.75069
   D29        0.35283   0.00815   0.00000  -0.02566  -0.02564   0.32719
   D30        2.43440  -0.01632   0.00000  -0.01906  -0.01905   2.41535
   D31        0.59812   0.00333   0.00000  -0.03331  -0.03343   0.56469
   D32       -1.42934  -0.00195   0.00000  -0.01509  -0.01510  -1.44443
   D33        2.71096  -0.00258   0.00000  -0.01157  -0.01154   2.69941
   D34       -2.99409   0.01674   0.00000   0.00498   0.00482  -2.98926
   D35        1.26164   0.01145   0.00000   0.02320   0.02315   1.28479
   D36       -0.88125   0.01082   0.00000   0.02672   0.02671  -0.85454
   D37        2.53759  -0.02628   0.00000  -0.00378  -0.00389   2.53370
   D38       -0.59332  -0.00039   0.00000   0.00747   0.00744  -0.58589
   D39       -1.14997  -0.01116   0.00000   0.04277   0.04280  -1.10717
   D40        2.00230   0.01473   0.00000   0.05402   0.05413   2.05643
   D41        0.02056  -0.00038   0.00000  -0.00063  -0.00062   0.01994
   D42        3.09230  -0.00564   0.00000  -0.00643  -0.00648   3.08581
   D43       -3.08090   0.00323   0.00000   0.00448   0.00452  -3.07639
   D44       -0.00917  -0.00202   0.00000  -0.00133  -0.00134  -0.01052
   D45        1.60338   0.01545   0.00000  -0.01206  -0.01203   1.59135
   D46       -2.57595   0.04010   0.00000  -0.01647  -0.01648  -2.59243
   D47       -0.46449   0.04452   0.00000  -0.00416  -0.00411  -0.46860
   D48       -0.53453  -0.00128   0.00000  -0.00263  -0.00264  -0.53717
   D49        1.56933   0.02337   0.00000  -0.00705  -0.00709   1.56224
   D50       -2.60240   0.02780   0.00000   0.00526   0.00528  -2.59712
   D51       -2.59864  -0.02074   0.00000  -0.00746  -0.00746  -2.60611
   D52       -0.49478   0.00391   0.00000  -0.01188  -0.01191  -0.50669
   D53        1.61667   0.00833   0.00000   0.00043   0.00046   1.61713
   D54       -0.30252   0.03349   0.00000  -0.02213  -0.02216  -0.32467
   D55        2.82828   0.00737   0.00000  -0.03340  -0.03339   2.79489
   D56       -2.39017   0.03779   0.00000  -0.02068  -0.02068  -2.41085
   D57        0.74062   0.01167   0.00000  -0.03196  -0.03191   0.70871
   D58        1.82837   0.01582   0.00000  -0.00300  -0.00304   1.82533
   D59       -1.32402  -0.01030   0.00000  -0.01427  -0.01427  -1.33829
         Item               Value     Threshold  Converged?
 Maximum Force            0.137958     0.000450     NO 
 RMS     Force            0.023331     0.000300     NO 
 Maximum Displacement     0.108283     0.001800     NO 
 RMS     Displacement     0.022484     0.001200     NO 
 Predicted change in Energy=-4.545657D-03
 GradGradGradGradGradGradGradGradGradGradGradGradGradGradGradGradGradGrad

                          Input orientation:                          
 ---------------------------------------------------------------------
 Center     Atomic      Atomic             Coordinates (Angstroms)
 Number     Number       Type             X           Y           Z
 ---------------------------------------------------------------------
      1          6           0       -1.379921   -1.181429    0.225140
      2          6           0       -0.710062    1.143829    0.442756
      3          6           0        0.829810   -1.059787   -0.470804
      4          6           0        0.480045    1.043201   -0.305239
      5          6           0       -0.531596   -1.672724    1.256563
      6          6           0        0.772988   -1.618239    0.845951
      7          1           0        1.637456   -1.882827    1.446200
      8          6           0        2.127546   -0.856839   -1.193589
      9          1           0        2.727973   -1.774854   -1.220880
     10          1           0        1.937571   -0.562370   -2.234571
     11          6           0        2.875971    0.265933   -0.448159
     12          1           0        3.522929   -0.163027    0.327587
     13          1           0        3.503413    0.862153   -1.122452
     14          6           0        1.863480    1.172021    0.242877
     15          8           0        2.147723    1.909189    1.165162
     16          1           0       -0.875284   -1.996415    2.233667
     17          1           0        0.409166    1.350121   -1.352997
     18          1           0       -0.692400    1.183190    1.529242
     19          6           0       -0.549561   -1.289119   -1.038499
     20          1           0       -0.619405   -2.311526   -1.438348
     21          1           0       -0.847566   -0.585642   -1.824315
     22         17           0       -2.050653    2.037887   -0.208064
     23          6           0       -2.854905   -1.399271    0.219433
     24          1           0       -3.352797   -0.689014   -0.452596
     25          1           0       -3.095593   -2.414404   -0.122987
     26          1           0       -3.276728   -1.266536    1.223022
 ---------------------------------------------------------------------
                    Distance matrix (angstroms):
                    1          2          3          4          5
     1  C    0.000000
     2  C    2.429588   0.000000
     3  C    2.319924   2.839317   0.000000
     4  C    2.947839   1.409247   2.138296   0.000000
     5  C    1.422976   2.937193   2.283181   3.292247   0.000000
     6  C    2.282811   3.160858   1.431412   2.914501   1.368762
     7  H    3.329792   3.959594   2.237094   3.601219   2.187440
     8  C    3.797431   3.838271   1.499242   2.667130   3.706744
     9  H    4.395215   4.806920   2.162627   3.719276   4.095478
    10  H    4.176023   4.133903   2.141362   2.902510   4.417882
    11  C    4.545416   3.797902   2.438200   2.522902   4.275041
    12  H    5.008551   4.431630   2.948643   3.333857   4.425082
    13  H    5.462525   4.503619   3.356583   3.137096   5.326031
    14  C    4.007331   2.581446   2.561012   1.493626   3.854416
    15  O    4.783287   3.045419   3.637045   2.386035   4.474059
    16  H    2.225543   3.618811   3.331483   4.185956   1.085186
    17  H    3.478519   2.126019   2.600551   1.094084   4.102734
    18  H    2.786538   1.087342   3.368717   2.181638   2.873405
    19  C    1.515875   2.852914   1.509150   2.652825   2.326968
    20  H    2.150046   3.935258   2.145511   3.707685   2.770979
    21  H    2.199688   2.854749   2.206897   2.592928   3.282284
    22  Cl   3.316857   1.737842   4.238123   2.720896   4.268642
    23  C    1.490995   3.334305   3.764147   4.166875   2.558942
    24  H    2.143370   3.338416   4.199048   4.208677   3.442104
    25  H    2.141250   4.321094   4.167104   4.977293   3.004552
    26  H    2.144968   3.606446   4.446960   4.667313   2.775223
                    6          7          8          9         10
     6  C    0.000000
     7  H    1.085178   0.000000
     8  C    2.564037   2.874252   0.000000
     9  H    2.849261   2.883436   1.097273   0.000000
    10  H    3.458428   3.921957   1.098383   1.767037   0.000000
    11  C    3.106020   3.120846   1.541565   2.187192   2.181271
    12  H    3.154127   2.786398   2.177716   2.372275   3.039323
    13  H    4.181169   4.196984   2.202953   2.750418   2.391219
    14  C    3.055883   3.291074   2.499889   3.402059   3.025120
    15  O    3.799281   3.836500   3.635248   4.427421   4.208438
    16  H    2.187595   2.635691   4.696989   4.996643   5.471177
    17  H    3.711994   4.449287   2.801592   3.893558   2.602080
    18  H    3.234540   3.851699   4.419008   5.292650   4.912232
    19  C    2.325641   3.362924   2.716215   3.318347   2.853871
    20  H    2.763590   3.687523   3.117975   3.397094   3.198695
    21  H    3.289798   4.307469   3.053302   3.816128   2.815287
    22  Cl   4.738265   5.631229   5.177650   6.196617   5.174360
    23  C    3.688100   4.681891   5.207273   5.777897   5.448887
    24  H    4.424000   5.471128   5.532757   6.224553   5.583858
    25  H    4.066773   5.014647   5.554583   5.960563   5.763815
    26  H    4.082411   4.957704   5.934142   6.502882   6.296008
                   11         12         13         14         15
    11  C    0.000000
    12  H    1.097426   0.000000
    13  H    1.097193   1.775947   0.000000
    14  C    1.524357   2.131502   2.156275   0.000000
    15  O    2.415251   2.624272   2.857859   1.214421   0.000000
    16  H    5.136372   5.132127   6.213527   4.637139   5.053119
    17  H    2.842415   3.848312   3.140960   2.166464   3.110669
    18  H    4.181477   4.585333   4.973871   2.861361   2.953968
    19  C    3.808012   4.440658   4.589293   3.677214   4.728703
    20  H    4.454371   4.989340   5.212452   4.596340   5.678882
    21  H    4.060013   4.889837   4.638937   3.835679   4.912526
    22  Cl   5.241097   6.016292   5.750314   4.034045   4.419126
    23  C    6.005125   6.497443   6.880618   5.373571   6.071787
    24  H    6.301546   6.939809   7.061334   5.581817   6.294721
    25  H    6.553588   7.005466   7.435162   6.130964   6.917019
    26  H    6.557211   6.946573   7.483507   5.773127   6.285956
                   16         17         18         19         20
    16  H    0.000000
    17  H    5.070825   0.000000
    18  H    3.261832   3.090084   0.000000
    19  C    3.363544   2.825537   3.567354   0.000000
    20  H    3.694383   3.804328   4.585299   1.100034   0.000000
    21  H    4.296308   2.355567   3.794627   1.095990   1.783172
    22  Cl   4.859952   2.799036   2.365077   3.743244   4.741252
    23  C    2.886628   4.548171   3.614020   2.628524   2.928806
    24  H    3.881156   4.372775   3.809270   2.926011   3.328015
    25  H    3.264707   5.288470   4.631186   2.930309   2.805756
    26  H    2.705746   5.202748   3.574029   3.542941   3.903365
                   21         22         23         24         25
    21  H    0.000000
    22  Cl   3.307959   0.000000
    23  C    2.977970   3.555789   0.000000
    24  H    2.858055   3.031726   1.097261   0.000000
    25  H    3.360433   4.574061   1.098033   1.775321   0.000000
    26  H    3.956098   3.804009   1.096697   1.773982   1.778244
                   26
    26  H    0.000000
 Stoichiometry    C11H13ClO
 Framework group  C1[X(C11H13ClO)]
 Deg. of freedom    72
 Full point group                 C1      NOp   1
 Largest Abelian subgroup         C1      NOp   1
 Largest concise Abelian subgroup C1      NOp   1
                         Standard orientation:                         
 ---------------------------------------------------------------------
 Center     Atomic      Atomic             Coordinates (Angstroms)
 Number     Number       Type             X           Y           Z
 ---------------------------------------------------------------------
      1          6           0       -1.466720   -1.158600    0.189303
      2          6           0       -0.669960    1.129763    0.366682
      3          6           0        0.772553   -1.187054   -0.416414
      4          6           0        0.541260    0.936830   -0.327364
      5          6           0       -0.691099   -1.665183    1.269417
      6          6           0        0.629891   -1.699265    0.912581
      7          1           0        1.452360   -1.994236    1.556125
      8          6           0        2.108048   -1.082495   -1.089651
      9          1           0        2.653802   -2.034095   -1.064782
     10          1           0        1.977849   -0.810680   -2.145875
     11          6           0        2.890889    0.018187   -0.346630
     12          1           0        3.479630   -0.422658    0.467854
     13          1           0        3.579086    0.555455   -1.011129
     14          6           0        1.906708    1.002752    0.274405
     15          8           0        2.196656    1.751114    1.185834
     16          1           0       -1.092354   -1.937325    2.240274
[...]
   R13        2.06252   0.00005   0.00000   0.00024   0.00024   2.06276
   R14        2.06245  -0.00019   0.00000  -0.00099  -0.00099   2.06146
   R15        2.07971   0.00005   0.00000   0.00068   0.00068   2.08038
   R16        2.07914   0.00002   0.00000  -0.00064  -0.00064   2.07850
   R17        2.91205   0.00097   0.00000   0.01282   0.01282   2.92487
   R18        2.07823   0.00003   0.00000  -0.00109  -0.00109   2.07713
   R19        2.08188  -0.00003   0.00000  -0.00053  -0.00053   2.08135
   R20        2.89845   0.00085   0.00000   0.00731   0.00731   2.90576
   R21        2.27606   0.00059   0.00000   0.00293   0.00293   2.27898
   R22        2.09202  -0.00009   0.00000  -0.00023  -0.00023   2.09179
   R23        2.07497  -0.00004   0.00000  -0.00043  -0.00043   2.07454
   R24        2.08041   0.00007   0.00000  -0.00092  -0.00092   2.07950
   R25        2.08356  -0.00007   0.00000  -0.00070  -0.00070   2.08286
   R26        2.07671   0.00006   0.00000   0.00087   0.00087   2.07758
    A1        1.85317  -0.00010   0.00000  -0.00346  -0.00349   1.84969
    A2        2.20346  -0.00087   0.00000  -0.02200  -0.02192   2.18153
    A3        2.14155   0.00108   0.00000   0.01692   0.01669   2.15825
    A4        2.12643   0.00012   0.00000  -0.00519  -0.00535   2.12109
    A5        2.08066   0.00043   0.00000  -0.01039  -0.01056   2.07010
    A6        1.97069  -0.00005   0.00000   0.00162   0.00143   1.97212
    A7        2.14713  -0.00278   0.00000  -0.01573  -0.01617   2.13095
    A8        1.84625  -0.00054   0.00000  -0.00274  -0.00290   1.84335
    A9        2.24200   0.00344   0.00000   0.02919   0.02916   2.27116
   A10        2.20721   0.00221   0.00000  -0.02316  -0.02367   2.18354
   A11        2.02083  -0.00061   0.00000   0.01275   0.01217   2.03300
   A12        1.97524  -0.00141   0.00000   0.03435   0.03387   2.00911
   A13        1.91464   0.00002   0.00000   0.00045   0.00042   1.91506
   A14        2.17263   0.00011   0.00000   0.00150   0.00151   2.17414
   A15        2.19121  -0.00015   0.00000  -0.00295  -0.00297   2.18824
   A16        1.90177   0.00058   0.00000   0.00071   0.00073   1.90250
   A17        2.18197  -0.00023   0.00000  -0.00038  -0.00057   2.18140
   A18        2.18661  -0.00045   0.00000  -0.00413  -0.00423   2.18237
   A19        1.95934  -0.00006   0.00000   0.00442   0.00424   1.96358
   A20        1.91282   0.00216   0.00000   0.00875   0.00882   1.92164
   A21        1.84103  -0.00325   0.00000  -0.02118  -0.02121   1.81982
   A22        1.86666  -0.00050   0.00000   0.00132   0.00130   1.86796
   A23        1.94776   0.00108   0.00000  -0.00544  -0.00550   1.94226
   A24        1.93732   0.00067   0.00000   0.01282   0.01289   1.95020
   A25        1.96675  -0.00141   0.00000  -0.02083  -0.02111   1.94564
   A26        1.96869   0.00259   0.00000   0.01812   0.01827   1.98696
   A27        1.89282  -0.00255   0.00000  -0.02079  -0.02105   1.87177
   A28        1.85545  -0.00036   0.00000   0.00663   0.00674   1.86220
   A29        1.87177   0.00224   0.00000  -0.00486  -0.00545   1.86632
   A30        1.90532  -0.00043   0.00000   0.02255   0.02262   1.92794
   A31        1.94200  -0.00108   0.00000  -0.00300  -0.00454   1.93746
   A32        2.18922  -0.00080   0.00000  -0.00858  -0.01006   2.17916
   A33        2.15153   0.00188   0.00000   0.00876   0.00716   2.15869
   A34        1.76105  -0.00010   0.00000  -0.00430  -0.00429   1.75676
   A35        1.87326  -0.00015   0.00000  -0.00272  -0.00259   1.87067
   A36        2.01160  -0.00001   0.00000  -0.00233  -0.00246   2.00914
   A37        1.89681   0.00011   0.00000   0.00014   0.00006   1.89687
   A38        2.02720   0.00011   0.00000   0.00466   0.00472   2.03192
   A39        1.88522   0.00002   0.00000   0.00371   0.00370   1.88892
   A40        1.93255   0.00026   0.00000   0.00940   0.00938   1.94193
   A41        1.92851   0.00027   0.00000   0.00523   0.00519   1.93370
   A42        1.94765  -0.00053   0.00000  -0.01396  -0.01395   1.93370
   A43        1.87275   0.00001   0.00000   0.00218   0.00211   1.87486
   A44        1.89332  -0.00001   0.00000   0.00026   0.00028   1.89360
   A45        1.88674   0.00002   0.00000  -0.00284  -0.00285   1.88389
    D1        0.29194  -0.00012   0.00000   0.00221   0.00213   0.29407
    D2       -2.94892  -0.00035   0.00000  -0.00845  -0.00851  -2.95742
    D3        3.00669   0.00046   0.00000  -0.01259  -0.01236   2.99433
    D4       -0.23416   0.00022   0.00000  -0.02325  -0.02300  -0.25716
    D5       -0.46979  -0.00014   0.00000  -0.01115  -0.01115  -0.48094
    D6        1.51445  -0.00011   0.00000  -0.01377  -0.01379   1.50065
    D7       -2.66807  -0.00020   0.00000  -0.01251  -0.01253  -2.68060
    D8        3.07979  -0.00011   0.00000   0.01459   0.01476   3.09455
    D9       -1.21916  -0.00008   0.00000   0.01197   0.01211  -1.20705
   D10        0.88151  -0.00017   0.00000   0.01323   0.01338   0.89489
   D11        2.47607  -0.00023   0.00000  -0.01310  -0.01314   2.46292
   D12       -1.73464   0.00012   0.00000  -0.00111  -0.00109  -1.73573
   D13        0.36516  -0.00003   0.00000  -0.01043  -0.01042   0.35475
   D14       -1.15764   0.00006   0.00000  -0.03692  -0.03695  -1.19460
   D15        0.91483   0.00041   0.00000  -0.02493  -0.02490   0.88993
   D16        3.01464   0.00026   0.00000  -0.03425  -0.03423   2.98041
   D17       -0.14062  -0.00020   0.00000   0.13616   0.13604  -0.00458
   D18       -2.83212  -0.00025   0.00000   0.06266   0.06271  -2.76941
   D19        2.48990   0.00092   0.00000   0.10505   0.10501   2.59491
   D20       -0.20159   0.00087   0.00000   0.03156   0.03168  -0.16991
   D21        3.10540  -0.00152   0.00000  -0.05593  -0.05542   3.04998
   D22        0.12809  -0.00080   0.00000  -0.03144  -0.03097   0.09712
   D23       -0.33902  -0.00043   0.00000  -0.01701  -0.01712  -0.35615
   D24        2.96686   0.00029   0.00000   0.00748   0.00733   2.97418
   D25        1.04260  -0.00072   0.00000   0.04558   0.04556   1.08816
   D26        3.11423   0.00004   0.00000   0.05581   0.05583  -3.11312
   D27       -1.08222   0.00012   0.00000   0.06352   0.06351  -1.01871
   D28       -1.72377  -0.00096   0.00000   0.00595   0.00593  -1.71784
   D29        0.34786  -0.00020   0.00000   0.01618   0.01620   0.36406
   D30        2.43459  -0.00012   0.00000   0.02389   0.02389   2.45848
   D31        0.48605   0.00018   0.00000   0.01648   0.01648   0.50254
   D32       -1.48030   0.00035   0.00000   0.02137   0.02126  -1.45904
   D33        2.67386   0.00016   0.00000   0.01309   0.01297   2.68683
   D34       -2.98055  -0.00017   0.00000   0.04719   0.04759  -2.93296
   D35        1.33628  -0.00001   0.00000   0.05209   0.05236   1.38864
   D36       -0.79274  -0.00019   0.00000   0.04380   0.04407  -0.74867
   D37        2.67496  -0.00039   0.00000   0.03076   0.03098   2.70594
   D38       -0.43582  -0.00035   0.00000   0.13147   0.13091  -0.30491
   D39       -0.90682  -0.00019   0.00000   0.09838   0.09894  -0.80788
   D40        2.26558  -0.00016   0.00000   0.19909   0.19887   2.46445
   D41        0.03016   0.00035   0.00000   0.00886   0.00897   0.03914
   D42        3.00693  -0.00034   0.00000  -0.01527  -0.01506   2.99186
   D43       -3.01086   0.00058   0.00000   0.01935   0.01940  -2.99146
   D44       -0.03409  -0.00012   0.00000  -0.00478  -0.00464  -0.03873
   D45        1.63637  -0.00174   0.00000  -0.01335  -0.01310   1.62327
   D46       -2.54562  -0.00135   0.00000  -0.00669  -0.00665  -2.55227
   D47       -0.43303  -0.00199   0.00000   0.01901   0.01892  -0.41411
   D48       -0.49592  -0.00020   0.00000  -0.00200  -0.00187  -0.49779
   D49        1.60527   0.00019   0.00000   0.00466   0.00459   1.60986
   D50       -2.56532  -0.00045   0.00000   0.03036   0.03015  -2.53517
   D51       -2.57637  -0.00072   0.00000  -0.00864  -0.00848  -2.58485
   D52       -0.47517  -0.00034   0.00000  -0.00198  -0.00202  -0.47720
   D53        1.63742  -0.00097   0.00000   0.02372   0.02354   1.66096
   D54       -0.37874  -0.00259   0.00000  -0.09929  -0.09902  -0.47776
   D55        2.73283  -0.00269   0.00000  -0.19779  -0.19792   2.53492
   D56       -2.50730  -0.00075   0.00000  -0.05951  -0.05936  -2.56666
   D57        0.60427  -0.00084   0.00000  -0.15801  -0.15825   0.44602
   D58        1.77253  -0.00129   0.00000  -0.07605  -0.07588   1.69665
   D59       -1.39909  -0.00138   0.00000  -0.17455  -0.17478  -1.57386
         Item               Value     Threshold  Converged?
 Maximum Force            0.003436     0.000450     NO 
 RMS     Force            0.000950     0.000300     NO 
 Maximum Displacement     0.568094     0.001800     NO 
 RMS     Displacement     0.092201     0.001200     NO 
 Predicted change in Energy=-1.969673D-03
 GradGradGradGradGradGradGradGradGradGradGradGradGradGradGradGradGradGrad

                          Input orientation:                          
 ---------------------------------------------------------------------
 Center     Atomic      Atomic             Coordinates (Angstroms)
 Number     Number       Type             X           Y           Z
 ---------------------------------------------------------------------
      1          6           0       -1.341135   -1.204175    0.233327
      2          6           0       -0.765426    1.066859    0.325199
      3          6           0        0.851785   -1.078579   -0.529639
      4          6           0        0.470490    0.959849   -0.300352
      5          6           0       -0.468950   -1.572223    1.265659
      6          6           0        0.845160   -1.529578    0.808105
      7          1           0        1.730734   -1.639184    1.435605
      8          6           0        2.136830   -0.810201   -1.280882
      9          1           0        2.753806   -1.714539   -1.396970
     10          1           0        1.913239   -0.440822   -2.292482
     11          6           0        2.861485    0.258561   -0.427516
     12          1           0        3.555122   -0.201935    0.290111
     13          1           0        3.449732    0.977255   -1.019576
     14          6           0        1.787646    0.990647    0.394264
     15          8           0        1.967250    1.402762    1.513330
     16          1           0       -0.773053   -1.753918    2.298146
     17          1           0        0.501339    1.208193   -1.366157
     18          1           0       -0.849247    1.180247    1.405325
     19          6           0       -0.544061   -1.321501   -1.046925
     20          1           0       -0.619340   -2.373247   -1.383751
     21          1           0       -0.880911   -0.673512   -1.866559
     22         17           0       -2.084544    1.821920   -0.546748
     23          6           0       -2.830460   -1.304272    0.293543
     24          1           0       -3.308485   -0.440405   -0.192416
     25          1           0       -3.182932   -2.211075   -0.224455
     26          1           0       -3.176473   -1.353626    1.335914
 ---------------------------------------------------------------------
                    Distance matrix (angstroms):
                    1          2          3          4          5
     1  C    0.000000
     2  C    2.344670   0.000000
     3  C    2.325251   2.819402   0.000000
     4  C    2.872246   1.389336   2.086420   0.000000
     5  C    1.400670   2.817290   2.282789   3.121911   0.000000
     6  C    2.283888   3.093327   1.411738   2.750691   1.392142
     7  H    3.327324   3.845320   2.224638   3.369975   2.207255
     8  C    3.813697   3.811291   1.512525   2.621298   3.722317
     9  H    4.436991   4.804898   2.185038   3.683538   4.182823
    10  H    4.189675   4.037401   2.154306   2.830545   4.428913
    11  C    4.498703   3.791360   2.416044   2.494962   4.160579
    12  H    4.998104   4.503133   2.957790   3.348633   4.361484
    13  H    5.411175   4.425382   3.349002   3.064876   5.203673
    14  C    3.825234   2.555143   2.451760   1.489409   3.524182
    15  O    4.402265   2.998667   3.402211   2.392886   3.853174
    16  H    2.210975   3.442290   3.330548   3.957666   1.091568
    17  H    3.431119   2.117865   2.460061   1.094791   3.949510
    18  H    2.702037   1.089291   3.426353   2.167860   2.782126
    19  C    1.512659   2.763330   1.508305   2.606001   2.327348
    20  H    2.121947   3.843980   2.137729   3.670288   2.771936
    21  H    2.214256   2.801077   2.225684   2.635746   3.284537
    22  Cl   3.212231   1.752279   4.127375   2.707781   4.173150
    23  C    1.493899   3.144460   3.779881   4.046631   2.567788
    24  H    2.152921   3.001154   4.222421   4.031503   3.386733
    25  H    2.148402   4.109904   4.201742   4.838183   3.161372
    26  H    2.146275   3.562785   4.447786   4.618427   2.717241
                    6          7          8          9         10
     6  C    0.000000
     7  H    1.090876   0.000000
     8  C    2.559254   2.869047   0.000000
     9  H    2.922242   3.012614   1.100892   0.000000
    10  H    3.455405   3.920206   1.099895   1.769421   0.000000
    11  C    2.964754   2.889855   1.547776   2.201037   2.205993
    12  H    3.061837   2.589640   2.202171   2.403398   3.069631
    13  H    4.050731   3.978521   2.233157   2.805797   2.447865
    14  C    2.722329   2.829071   2.484169   3.385265   3.046881
    15  O    3.217925   3.052117   3.568414   4.336598   4.229175
    16  H    2.211145   2.650677   4.708233   5.108245   5.478526
    17  H    3.512978   4.179574   2.599234   3.690111   2.360252
    18  H    3.251282   3.821833   4.482661   5.405057   4.892134
    19  C    2.326880   3.382096   2.739223   3.339602   2.892289
    20  H    2.767810   3.743055   3.170201   3.436887   3.312706
    21  H    3.296361   4.319433   3.077087   3.809911   2.835988
    22  Cl   4.653099   5.519540   5.028620   6.053021   4.914251
    23  C    3.718295   4.713911   5.234204   5.848947   5.471357
    24  H    4.409094   5.429664   5.565336   6.310764   5.628204
    25  H    4.213805   5.217947   5.601639   6.071755   5.777672
    26  H    4.059935   4.916519   5.947614   6.539658   6.316932
                   11         12         13         14         15
    11  C    0.000000
    12  H    1.099171   0.000000
    13  H    1.101403   1.765468   0.000000
    14  C    1.537661   2.134730   2.182121   0.000000
    15  O    2.423991   2.567616   2.965538   1.205987   0.000000
    16  H    4.968820   5.017365   6.024823   4.208869   4.253214
    17  H    2.711667   3.749303   2.977662   2.191117   3.237004
    18  H    4.240088   4.748958   4.939896   2.830441   2.827337
    19  C    3.804999   4.454705   4.608190   3.586072   4.503687
    20  H    4.467320   4.994251   5.283544   4.502300   5.416805
    21  H    4.116447   4.954997   4.711356   3.873234   4.883296
    22  Cl   5.188595   6.049972   5.618295   4.070673   4.564719
    23  C    5.946479   6.480032   6.809586   5.157878   5.642157
    24  H    6.213885   6.884679   6.954671   5.325661   5.842964
    25  H    6.532635   7.050021   7.402020   5.944787   6.527182
    26  H    6.493518   6.909013   7.408638   5.569990   5.838410
                   16         17         18         19         20
    16  H    0.000000
    17  H    4.881116   0.000000
    18  H    3.067941   3.083176   0.000000
    19  C    3.380668   2.755744   3.516449   0.000000
    20  H    3.736784   3.752725   4.523177   1.106928   0.000000
    21  H    4.303914   2.387850   3.760672   1.097797   1.786232
    22  Cl   4.753951   2.781166   2.397560   3.536151   4.521817
    23  C    2.907497   4.490876   3.366616   2.650428   2.974067
    24  H    3.789015   4.313966   3.350694   3.024658   3.519468
    25  H    3.518526   5.154487   4.427566   2.903694   2.818203
    26  H    2.619647   5.233584   3.441120   3.550851   3.869771
                   21         22         23         24         25
    21  H    0.000000
    22  Cl   3.068846   0.000000
    23  C    2.977355   3.321981   0.000000
    24  H    2.958076   2.596479   1.100423   0.000000
    25  H    3.218681   4.192301   1.102203   1.775405   0.000000
    26  H    3.998499   3.849782   1.099408   1.785271   1.780453
                   26
    26  H    0.000000
 Stoichiometry    C11H13ClO
 Framework group  C1[X(C11H13ClO)]
 Deg. of freedom    72
 Full point group                 C1      NOp   1
 Largest Abelian subgroup         C1      NOp   1
 Largest concise Abelian subgroup C1      NOp   1
                         Standard orientation:                         
 ---------------------------------------------------------------------
 Center     Atomic      Atomic             Coordinates (Angstroms)
 Number     Number       Type             X           Y           Z
 ---------------------------------------------------------------------
      1          6           0       -1.312385   -1.230704    0.219022
      2          6           0       -0.772904    1.044337    0.394022
      3          6           0        0.867892   -1.037849   -0.565830
      4          6           0        0.456221    0.983144   -0.250773
      5          6           0       -0.420691   -1.624523    1.224838
      6          6           0        0.886373   -1.541528    0.752870
      7          1           0        1.781851   -1.660883    1.364331
      8          6           0        2.138304   -0.718192   -1.321875
      9          1           0        2.768466   -1.606638   -1.481629
     10          1           0        1.895312   -0.312875   -2.315074
     11          6           0        2.856525    0.328056   -0.435797
     12          1           0        3.567066   -0.148685    0.254150
     13          1           0        3.425000    1.079500   -1.006110
     14          6           0        1.781766    1.008717    0.427914
     15          8           0        1.969361    1.379168    1.560159
     16          1           0       -0.708084   -1.852097    2.253009
     17          1           0        0.468884    1.273995   -1.306146
     18          1           0       -0.844282    1.113417    1.478775
     19          6           0       -0.530496   -1.283708   -1.074800
     20          1           0       -0.592932   -2.322412   -1.452271
     21          1           0       -0.888759   -0.609562   -1.863682
     22         17           0       -2.115669    1.810883   -0.430521
     23          6           0       -2.798937   -1.358328    0.293912
     24          1           0       -3.297479   -0.484115   -0.151215
     25          1           0       -3.143283   -2.249744   -0.255319
     26          1           0       -3.130274   -1.454786    1.337756
 ---------------------------------------------------------------------
 Rotational constants (GHZ):           1.0273249           0.6514929           0.5162190
 Standard basis: STO-3G (5D, 7F)
 There are    82 symmetry adapted cartesian basis functions of A   symmetry.
 There are    82 symmetry adapted basis functions of A   symmetry.
    82 basis functions,   246 primitive gaussians,    82 cartesian basis functions
    52 alpha electrons       52 beta electrons
       nuclear repulsion energy       923.7330779546 Hartrees.
 NAtoms=   26 NActive=   26 NUniq=   26 SFac= 1.00D+00 NAtFMM=   60 NAOKFM=F Big=F
 Integral buffers will be    131072 words long.
 Raffenetti 1 integral format.
 Two-electron integral symmetry is turned on.
 External calculation of energy, first and second derivatives.
 Running external command "~/scripts/MiMe -H 'pbepbe def2svp' -EF 'wb97xd def2svp' -c 12 -m 48GB R"
         input file       "/local/jobs/1158156/Gau-77360.EIn"
         output file      "/local/jobs/1158156/Gau-77360.EOu"
         message file     "/local/jobs/1158156/Gau-77360.EMs"
         fchk file        "/local/jobs/1158156/Gau-77360.EFC"
         mat. el file     "/local/jobs/1158156/Gau-77360.EUF"
