Unloading slurm/anatra/current
  ERROR: No such file or directory on
    '/cm/local/modulefiles/slurm/anatra/current'
environment: line 0: unalias: gv: not found
environment: line 0: unalias: sl: not found
 Entering Gaussian System, Link 0=g16
 Initial command:
 /apps/gaussian/g16/C.01/g16/l1.exe "/local/jobs/1158158/Gau-2791588.inp" -scrdir="/local/jobs/1158158/"
 Entering Link 1 = /apps/gaussian/g16/C.01/g16/l1.exe PID=   2791591.
  
 Copyright (c) 1988-2019, Gaussian, Inc.  All Rights Reserved.
  
 This is part of the Gaussian(R) 16 program.  It is based on
 the Gaussian(R) 09 system (copyright 2009, Gaussian, Inc.),
 the Gaussian(R) 03 system (copyright 2003, Gaussian, Inc.),
 the Gaussian(R) 98 system (copyright 1998, Gaussian, Inc.),
 the Gaussian(R) 94 system (copyright 1995, Gaussian, Inc.),
 the Gaussian 92(TM) system (copyright 1992, Gaussian, Inc.),
 the Gaussian 90(TM) system (copyright 1990, Gaussian, Inc.),
 the Gaussian 88(TM) system (copyright 1988, Gaussian, Inc.),
 the Gaussian 86(TM) system (copyright 1986, Carnegie Mellon
 University), and the Gaussian 82(TM) system (copyright 1983,
 Carnegie Mellon University). Gaussian is a federally registered
 trademark of Gaussian, Inc.
  
 This software contains proprietary and confidential information,
 including trade secrets, belonging to Gaussian, Inc.
  
 This software is provided under written license and may be
 used, copied, transmitted, or stored only in accord with that
 written license.
  
 The following legend is applicable only to US Government
 contracts under FAR:
  
                    RESTRICTED RIGHTS LEGEND
  
 Use, reproduction and disclosure by the US Government is
 subject to restrictions as set forth in subparagraphs (a)
 and (c) of the Commercial Computer Software - Restricted
 Rights clause in FAR 52.227-19.
  
 Gaussian, Inc.
 340 Quinnipiac St., Bldg. 40, Wallingford CT 06492
  
  
 ---------------------------------------------------------------
 Warning -- This program may not be used in any manner that
 competes with the business of Gaussian, Inc. or will provide
 assistance to any competitor of Gaussian, Inc.  The licensee
 of this program is prohibited from giving any competitor of
 Gaussian, Inc. access to this program.  By using this program,
 the user acknowledges that Gaussian, Inc. is engaged in the
 business of creating and licensing software in the field of
 computational chemistry and represents and warrants to the
 licensee that it is not a competitor of Gaussian, Inc. and that
 it will not use this program in any manner prohibited above.
 ---------------------------------------------------------------
  

 Cite this work as:
 Gaussian 16, Revision C.01,
 M. J. Frisch, G. W. Trucks, H. B. Schlegel, G. E. Scuseria, 
 M. A. Robb, J. R. Cheeseman, G. Scalmani, V. Barone, 
 G. A. Petersson, H. Nakatsuji, X. Li, M. Caricato, A. V. Marenich, 
 J. Bloino, B. G. Janesko, R. Gomperts, B. Mennucci, H. P. Hratchian, 
 J. V. Ortiz, A. F. Izmaylov, J. L. Sonnenberg, D. Williams-Young, 
 F. Ding, F. Lipparini, F. Egidi, J. Goings, B. Peng, A. Petrone, 
 T. Henderson, D. Ranasinghe, V. G. Zakrzewski, J. Gao, N. Rega, 
 G. Zheng, W. Liang, M. Hada, M. Ehara, K. Toyota, R. Fukuda, 
 J. Hasegawa, M. Ishida, T. Nakajima, Y. Honda, O. Kitao, H. Nakai, 
 T. Vreven, K. Throssell, J. A. Montgomery, Jr., J. E. Peralta, 
 F. Ogliaro, M. J. Bearpark, J. J. Heyd, E. N. Brothers, K. N. Kudin, 
 V. N. Staroverov, T. A. Keith, R. Kobayashi, J. Normand, 
 K. Raghavachari, A. P. Rendell, J. C. Burant, S. S. Iyengar, 
 J. Tomasi, M. Cossi, J. M. Millam, M. Klene, C. Adamo, R. Cammi, 
 J. W. Ochterski, R. L. Martin, K. Morokuma, O. Farkas, 
 J. B. Foresman, and D. J. Fox, Gaussian, Inc., Wallingford CT, 2019.
 
 ******************************************
 Gaussian 16:  ES64L-G16RevC.01  3-Jul-2019
                18-Jan-2024 
 ******************************************
 %nprocshared=12
 Will use up to   12 processors via shared memory.
 %mem=48GB
 ----------------------------------------------------------------------
 # external="~/scripts/MiMe -H 'pbepbe def2svp' -EF 'wb97xd def2svp' -c
  12 -m 48GB" opt=(calcall,ts,noeigen,maxcycles=50,maxstep=10,nomicro)
 ----------------------------------------------------------------------
 1/5=1,6=50,8=10,10=4,11=1,18=20,26=1,38=1/1,3;
 2/9=110,12=2,17=6,18=5,40=1/2;
 3/11=9,25=1,30=1,41=9900000,43=2,71=2,140=1/1;
 4/20=17,22=2,24=3,113=1,114=1/2;
 6/7=2,8=2,9=2,10=2,18=1/1;
 7/25=1,44=-1/16;
 1/5=1,6=50,8=10,10=4,11=1,18=20,26=1/3(3);
 2/9=110/2;
 7/8=1,9=1,25=1,44=-1/16;
 99//99;
 2/9=110/2;
 3/11=9,25=1,30=1,41=9900000,43=2,71=2,140=1/1;
 4/16=2,20=17,22=2,24=3,113=1,114=1/2;
 7/25=1,44=-1/16;
 1/5=1,6=50,8=10,10=4,11=1,18=20,26=1/3(-4);
 2/9=110/2;
 6/7=2,8=2,9=2,10=2,18=1/1;
 7/8=1,9=1,25=1,44=-1/16;
 99//99;
 ----------
 TS-249.out
 ----------
 Symbolic Z-matrix:
 Charge =  0 Multiplicity = 1
 C                    -0.98025   0.69195  -0.20894 
 C                    -1.92168  -0.31      0.32291 
 O                    -3.01226  -0.50219  -0.2006 
 C                     0.22829   0.86754   0.36619 
 C                     2.98171  -0.36432   0.09422 
 H                     3.0227   -0.73989   1.12039 
 H                     3.50996  -1.0641   -0.55969 
 H                     3.48667   0.6048    0.05611 
 N                     1.58522  -0.22082  -0.33301 
 H                     1.18839  -1.16551  -0.35932 
 H                     1.60848   0.04987  -1.32227 
 H                     0.80126   1.75285   0.06792 
 H                     0.42254   0.43147   1.35258 
 H                    -1.29964   1.25724  -1.0751 
 H                    -1.5872   -0.87442   1.20893 
 
 Add virtual bond connecting atoms N9         and C4         Dist= 3.54D+00.

 GradGradGradGradGradGradGradGradGradGradGradGradGradGradGradGradGradGrad
 Berny optimization.
 Initialization pass.
                           ----------------------------
                           !    Initial Parameters    !
                           ! (Angstroms and Degrees)  !
 --------------------------                            --------------------------
 ! Name  Definition              Value          Derivative Info.                !
 --------------------------------------------------------------------------------
 ! R1    R(1,2)                  1.4741         calculate D2E/DX2 analytically  !
 ! R2    R(1,4)                  1.3499         calculate D2E/DX2 analytically  !
 ! R3    R(1,14)                 1.0825         calculate D2E/DX2 analytically  !
 ! R4    R(2,3)                  1.2249         calculate D2E/DX2 analytically  !
 ! R5    R(2,15)                 1.1025         calculate D2E/DX2 analytically  !
 ! R6    R(4,9)                  1.8747         calculate D2E/DX2 analytically  !
 ! R7    R(4,12)                 1.0959         calculate D2E/DX2 analytically  !
 ! R8    R(4,13)                 1.0958         calculate D2E/DX2 analytically  !
 ! R9    R(5,6)                  1.0935         calculate D2E/DX2 analytically  !
 ! R10   R(5,7)                  1.0938         calculate D2E/DX2 analytically  !
 ! R11   R(5,8)                  1.0934         calculate D2E/DX2 analytically  !
 ! R12   R(5,9)                  1.4674         calculate D2E/DX2 analytically  !
 ! R13   R(9,10)                 1.025          calculate D2E/DX2 analytically  !
 ! R14   R(9,11)                 1.0259         calculate D2E/DX2 analytically  !
 ! A1    A(2,1,4)              120.4284         calculate D2E/DX2 analytically  !
 ! A2    A(2,1,14)             117.0776         calculate D2E/DX2 analytically  !
 ! A3    A(4,1,14)             122.4892         calculate D2E/DX2 analytically  !
 ! A4    A(1,2,3)              121.4029         calculate D2E/DX2 analytically  !
 ! A5    A(1,2,15)             116.3699         calculate D2E/DX2 analytically  !
 ! A6    A(3,2,15)             122.2266         calculate D2E/DX2 analytically  !
 ! A7    A(1,4,9)              114.4307         calculate D2E/DX2 analytically  !
 ! A8    A(1,4,12)             117.2067         calculate D2E/DX2 analytically  !
 ! A9    A(1,4,13)             119.37           calculate D2E/DX2 analytically  !
 ! A10   A(9,4,12)              89.3727         calculate D2E/DX2 analytically  !
 ! A11   A(9,4,13)              88.6472         calculate D2E/DX2 analytically  !
 ! A12   A(12,4,13)            118.2791         calculate D2E/DX2 analytically  !
 ! A13   A(6,5,7)              108.8561         calculate D2E/DX2 analytically  !
 ! A14   A(6,5,8)              108.6508         calculate D2E/DX2 analytically  !
 ! A15   A(6,5,9)              110.0278         calculate D2E/DX2 analytically  !
 ! A16   A(7,5,8)              108.8547         calculate D2E/DX2 analytically  !
 ! A17   A(7,5,9)              110.3726         calculate D2E/DX2 analytically  !
 ! A18   A(8,5,9)              110.0394         calculate D2E/DX2 analytically  !
 ! A19   A(4,9,5)              129.5684         calculate D2E/DX2 analytically  !
 ! A20   A(4,9,10)             105.3319         calculate D2E/DX2 analytically  !
 ! A21   A(4,9,11)             102.8777         calculate D2E/DX2 analytically  !
 ! A22   A(5,9,10)             106.6058         calculate D2E/DX2 analytically  !
 ! A23   A(5,9,11)             106.5574         calculate D2E/DX2 analytically  !
 ! A24   A(10,9,11)            103.1331         calculate D2E/DX2 analytically  !
 ! D1    D(4,1,2,3)           -178.5729         calculate D2E/DX2 analytically  !
 ! D2    D(4,1,2,15)             1.151          calculate D2E/DX2 analytically  !
 ! D3    D(14,1,2,3)             0.6526         calculate D2E/DX2 analytically  !
 ! D4    D(14,1,2,15)         -179.6235         calculate D2E/DX2 analytically  !
 ! D5    D(2,1,4,9)             89.4706         calculate D2E/DX2 analytically  !
 ! D6    D(2,1,4,12)          -167.82           calculate D2E/DX2 analytically  !
 ! D7    D(2,1,4,13)           -13.5851         calculate D2E/DX2 analytically  !
 ! D8    D(14,1,4,9)           -89.7119         calculate D2E/DX2 analytically  !
 ! D9    D(14,1,4,12)           12.9975         calculate D2E/DX2 analytically  !
 ! D10   D(14,1,4,13)          167.2324         calculate D2E/DX2 analytically  !
 ! D11   D(1,4,9,5)           -175.7245         calculate D2E/DX2 analytically  !
 ! D12   D(1,4,9,10)           -48.0647         calculate D2E/DX2 analytically  !
 ! D13   D(1,4,9,11)            59.6548         calculate D2E/DX2 analytically  !
 ! D14   D(12,4,9,5)            64.4592         calculate D2E/DX2 analytically  !
 ! D15   D(12,4,9,10)         -167.881          calculate D2E/DX2 analytically  !
 ! D16   D(12,4,9,11)          -60.1615         calculate D2E/DX2 analytically  !
 ! D17   D(13,4,9,5)           -53.8472         calculate D2E/DX2 analytically  !
 ! D18   D(13,4,9,10)           73.8126         calculate D2E/DX2 analytically  !
 ! D19   D(13,4,9,11)         -178.4679         calculate D2E/DX2 analytically  !
 ! D20   D(6,5,9,4)             61.8552         calculate D2E/DX2 analytically  !
 ! D21   D(6,5,9,10)           -65.3281         calculate D2E/DX2 analytically  !
 ! D22   D(6,5,9,11)          -174.9628         calculate D2E/DX2 analytically  !
 ! D23   D(7,5,9,4)           -177.9916         calculate D2E/DX2 analytically  !
 ! D24   D(7,5,9,10)            54.8251         calculate D2E/DX2 analytically  !
 ! D25   D(7,5,9,11)           -54.8096         calculate D2E/DX2 analytically  !
 ! D26   D(8,5,9,4)            -57.8328         calculate D2E/DX2 analytically  !
 ! D27   D(8,5,9,10)           174.9839         calculate D2E/DX2 analytically  !
 ! D28   D(8,5,9,11)            65.3492         calculate D2E/DX2 analytically  !
 --------------------------------------------------------------------------------
 Trust Radius=1.00D-01 FncErr=1.00D-07 GrdErr=1.00D-07 EigMax=2.50D+02 EigMin=1.00D-04
 Number of steps in this run=     50 maximum allowed number of steps=    100.
 Search for a saddle point of order  1.
 GradGradGradGradGradGradGradGradGradGradGradGradGradGradGradGradGradGrad

                          Input orientation:                          
 ---------------------------------------------------------------------
 Center     Atomic      Atomic             Coordinates (Angstroms)
 Number     Number       Type             X           Y           Z
 ---------------------------------------------------------------------
      1          6           0       -0.980250    0.691950   -0.208940
      2          6           0       -1.921680   -0.310000    0.322910
      3          8           0       -3.012260   -0.502190   -0.200600
      4          6           0        0.228290    0.867540    0.366190
      5          6           0        2.981710   -0.364320    0.094220
      6          1           0        3.022700   -0.739890    1.120390
      7          1           0        3.509960   -1.064100   -0.559690
      8          1           0        3.486670    0.604800    0.056110
      9          7           0        1.585220   -0.220820   -0.333010
     10          1           0        1.188390   -1.165510   -0.359320
     11          1           0        1.608480    0.049870   -1.322270
     12          1           0        0.801260    1.752850    0.067920
     13          1           0        0.422540    0.431470    1.352580
     14          1           0       -1.299640    1.257240   -1.075100
     15          1           0       -1.587200   -0.874420    1.208930
 ---------------------------------------------------------------------
                    Distance matrix (angstroms):
                    1          2          3          4          5
     1  C    0.000000
     2  C    1.474130   0.000000
     3  O    2.356927   1.224894   0.000000
     4  C    1.349880   2.451702   3.563506   0.000000
     5  C    4.111537   4.909021   6.002800   3.028658   0.000000
     6  H    4.454312   5.026696   6.182415   3.310797   1.093507
     7  H    4.834121   5.554310   6.556222   3.918909   1.093773
     8  H    4.475625   5.491656   6.597531   3.283629   1.093449
     9  N    2.725835   3.568828   4.607985   1.874745   1.467413
    10  H    2.859331   3.296949   4.255660   2.362509   2.015837
    11  H    2.890206   3.911285   4.786873   2.329035   2.015876
    12  H    2.091874   3.425605   4.438496   1.095917   3.039319
    13  H    2.115187   2.665589   3.883547   1.095835   2.960760
    14  H    1.082495   2.190344   2.606417   2.136294   4.725116
    15  H    2.198240   1.102487   2.038658   2.653420   4.730509
                    6          7          8          9         10
     6  H    0.000000
     7  H    1.779102   0.000000
     8  H    1.776556   1.779039   0.000000
     9  N    2.109065   2.113558   2.109164   0.000000
    10  H    2.394867   2.332406   2.930643   1.024990   0.000000
    11  H    2.930926   2.331970   2.394885   1.025890   1.606517
    12  H    3.500892   3.958050   2.920545   2.161183   2.974765
    13  H    2.861263   3.927552   3.331632   2.149074   2.463224
    14  H    5.243217   5.365307   4.961258   3.325323   3.545751
    15  H    4.612712   5.398614   5.409366   3.587342   3.201256
                   11         12         13         14         15
    11  H    0.000000
    12  H    2.341874   0.000000
    13  H    2.950745   1.881442   0.000000
    14  H    3.158480   2.442520   3.088921   0.000000
    15  H    4.180150   3.729503   2.401050   3.137429   0.000000
 Stoichiometry    C4H9NO
 Framework group  C1[X(C4H9NO)]
 Deg. of freedom    39
 Full point group                 C1      NOp   1
 Largest Abelian subgroup         C1      NOp   1
 Largest concise Abelian subgroup C1      NOp   1
                         Standard orientation:                         
 ---------------------------------------------------------------------
 Center     Atomic      Atomic             Coordinates (Angstroms)
 Number     Number       Type             X           Y           Z
 ---------------------------------------------------------------------
      1          6           0       -0.980252    0.691948   -0.208939
      2          6           0       -1.921681   -0.310003    0.322911
      3          8           0       -3.012260   -0.502195   -0.200599
      4          6           0        0.228288    0.867539    0.366191
      5          6           0        2.981710   -0.364318    0.094221
      6          1           0        3.022700   -0.739888    1.120391
      7          1           0        3.509960   -1.064098   -0.559689
      8          1           0        3.486669    0.604802    0.056111
      9          7           0        1.585219   -0.220820   -0.333009
     10          1           0        1.188390   -1.165510   -0.359319
     11          1           0        1.608479    0.049870   -1.322269
     12          1           0        0.801257    1.752849    0.067921
     13          1           0        0.422539    0.431469    1.352581
     14          1           0       -1.299642    1.257237   -1.075099
     15          1           0       -1.587200   -0.874423    1.208931
 ---------------------------------------------------------------------
 Rotational constants (GHZ):          11.2493120           1.2678582           1.2133754
 Standard basis: STO-3G (5D, 7F)
 There are    39 symmetry adapted cartesian basis functions of A   symmetry.
 There are    39 symmetry adapted basis functions of A   symmetry.
    39 basis functions,   117 primitive gaussians,    39 cartesian basis functions
    24 alpha electrons       24 beta electrons
       nuclear repulsion energy       225.5433525727 Hartrees.
 NAtoms=   15 NActive=   15 NUniq=   15 SFac= 1.00D+00 NAtFMM=   60 NAOKFM=F Big=F
 Integral buffers will be    131072 words long.
 Raffenetti 1 integral format.
 Two-electron integral symmetry is turned on.
 External calculation of energy, first and second derivatives.
 Running external command "~/scripts/MiMe -H 'pbepbe def2svp' -EF 'wb97xd def2svp' -c 12 -m 48GB R"
         input file       "/local/jobs/1158158/Gau-2791591.EIn"
         output file      "/local/jobs/1158158/Gau-2791591.EOu"
         message file     "/local/jobs/1158158/Gau-2791591.EMs"
         fchk file        "/local/jobs/1158158/Gau-2791591.EFC"
         mat. el file     "/local/jobs/1158158/Gau-2791591.EUF"
 Read checkpoint file Gau-2791591_H.chk type G16
 Write formatted file Gau-2791591_H.fchk

deriv: 2

spelevel: wb97xd def2svp
gradlevel: wb97xd def2svp
hesslevel: pbepbe def2svp

runspe: False
runforce: True
runfreq: True

Running Gaussian ...

Parsing files ...
SPE file: Gau-2791591_F.out
FORCE file: Gau-2791591_F.out
HESS file: Gau-2791591_H.out

 ExternalExternalExternalExternalExternalExternalExternalExternalExternalExternal
 Output from external command:
 "~/scripts/MiMe -H 'pbepbe def2svp' -EF 'wb97xd def2svp' -c 12 -m 48GB R /local/jobs/1158158/Gau-2791591.EIn /local/jobs/1158158/Gau-2791591.EOu /local/jobs/1158158/Gau-2791591.EMs /local/jobs/1158158/Gau-2791591.EFC /local/jobs/1158158/Gau-2791591.EUF"
  
 --------------------------------------------------
 Force calculation at wb97xd def2svp
 Hessian calculation at pbepbe def2svp
 ExternalExternalExternalExternalExternalExternalExternalExternalExternalExternal

 Recovered energy= -287.426760468     dipole=      8.415600000000     -0.577200000000     -0.120000000000
 Energy=    -287.426760     NIter=   0.
 Dipole moment=       8.415600      -0.577200      -0.120000
 ***** Axes restored to original set *****
 -------------------------------------------------------------------
 Center     Atomic                   Forces (Hartrees/Bohr)
 Number     Number              X              Y              Z
 -------------------------------------------------------------------
      1        6          -0.029535983   -0.026595630    0.010298304
      2        6          -0.009035727    0.028900797   -0.043154025
      3        8           0.008860569   -0.007357827    0.015452622
      4        6           0.011655787    0.021171765    0.018317996
      5        6          -0.003867037    0.003316247    0.002181510
      6        1          -0.000045462   -0.000595644    0.003631452
      7        1           0.006034692   -0.002672707   -0.000695759
      8        1           0.001406577    0.003444236    0.000465617
      9        7           0.029103802   -0.031928544   -0.030626883
     10        1          -0.006355600    0.003774919    0.001432871
     11        1          -0.005256800    0.000904813    0.002447337
     12        1          -0.000803377    0.003067415    0.010436860
     13        1          -0.002982058    0.008275508    0.004241660
     14        1          -0.002349430    0.002750514   -0.005852073
     15        1           0.003170046   -0.006455863    0.011422512
 -------------------------------------------------------------------
 Cartesian Forces:  Max     0.043154025 RMS     0.014296742
 FormGI is forming the generalized inverse of G from B-inverse, IUseBI=4.

 GradGradGradGradGradGradGradGradGradGradGradGradGradGradGradGradGradGrad
 Berny optimization.
 Internal  Forces:  Max     0.036899791 RMS     0.008491535
 Search for a saddle point.
 Step number   1 out of a maximum of   50
 All quantities printed in internal units (Hartrees-Bohrs-Radians)
 Swapping is turned off.
 Second derivative matrix not updated -- analytic derivatives used.
 ITU=  0
     Eigenvalues ---   -0.03087  -0.00717  -0.00192  -0.00110   0.00553
     Eigenvalues ---    0.00828   0.01109   0.01194   0.03182   0.03484
     Eigenvalues ---    0.04215   0.04250   0.04310   0.06361   0.06701
     Eigenvalues ---    0.07413   0.07900   0.08630   0.09337   0.10860
     Eigenvalues ---    0.11919   0.13537   0.15338   0.16264   0.16750
     Eigenvalues ---    0.21368   0.31027   0.32574   0.33849   0.34568
     Eigenvalues ---    0.34719   0.35220   0.35766   0.36519   0.38262
     Eigenvalues ---    0.42959   0.43331   0.61213   0.81705
 Eigenvectors required to have negative eigenvalues:
                          A19       D1        A7        A20       D2
   1                   -0.54558  -0.38635   0.30934   0.26940  -0.26936
                          A21       D3        D10       D6        R6
   1                    0.24377  -0.21096  -0.18774   0.18694  -0.16211
 RFO step:  Lambda0=1.025863780D-04 Lambda=-2.86751412D-02.
 Linear search not attempted -- option 19 set.
 Maximum step size (   0.100) exceeded in Quadratic search.
    -- Step size scaled by   0.157
 Iteration  1 RMS(Cart)=  0.02894049 RMS(Int)=  0.00044000
 Iteration  2 RMS(Cart)=  0.00050651 RMS(Int)=  0.00003608
 Iteration  3 RMS(Cart)=  0.00000021 RMS(Int)=  0.00003608
 Variable       Old X    -DE/DX   Delta X   Delta X   Delta X     New X
                                 (Linear)    (Quad)   (Total)
    R1        2.78570  -0.01804   0.00000  -0.00614  -0.00614   2.77956
    R2        2.55090   0.03205   0.00000   0.00151   0.00151   2.55242
    R3        2.04562   0.00681   0.00000   0.00298   0.00298   2.04860
    R4        2.31471  -0.01334   0.00000  -0.00469  -0.00469   2.31003
    R5        2.08340   0.01345   0.00000   0.00650   0.00650   2.08990
    R6        3.54275   0.03690   0.00000   0.08816   0.08816   3.63091
    R7        2.07098  -0.00078   0.00000  -0.00226  -0.00226   2.06872
    R8        2.07083  -0.00000   0.00000  -0.00177  -0.00177   2.06906
    R9        2.06643   0.00361   0.00000   0.00178   0.00178   2.06821
   R10        2.06693   0.00504   0.00000   0.00318   0.00318   2.07011
   R11        2.06632   0.00369   0.00000   0.00202   0.00202   2.06834
   R12        2.77301   0.00464   0.00000  -0.00556  -0.00556   2.76745
   R13        1.93695  -0.00106   0.00000  -0.00134  -0.00134   1.93561
   R14        1.93865  -0.00224   0.00000  -0.00186  -0.00186   1.93679
    A1        2.10187   0.00351   0.00000  -0.00762  -0.00763   2.09425
    A2        2.04339  -0.00246   0.00000   0.00522   0.00522   2.04861
    A3        2.13784  -0.00106   0.00000   0.00244   0.00244   2.14028
    A4        2.11888   0.02106   0.00000   0.01785   0.01785   2.13673
    A5        2.03104  -0.00993   0.00000  -0.01172  -0.01173   2.01931
    A6        2.13326  -0.01112   0.00000  -0.00610  -0.00611   2.12715
    A7        1.99719  -0.01324   0.00000   0.00274   0.00274   1.99993
    A8        2.04564   0.00289   0.00000   0.01239   0.01237   2.05801
    A9        2.08340  -0.00158   0.00000  -0.00117  -0.00119   2.08221
   A10        1.55985   0.00746   0.00000  -0.01119  -0.01118   1.54866
   A11        1.54719   0.01067   0.00000  -0.00694  -0.00694   1.54025
   A12        2.06436  -0.00372   0.00000  -0.00514  -0.00523   2.05913
   A13        1.89990  -0.00201   0.00000  -0.00322  -0.00323   1.89667
   A14        1.89631  -0.00011   0.00000  -0.00304  -0.00306   1.89326
   A15        1.92035  -0.00145   0.00000  -0.00292  -0.00292   1.91742
   A16        1.89987  -0.00202   0.00000  -0.00311  -0.00312   1.89676
   A17        1.92637   0.00685   0.00000   0.01414   0.01413   1.94050
   A18        1.92055  -0.00138   0.00000  -0.00213  -0.00214   1.91841
   A19        2.26139  -0.01272   0.00000  -0.02227  -0.02227   2.23912
   A20        1.83839  -0.00158   0.00000   0.00225   0.00230   1.84069
   A21        1.79556   0.00053   0.00000  -0.00339  -0.00337   1.79219
   A22        1.86062   0.00939   0.00000   0.01181   0.01176   1.87238
   A23        1.85978   0.00737   0.00000   0.01174   0.01161   1.87139
   A24        1.80001  -0.00158   0.00000   0.00456   0.00447   1.80448
    D1       -3.11669  -0.00031   0.00000  -0.00834  -0.00834  -3.12502
    D2        0.02009   0.00111   0.00000  -0.00361  -0.00361   0.01648
    D3        0.01139  -0.00056   0.00000  -0.00520  -0.00520   0.00619
    D4       -3.13502   0.00086   0.00000  -0.00047  -0.00047  -3.13549
    D5        1.56156   0.00055   0.00000   0.00665   0.00665   1.56820
    D6       -2.92901   0.00333   0.00000   0.00141   0.00140  -2.92761
    D7       -0.23710  -0.00327   0.00000   0.01445   0.01446  -0.22265
    D8       -1.56577   0.00082   0.00000   0.00332   0.00332  -1.56245
    D9        0.22685   0.00360   0.00000  -0.00192  -0.00192   0.22493
   D10        2.91876  -0.00300   0.00000   0.01112   0.01113   2.92988
   D11       -3.06697   0.00113   0.00000   0.01336   0.01339  -3.05359
   D12       -0.83889   0.00192   0.00000   0.01350   0.01354  -0.82535
   D13        1.04117  -0.00012   0.00000   0.01798   0.01793   1.05910
   D14        1.12502  -0.00270   0.00000   0.00453   0.00457   1.12960
   D15       -2.93008  -0.00191   0.00000   0.00467   0.00472  -2.92536
   D16       -1.05002  -0.00396   0.00000   0.00915   0.00912  -1.04090
   D17       -0.93981   0.00153   0.00000   0.00913   0.00913  -0.93068
   D18        1.28827   0.00232   0.00000   0.00927   0.00928   1.29755
   D19       -3.11485   0.00028   0.00000   0.01375   0.01367  -3.10118
   D20        1.07958  -0.00150   0.00000   0.01820   0.01821   1.09778
   D21       -1.14019   0.00196   0.00000   0.02189   0.02195  -1.11824
   D22       -3.05368  -0.00334   0.00000   0.00680   0.00673  -3.04695
   D23       -3.10654  -0.00056   0.00000   0.02133   0.02134  -3.08520
   D24        0.95688   0.00290   0.00000   0.02502   0.02509   0.98196
   D25       -0.95661  -0.00241   0.00000   0.00994   0.00986  -0.94675
   D26       -1.00937   0.00041   0.00000   0.02513   0.02513  -0.98424
   D27        3.05405   0.00387   0.00000   0.02882   0.02888   3.08292
   D28        1.14056  -0.00143   0.00000   0.01373   0.01366   1.15422
         Item               Value     Threshold  Converged?
 Maximum Force            0.036900     0.000450     NO 
 RMS     Force            0.008492     0.000300     NO 
 Maximum Displacement     0.092164     0.001800     NO 
 RMS     Displacement     0.028968     0.001200     NO 
 Predicted change in Energy=-4.430125D-03
 GradGradGradGradGradGradGradGradGradGradGradGradGradGradGradGradGradGrad

                          Input orientation:                          
 ---------------------------------------------------------------------
 Center     Atomic      Atomic             Coordinates (Angstroms)
 Number     Number       Type             X           Y           Z
 ---------------------------------------------------------------------
      1          6           0       -0.998445    0.698901   -0.213428
      2          6           0       -1.932550   -0.297636    0.332328
      3          8           0       -3.031989   -0.504376   -0.160408
      4          6           0        0.212481    0.873748    0.358781
      5          6           0        2.988929   -0.370348    0.099321
      6          1           0        3.007227   -0.767276    1.119091
      7          1           0        3.558731   -1.044318   -0.549608
      8          1           0        3.475493    0.610074    0.099949
      9          7           0        1.604152   -0.239747   -0.358953
     10          1           0        1.206420   -1.182841   -0.398138
     11          1           0        1.635740    0.045571   -1.342836
     12          1           0        0.796500    1.751624    0.064383
     13          1           0        0.410359    0.430693    1.340287
     14          1           0       -1.321606    1.262230   -1.081435
     15          1           0       -1.577251   -0.851829    1.220986
 ---------------------------------------------------------------------
                    Distance matrix (angstroms):
                    1          2          3          4          5
     1  C    0.000000
     2  C    1.470880   0.000000
     3  O    2.363469   1.222414   0.000000
     4  C    1.350680   2.444177   3.563056   0.000000
     5  C    4.140080   4.927529   6.028008   3.053483   0.000000
     6  H    4.468858   5.024038   6.178865   3.328909   1.094449
     7  H    4.890776   5.611552   6.624244   3.962516   1.095453
     8  H    4.485780   5.488612   6.607353   3.283864   1.094519
     9  N    2.770514   3.604092   4.647930   1.921395   1.464473
    10  H    2.904566   3.342200   4.298947   2.406325   2.021126
    11  H    2.939615   3.956849   4.846470   2.367919   2.020872
    12  H    2.099341   3.423299   4.449426   1.094720   3.051349
    13  H    2.114401   2.652483   3.869909   1.094901   2.971648
    14  H    1.084070   2.192067   2.625756   2.139757   4.758173
    15  H    2.190279   1.105930   2.035985   2.631379   4.726517
                    6          7          8          9         10
     6  H    0.000000
     7  H    1.779175   0.000000
     8  H    1.776236   1.779288   0.000000
     9  N    2.105118   2.122278   2.105874   0.000000
    10  H    2.391147   2.361250   2.934507   1.024282   0.000000
    11  H    2.933050   2.348396   2.405199   1.024904   1.608032
    12  H    3.513485   3.977964   2.912285   2.190222   2.998840
    13  H    2.868411   3.957222   3.311444   2.182212   2.501864
    14  H    5.263079   5.424084   4.983285   3.367190   3.582762
    15  H    4.586390   5.436025   5.378113   3.604466   3.237275
                   11         12         13         14         15
    11  H    0.000000
    12  H    2.365418   0.000000
    13  H    2.974731   1.876671   0.000000
    14  H    3.208501   2.457393   3.091260   0.000000
    15  H    4.207352   3.708152   2.368478   3.136198   0.000000
 Stoichiometry    C4H9NO
 Framework group  C1[X(C4H9NO)]
 Deg. of freedom    39
 Full point group                 C1      NOp   1
 Largest Abelian subgroup         C1      NOp   1
 Largest concise Abelian subgroup C1      NOp   1
                         Standard orientation:                         
 ---------------------------------------------------------------------
 Center     Atomic      Atomic             Coordinates (Angstroms)
 Number     Number       Type             X           Y           Z
 ---------------------------------------------------------------------
      1          6           0       -0.995229    0.698447   -0.214292
      2          6           0       -1.929028   -0.307884    0.313726
      3          8           0       -3.024583   -0.512767   -0.188350
      4          6           0        0.211430    0.870903    0.367575
      5          6           0        2.994051   -0.359917    0.110934
      6          1           0        3.007432   -0.768840    1.126031
      7          1           0        3.570407   -1.024066   -0.542317
      8          1           0        3.476956    0.622193    0.126236
      9          7           0        1.611697   -0.228931   -0.354491
     10          1           0        1.217724   -1.172936   -0.407343
     11          1           0        1.648390    0.068147   -1.334708
     12          1           0        0.794018    1.754327    0.087279
     13          1           0        0.404797    0.416962    1.344998
     14          1           0       -1.315034    1.270849   -1.077593
     15          1           0       -1.577249   -0.871280    1.197987
 ---------------------------------------------------------------------
 Rotational constants (GHZ):          11.1134383           1.2537571           1.1999250
 Standard basis: STO-3G (5D, 7F)
 There are    39 symmetry adapted cartesian basis functions of A   symmetry.
 There are    39 symmetry adapted basis functions of A   symmetry.
    39 basis functions,   117 primitive gaussians,    39 cartesian basis functions
    24 alpha electrons       24 beta electrons
       nuclear repulsion energy       224.7011234104 Hartrees.
 NAtoms=   15 NActive=   15 NUniq=   15 SFac= 1.00D+00 NAtFMM=   60 NAOKFM=F Big=F
 Integral buffers will be    131072 words long.
 Raffenetti 1 integral format.
 Two-electron integral symmetry is turned on.
 External calculation of energy, first and second derivatives.
 Running external command "~/scripts/MiMe -H 'pbepbe def2svp' -EF 'wb97xd def2svp' -c 12 -m 48GB R"
         input file       "/local/jobs/1158158/Gau-2791591.EIn"
         output file      "/local/jobs/1158158/Gau-2791591.EOu"
         message file     "/local/jobs/1158158/Gau-2791591.EMs"
         fchk file        "/local/jobs/1158158/Gau-2791591.EFC"
         mat. el file     "/local/jobs/1158158/Gau-2791591.EUF"
 Read checkpoint file Gau-2791591_H.chk type G16
 Write formatted file Gau-2791591_H.fchk

deriv: 2

spelevel: wb97xd def2svp
gradlevel: wb97xd def2svp
hesslevel: pbepbe def2svp

runspe: False
runforce: True
runfreq: True

Running Gaussian ...

Parsing files ...
SPE file: Gau-2791591_F.out
FORCE file: Gau-2791591_F.out
HESS file: Gau-2791591_H.out

 ExternalExternalExternalExternalExternalExternalExternalExternalExternalExternal
 Output from external command:
 "~/scripts/MiMe -H 'pbepbe def2svp' -EF 'wb97xd def2svp' -c 12 -m 48GB R /local/jobs/1158158/Gau-2791591.EIn /local/jobs/1158158/Gau-2791591.EOu /local/jobs/1158158/Gau-2791591.EMs /local/jobs/1158158/Gau-2791591.EFC /local/jobs/1158158/Gau-2791591.EUF"
  
 --------------------------------------------------
 Force calculation at wb97xd def2svp
 Hessian calculation at pbepbe def2svp
 ExternalExternalExternalExternalExternalExternalExternalExternalExternalExternal

 Recovered energy= -287.431150588     dipole=      8.123500000000     -0.460400000000     -0.153700000000
 Energy=    -287.431151     NIter=   0.
 Dipole moment=       8.123500      -0.460400      -0.153700
 ***** Axes restored to original set *****
 -------------------------------------------------------------------
 Center     Atomic                   Forces (Hartrees/Bohr)
 Number     Number              X              Y              Z
 -------------------------------------------------------------------
      1        6          -0.023904073   -0.022427016    0.009376087
      2        6          -0.009012589    0.023524628   -0.036139310
      3        8           0.008272171   -0.005658550    0.012605454
      4        6           0.005984336    0.020415560    0.016242283
      5        6          -0.003182094    0.002588739    0.001743333
      6        1           0.000026504   -0.000464114    0.003139819
      7        1           0.005146812   -0.002166358   -0.000482135
      8        1           0.001182758    0.002965022    0.000536610
      9        7           0.027263735   -0.028946635   -0.027570839
     10        1          -0.005665618    0.003308073    0.001519415
     11        1          -0.004508430    0.000974239    0.002097000
     12        1          -0.000462909    0.002362347    0.008708263
     13        1          -0.002093166    0.006802398    0.003505989
     14        1          -0.001913286    0.002250243   -0.005044389
     15        1           0.002865849   -0.005528575    0.009762418
 -------------------------------------------------------------------
 Cartesian Forces:  Max     0.036139310 RMS     0.012361043
 FormGI is forming the generalized inverse of G from B-inverse, IUseBI=4.

 GradGradGradGradGradGradGradGradGradGradGradGradGradGradGradGradGradGrad
 Berny optimization.
 Internal  Forces:  Max     0.034380650 RMS     0.007311555
 Search for a saddle point.
 Step number   2 out of a maximum of   50
 All quantities printed in internal units (Hartrees-Bohrs-Radians)
 Swapping is turned off.
 Second derivative matrix not updated -- analytic derivatives used.
 ITU=  0  0
     Eigenvalues ---   -0.03281  -0.00718  -0.00207   0.00038   0.00477
     Eigenvalues ---    0.00726   0.01138   0.01219   0.03142   0.03320
     Eigenvalues ---    0.04223   0.04228   0.04305   0.06278   0.06615
     Eigenvalues ---    0.07278   0.07692   0.08282   0.08910   0.10766
     Eigenvalues ---    0.11887   0.13706   0.14757   0.15924   0.16257
     Eigenvalues ---    0.21251   0.31530   0.31958   0.33938   0.34808
     Eigenvalues ---    0.35008   0.35043   0.35537   0.36537   0.37933
     Eigenvalues ---    0.43277   0.43590   0.60677   0.82840
 Eigenvectors required to have negative eigenvalues:
                          A19       D1        A7        A20       D2
   1                   -0.55383  -0.37832   0.33191   0.28277  -0.26113
                          A21       D3        D6        D10       R6
   1                    0.24428  -0.20891   0.17745  -0.17309  -0.10797
 RFO step:  Lambda0=1.136081347D-04 Lambda=-2.51221451D-02.
 Linear search not attempted -- option 19 set.
 Maximum step size (   0.100) exceeded in Quadratic search.
    -- Step size scaled by   0.149
 Iteration  1 RMS(Cart)=  0.02735162 RMS(Int)=  0.00037291
 Iteration  2 RMS(Cart)=  0.00041308 RMS(Int)=  0.00003516
 Iteration  3 RMS(Cart)=  0.00000014 RMS(Int)=  0.00003516
 Variable       Old X    -DE/DX   Delta X   Delta X   Delta X     New X
                                 (Linear)    (Quad)   (Total)
    R1        2.77956  -0.01482   0.00000  -0.00365  -0.00365   2.77591
    R2        2.55242   0.02625   0.00000  -0.00028  -0.00028   2.55213
    R3        2.04860   0.00578   0.00000   0.00252   0.00252   2.05111
    R4        2.31003  -0.01156   0.00000  -0.00395  -0.00395   2.30608
    R5        2.08990   0.01154   0.00000   0.00507   0.00507   2.09497
    R6        3.63091   0.03438   0.00000   0.09158   0.09158   3.72249
    R7        2.06872  -0.00069   0.00000  -0.00198  -0.00198   2.06674
    R8        2.06906   0.00001   0.00000  -0.00157  -0.00157   2.06749
    R9        2.06821   0.00309   0.00000   0.00144   0.00144   2.06964
   R10        2.07011   0.00430   0.00000   0.00279   0.00279   2.07290
   R11        2.06834   0.00318   0.00000   0.00182   0.00182   2.07016
   R12        2.76745   0.00429   0.00000  -0.00446  -0.00446   2.76299
   R13        1.93561  -0.00090   0.00000  -0.00120  -0.00120   1.93442
   R14        1.93679  -0.00188   0.00000  -0.00166  -0.00166   1.93512
    A1        2.09425   0.00408   0.00000  -0.00383  -0.00383   2.09041
    A2        2.04861  -0.00258   0.00000   0.00249   0.00249   2.05110
    A3        2.14028  -0.00150   0.00000   0.00136   0.00136   2.14164
    A4        2.13673   0.01683   0.00000   0.01237   0.01237   2.14910
    A5        2.01931  -0.00778   0.00000  -0.00793  -0.00793   2.01138
    A6        2.12715  -0.00905   0.00000  -0.00444  -0.00444   2.12271
    A7        1.99993  -0.01179   0.00000   0.00283   0.00284   2.00278
    A8        2.05801   0.00250   0.00000   0.01092   0.01088   2.06889
    A9        2.08221  -0.00104   0.00000   0.00085   0.00082   2.08303
   A10        1.54866   0.00638   0.00000  -0.01415  -0.01413   1.53454
   A11        1.54025   0.00890   0.00000  -0.00859  -0.00858   1.53166
   A12        2.05913  -0.00314   0.00000  -0.00387  -0.00401   2.05512
   A13        1.89667  -0.00172   0.00000  -0.00283  -0.00284   1.89383
   A14        1.89326  -0.00023   0.00000  -0.00311  -0.00312   1.89014
   A15        1.91742  -0.00103   0.00000  -0.00181  -0.00182   1.91561
   A16        1.89676  -0.00170   0.00000  -0.00293  -0.00294   1.89382
   A17        1.94050   0.00569   0.00000   0.01220   0.01219   1.95269
   A18        1.91841  -0.00115   0.00000  -0.00188  -0.00189   1.91651
   A19        2.23912  -0.01034   0.00000  -0.01832  -0.01833   2.22080
   A20        1.84069  -0.00170   0.00000   0.00468   0.00474   1.84543
   A21        1.79219   0.00034   0.00000  -0.00589  -0.00590   1.78629
   A22        1.87238   0.00793   0.00000   0.00947   0.00945   1.88183
   A23        1.87139   0.00603   0.00000   0.00941   0.00927   1.88066
   A24        1.80448  -0.00125   0.00000   0.00425   0.00420   1.80868
    D1       -3.12502  -0.00007   0.00000  -0.00542  -0.00542  -3.13045
    D2        0.01648   0.00094   0.00000  -0.00153  -0.00153   0.01495
    D3        0.00619  -0.00042   0.00000  -0.00370  -0.00370   0.00249
    D4       -3.13549   0.00058   0.00000   0.00019   0.00019  -3.13530
    D5        1.56820   0.00036   0.00000   0.00734   0.00734   1.57554
    D6       -2.92761   0.00237   0.00000  -0.00247  -0.00249  -2.93009
    D7       -0.22265  -0.00253   0.00000   0.01601   0.01602  -0.20663
    D8       -1.56245   0.00074   0.00000   0.00552   0.00552  -1.55693
    D9        0.22493   0.00275   0.00000  -0.00430  -0.00431   0.22062
   D10        2.92988  -0.00215   0.00000   0.01419   0.01420   2.94408
   D11       -3.05359   0.00088   0.00000   0.00866   0.00870  -3.04489
   D12       -0.82535   0.00156   0.00000   0.01186   0.01188  -0.81348
   D13        1.05910  -0.00022   0.00000   0.01587   0.01582   1.07492
   D14        1.12960  -0.00238   0.00000   0.00300   0.00307   1.13266
   D15       -2.92536  -0.00170   0.00000   0.00620   0.00624  -2.91911
   D16       -1.04090  -0.00348   0.00000   0.01020   0.01018  -1.03072
   D17       -0.93068   0.00143   0.00000   0.00586   0.00586  -0.92482
   D18        1.29755   0.00211   0.00000   0.00906   0.00904   1.30660
   D19       -3.10118   0.00033   0.00000   0.01307   0.01298  -3.08819
   D20        1.09778  -0.00138   0.00000   0.02385   0.02386   1.12165
   D21       -1.11824   0.00182   0.00000   0.02277   0.02281  -1.09543
   D22       -3.04695  -0.00301   0.00000   0.00947   0.00942  -3.03752
   D23       -3.08520  -0.00055   0.00000   0.02699   0.02700  -3.05820
   D24        0.98196   0.00266   0.00000   0.02590   0.02594   1.00790
   D25       -0.94675  -0.00218   0.00000   0.01261   0.01256  -0.93419
   D26       -0.98424   0.00025   0.00000   0.02996   0.02997  -0.95427
   D27        3.08292   0.00345   0.00000   0.02887   0.02891   3.11184
   D28        1.15422  -0.00138   0.00000   0.01558   0.01553   1.16975
         Item               Value     Threshold  Converged?
 Maximum Force            0.034381     0.000450     NO 
 RMS     Force            0.007312     0.000300     NO 
 Maximum Displacement     0.090593     0.001800     NO 
 RMS     Displacement     0.027363     0.001200     NO 
 Predicted change in Energy=-3.698363D-03
 GradGradGradGradGradGradGradGradGradGradGradGradGradGradGradGradGradGrad

                          Input orientation:                          
 ---------------------------------------------------------------------
 Center     Atomic      Atomic             Coordinates (Angstroms)
 Number     Number       Type             X           Y           Z
 ---------------------------------------------------------------------
      1          6           0       -1.016700    0.704751   -0.215187
      2          6           0       -1.947955   -0.285178    0.342143
      3          8           0       -3.052344   -0.501695   -0.129699
      4          6           0        0.195315    0.880222    0.354166
      5          6           0        2.999543   -0.375592    0.102335
      6          1           0        3.002416   -0.795585    1.113809
      7          1           0        3.606671   -1.020895   -0.544377
      8          1           0        3.464861    0.615431    0.140130
      9          7           0        1.624395   -0.259188   -0.380559
     10          1           0        1.229239   -1.202136   -0.431133
     11          1           0        1.661385    0.039758   -1.359276
     12          1           0        0.790589    1.748820    0.058688
     13          1           0        0.398881    0.431616    1.331050
     14          1           0       -1.341676    1.263881   -1.086886
     15          1           0       -1.580429   -0.829739    1.235115
 ---------------------------------------------------------------------
                    Distance matrix (angstroms):
                    1          2          3          4          5
     1  C    0.000000
     2  C    1.468949   0.000000
     3  O    2.367840   1.220324   0.000000
     4  C    1.350531   2.439654   3.562459   0.000000
     5  C    4.171112   4.954132   6.057647   3.082885   0.000000
     6  H    4.491162   5.036085   6.188118   3.356367   1.095209
     7  H    4.945885   5.672836   6.692085   4.007365   1.096931
     8  H    4.496512   5.490946   6.617760   3.287226   1.095480
     9  N    2.816365   3.644812   4.689736   1.969859   1.462112
    10  H    2.954166   3.396076   4.348958   2.453958   2.025275
    11  H    2.987189   4.003467   4.901457   2.406580   2.024720
    12  H    2.105085   3.423028   4.457403   1.093673   3.065047
    13  H    2.114077   2.645633   3.862100   1.094069   2.987435
    14  H    1.085401   2.193008   2.638154   2.141534   4.790439
    15  H    2.185367   1.108613   2.033928   2.617882   4.739788
                    6          7          8          9         10
     6  H    0.000000
     7  H    1.779177   0.000000
     8  H    1.775633   1.779389   0.000000
     9  N    2.102332   2.129895   2.103186   0.000000
    10  H    2.386689   2.387017   2.937328   1.023648   0.000000
    11  H    2.934674   2.360759   2.414983   1.024024   1.609503
    12  H    3.532628   3.995664   2.905673   2.218168   3.023323
    13  H    2.886452   3.989602   3.294284   2.215558   2.542426
    14  H    5.287305   5.477285   5.002884   3.408257   3.622273
    15  H    4.584577   5.487179   5.361200   3.634120   3.287750
                   11         12         13         14         15
    11  H    0.000000
    12  H    2.385331   0.000000
    13  H    2.997553   1.872797   0.000000
    14  H    3.254389   2.468615   3.093318   0.000000
    15  H    4.242199   3.695224   2.349019   3.135593   0.000000
 Stoichiometry    C4H9NO
 Framework group  C1[X(C4H9NO)]
 Deg. of freedom    39
 Full point group                 C1      NOp   1
 Largest Abelian subgroup         C1      NOp   1
 Largest concise Abelian subgroup C1      NOp   1
                         Standard orientation:                         
 ---------------------------------------------------------------------
 Center     Atomic      Atomic             Coordinates (Angstroms)
 Number     Number       Type             X           Y           Z
 ---------------------------------------------------------------------
      1          6           0       -1.010536    0.701377   -0.220139
      2          6           0       -1.940378   -0.305200    0.309018
      3          8           0       -3.037469   -0.521960   -0.179446
      4          6           0        0.193361    0.876230    0.366371
      5          6           0        3.010132   -0.353462    0.125867
      6          1           0        3.004557   -0.790924    1.129898
      7          1           0        3.629799   -0.982758   -0.524714
      8          1           0        3.467158    0.640297    0.186246
      9          7           0        1.639814   -0.239247   -0.371078
     10          1           0        1.252714   -1.184179   -0.442578
     11          1           0        1.685821    0.076928   -1.343982
     12          1           0        0.785168    1.754372    0.092962
     13          1           0        0.389087    0.412301    1.337684
     14          1           0       -1.329753    1.273052   -1.085809
     15          1           0       -1.578977   -0.862352    1.196708
 ---------------------------------------------------------------------
 Rotational constants (GHZ):          10.9931345           1.2376184           1.1848905
 Standard basis: STO-3G (5D, 7F)
 There are    39 symmetry adapted cartesian basis functions of A   symmetry.
 There are    39 symmetry adapted basis functions of A   symmetry.
    39 basis functions,   117 primitive gaussians,    39 cartesian basis functions
    24 alpha electrons       24 beta electrons
       nuclear repulsion energy       223.8019979506 Hartrees.
 NAtoms=   15 NActive=   15 NUniq=   15 SFac= 1.00D+00 NAtFMM=   60 NAOKFM=F Big=F
 Integral buffers will be    131072 words long.
 Raffenetti 1 integral format.
 Two-electron integral symmetry is turned on.
 External calculation of energy, first and second derivatives.
 Running external command "~/scripts/MiMe -H 'pbepbe def2svp' -EF 'wb97xd def2svp' -c 12 -m 48GB R"
         input file       "/local/jobs/1158158/Gau-2791591.EIn"
         output file      "/local/jobs/1158158/Gau-2791591.EOu"
         message file     "/local/jobs/1158158/Gau-2791591.EMs"
         fchk file        "/local/jobs/1158158/Gau-2791591.EFC"
         mat. el file     "/local/jobs/1158158/Gau-2791591.EUF"
 Read checkpoint file Gau-2791591_H.chk type G16
 Write formatted file Gau-2791591_H.fchk

deriv: 2

spelevel: wb97xd def2svp
gradlevel: wb97xd def2svp
hesslevel: pbepbe def2svp

runspe: False
runforce: True
runfreq: True

Running Gaussian ...

Parsing files ...
SPE file: Gau-2791591_F.out
FORCE file: Gau-2791591_F.out
HESS file: Gau-2791591_H.out

 ExternalExternalExternalExternalExternalExternalExternalExternalExternalExternal
 Output from external command:
 "~/scripts/MiMe -H 'pbepbe def2svp' -EF 'wb97xd def2svp' -c 12 -m 48GB R /local/jobs/1158158/Gau-2791591.EIn /local/jobs/1158158/Gau-2791591.EOu /local/jobs/1158158/Gau-2791591.EMs /local/jobs/1158158/Gau-2791591.EFC /local/jobs/1158158/Gau-2791591.EUF"
  
 --------------------------------------------------
 Force calculation at wb97xd def2svp
 Hessian calculation at pbepbe def2svp
 ExternalExternalExternalExternalExternalExternalExternalExternalExternalExternal

 Recovered energy= -287.434855041     dipole=      7.807500000000     -0.358100000000     -0.164500000000
 Energy=    -287.434855     NIter=   0.
 Dipole moment=       7.807500      -0.358100      -0.164500
 ***** Axes restored to original set *****
 -------------------------------------------------------------------
 Center     Atomic                   Forces (Hartrees/Bohr)
 Number     Number              X              Y              Z
 -------------------------------------------------------------------
      1        6          -0.019369216   -0.018918566    0.008524047
      2        6          -0.008623843    0.019207841   -0.030562798
      3        8           0.007603688   -0.004391546    0.010451560
      4        6           0.001201835    0.019972091    0.014752469
      5        6          -0.002602376    0.002071106    0.001366093
      6        1           0.000070910   -0.000371783    0.002749061
      7        1           0.004408916   -0.001782095   -0.000343654
      8        1           0.001020400    0.002557371    0.000571814
      9        7           0.025885823   -0.026634866   -0.024961054
     10        1          -0.005073023    0.002910284    0.001546101
     11        1          -0.003879104    0.000979923    0.001818579
     12        1          -0.000188589    0.001788895    0.007216637
     13        1          -0.001414603    0.005539313    0.002866524
     14        1          -0.001581812    0.001850721   -0.004375448
     15        1           0.002540994   -0.004778689    0.008380070
 -------------------------------------------------------------------
 Cartesian Forces:  Max     0.030562798 RMS     0.010870929
 FormGI is forming the generalized inverse of G from B-inverse, IUseBI=4.

 GradGradGradGradGradGradGradGradGradGradGradGradGradGradGradGradGradGrad
 Berny optimization.
 Internal  Forces:  Max     0.032547349 RMS     0.006397186
 Search for a saddle point.
 Step number   3 out of a maximum of   50
 All quantities printed in internal units (Hartrees-Bohrs-Radians)
 Swapping is turned off.
 Second derivative matrix not updated -- analytic derivatives used.
 ITU=  0  0  0
     Eigenvalues ---   -0.03514  -0.00725  -0.00231   0.00149   0.00388
     Eigenvalues ---    0.00679   0.01168   0.01257   0.03060   0.03170
     Eigenvalues ---    0.04202   0.04236   0.04308   0.06148   0.06509
     Eigenvalues ---    0.07155   0.07486   0.07960   0.08505   0.10706
     Eigenvalues ---    0.11853   0.13610   0.13830   0.15724   0.16228
     Eigenvalues ---    0.21157   0.31437   0.31907   0.33871   0.34718
     Eigenvalues ---    0.35196   0.35313   0.35363   0.36622   0.37656
     Eigenvalues ---    0.43556   0.43822   0.60441   0.83816
 Eigenvectors required to have negative eigenvalues:
                          A19       D1        A7        A20       D2
   1                    0.56069   0.36578  -0.35192  -0.29508   0.24962
                          A21       D3        D6        D10       A11
   1                   -0.24320   0.20447  -0.16859   0.16192   0.11279
 RFO step:  Lambda0=1.257807909D-04 Lambda=-2.28365097D-02.
 Linear search not attempted -- option 19 set.
 Maximum step size (   0.100) exceeded in Quadratic search.
    -- Step size scaled by   0.147
 Iteration  1 RMS(Cart)=  0.02602542 RMS(Int)=  0.00031411
 Iteration  2 RMS(Cart)=  0.00034475 RMS(Int)=  0.00003531
 Iteration  3 RMS(Cart)=  0.00000010 RMS(Int)=  0.00003531
 Variable       Old X    -DE/DX   Delta X   Delta X   Delta X     New X
                                 (Linear)    (Quad)   (Total)
    R1        2.77591  -0.01218   0.00000  -0.00221  -0.00221   2.77371
    R2        2.55213   0.02155   0.00000  -0.00115  -0.00115   2.55098
    R3        2.05111   0.00494   0.00000   0.00218   0.00218   2.05329
    R4        2.30608  -0.01014   0.00000  -0.00346  -0.00346   2.30261
    R5        2.09497   0.00994   0.00000   0.00419   0.00419   2.09916
    R6        3.72249   0.03255   0.00000   0.09308   0.09308   3.81557
    R7        2.06674  -0.00063   0.00000  -0.00172  -0.00172   2.06502
    R8        2.06749   0.00003   0.00000  -0.00128  -0.00128   2.06621
    R9        2.06964   0.00268   0.00000   0.00124   0.00124   2.07089
   R10        2.07290   0.00369   0.00000   0.00249   0.00249   2.07539
   R11        2.07016   0.00277   0.00000   0.00162   0.00162   2.07177
   R12        2.76299   0.00396   0.00000  -0.00362  -0.00362   2.75937
   R13        1.93442  -0.00080   0.00000  -0.00110  -0.00110   1.93331
   R14        1.93512  -0.00159   0.00000  -0.00147  -0.00147   1.93365
    A1        2.09041   0.00427   0.00000  -0.00213  -0.00213   2.08828
    A2        2.05110  -0.00257   0.00000   0.00124   0.00124   2.05234
    A3        2.14164  -0.00171   0.00000   0.00089   0.00089   2.14253
    A4        2.14910   0.01362   0.00000   0.00932   0.00932   2.15842
    A5        2.01138  -0.00617   0.00000  -0.00593  -0.00593   2.00545
    A6        2.12271  -0.00745   0.00000  -0.00341  -0.00341   2.11930
    A7        2.00278  -0.01049   0.00000   0.00274   0.00276   2.00553
    A8        2.06889   0.00215   0.00000   0.00994   0.00990   2.07879
    A9        2.08303  -0.00064   0.00000   0.00173   0.00169   2.08472
   A10        1.53454   0.00547   0.00000  -0.01524  -0.01521   1.51933
   A11        1.53166   0.00737   0.00000  -0.00966  -0.00964   1.52202
   A12        2.05512  -0.00261   0.00000  -0.00315  -0.00332   2.05180
   A13        1.89383  -0.00148   0.00000  -0.00256  -0.00257   1.89126
   A14        1.89014  -0.00031   0.00000  -0.00304  -0.00304   1.88709
   A15        1.91561  -0.00074   0.00000  -0.00137  -0.00138   1.91423
   A16        1.89382  -0.00144   0.00000  -0.00265  -0.00266   1.89116
   A17        1.95269   0.00474   0.00000   0.01059   0.01058   1.96327
   A18        1.91651  -0.00091   0.00000  -0.00140  -0.00141   1.91510
   A19        2.22080  -0.00837   0.00000  -0.01637  -0.01638   2.20442
   A20        1.84543  -0.00178   0.00000   0.00594   0.00599   1.85143
   A21        1.78629   0.00019   0.00000  -0.00637  -0.00639   1.77990
   A22        1.88183   0.00675   0.00000   0.00780   0.00780   1.88963
   A23        1.88066   0.00493   0.00000   0.00800   0.00787   1.88853
   A24        1.80868  -0.00097   0.00000   0.00397   0.00393   1.81261
    D1       -3.13045   0.00009   0.00000  -0.00192  -0.00192  -3.13236
    D2        0.01495   0.00077   0.00000   0.00086   0.00086   0.01580
    D3        0.00249  -0.00035   0.00000  -0.00190  -0.00190   0.00059
    D4       -3.13530   0.00033   0.00000   0.00087   0.00087  -3.13442
    D5        1.57554   0.00014   0.00000   0.00589   0.00590   1.58145
    D6       -2.93009   0.00156   0.00000  -0.00600  -0.00601  -2.93611
    D7       -0.20663  -0.00193   0.00000   0.01549   0.01550  -0.19113
    D8       -1.55693   0.00061   0.00000   0.00588   0.00588  -1.55105
    D9        0.22062   0.00202   0.00000  -0.00602  -0.00603   0.21458
   D10        2.94408  -0.00147   0.00000   0.01547   0.01548   2.95956
   D11       -3.04489   0.00072   0.00000   0.00784   0.00788  -3.03701
   D12       -0.81348   0.00129   0.00000   0.01162   0.01163  -0.80185
   D13        1.07492  -0.00027   0.00000   0.01551   0.01546   1.09038
   D14        1.13266  -0.00210   0.00000   0.00385   0.00393   1.13659
   D15       -2.91911  -0.00152   0.00000   0.00763   0.00768  -2.91144
   D16       -1.03072  -0.00309   0.00000   0.01152   0.01151  -1.01921
   D17       -0.92482   0.00133   0.00000   0.00545   0.00545  -0.91937
   D18        1.30660   0.00190   0.00000   0.00923   0.00920   1.31579
   D19       -3.08819   0.00034   0.00000   0.01312   0.01303  -3.07516
   D20        1.12165  -0.00128   0.00000   0.02330   0.02331   1.14495
   D21       -1.09543   0.00167   0.00000   0.02051   0.02054  -1.07489
   D22       -3.03752  -0.00269   0.00000   0.00854   0.00850  -3.02903
   D23       -3.05820  -0.00055   0.00000   0.02606   0.02607  -3.03213
   D24        1.00790   0.00240   0.00000   0.02328   0.02331   1.03121
   D25       -0.93419  -0.00196   0.00000   0.01130   0.01126  -0.92293
   D26       -0.95427   0.00011   0.00000   0.02871   0.02872  -0.92555
   D27        3.11184   0.00306   0.00000   0.02592   0.02595   3.13779
   D28        1.16975  -0.00130   0.00000   0.01395   0.01391   1.18365
         Item               Value     Threshold  Converged?
 Maximum Force            0.032547     0.000450     NO 
 RMS     Force            0.006397     0.000300     NO 
 Maximum Displacement     0.084966     0.001800     NO 
 RMS     Displacement     0.026035     0.001200     NO 
 Predicted change in Energy=-3.282440D-03
 GradGradGradGradGradGradGradGradGradGradGradGradGradGradGradGradGradGrad

                          Input orientation:                          
 ---------------------------------------------------------------------
 Center     Atomic      Atomic             Coordinates (Angstroms)
 Number     Number       Type             X           Y           Z
 ---------------------------------------------------------------------
      1          6           0       -1.035104    0.710897   -0.214953
      2          6           0       -1.964519   -0.273535    0.352025
      3          8           0       -3.071372   -0.498903   -0.104926
      4          6           0        0.177557    0.887731    0.351148
      5          6           0        3.011289   -0.380856    0.104483
      6          1           0        3.001886   -0.822577    1.107338
      7          1           0        3.651632   -0.998379   -0.539552
      8          1           0        3.455523    0.618866    0.176344
      9          7           0        1.644981   -0.277959   -0.400286
     10          1           0        1.253943   -1.221337   -0.461828
     11          1           0        1.686531    0.034060   -1.373913
     12          1           0        0.783739    1.746311    0.051954
     13          1           0        0.388239    0.433909    1.323341
     14          1           0       -1.361556    1.265037   -1.090714
     15          1           0       -1.588583   -0.808796    1.249860
 ---------------------------------------------------------------------
                    Distance matrix (angstroms):
                    1          2          3          4          5
     1  C    0.000000
     2  C    1.467782   0.000000
     3  O    2.371099   1.218490   0.000000
     4  C    1.349921   2.436602   3.561783   0.000000
     5  C    4.203244   4.983118   6.087410   3.114514   0.000000
     6  H    4.516335   5.053427   6.201517   3.387302   1.095867
     7  H    4.999248   5.732492   6.755528   4.052154   1.098250
     8  H    4.508582   5.495826   6.627887   3.293616   1.096336
     9  N    2.862697   3.687069   4.730755   2.019113   1.460198
    10  H    3.005696   3.452417   4.399732   2.503539   2.028640
    11  H    3.034566   4.050141   4.952981   2.445729   2.028002
    12  H    2.109861   3.423850   4.464021   1.092764   3.080516
    13  H    2.113995   2.641856   3.857330   1.093389   3.004971
    14  H    1.086554   2.193688   2.647024   2.142474   4.822783
    15  H    2.182082   1.110828   2.032275   2.608666   4.759606
                    6          7          8          9         10
     6  H    0.000000
     7  H    1.779136   0.000000
     8  H    1.774907   1.779451   0.000000
     9  N    2.100174   2.136598   2.101157   0.000000
    10  H    2.382561   2.409287   2.939484   1.023065   0.000000
    11  H    2.936084   2.371436   2.423763   1.023245   1.610917
    12  H    3.554321   4.013479   2.902591   2.245869   3.048278
    13  H    2.908017   4.021387   3.279945   2.248788   2.583817
    14  H    5.313115   5.528009   5.022671   3.449172   3.663112
    15  H    4.592702   5.540559   5.351043   3.668883   3.343654
                   11         12         13         14         15
    11  H    0.000000
    12  H    2.404149   0.000000
    13  H    3.020036   1.869557   0.000000
    14  H    3.299445   2.477823   3.095192   0.000000
    15  H    4.280299   3.686660   2.336138   3.135380   0.000000
 Stoichiometry    C4H9NO
 Framework group  C1[X(C4H9NO)]
 Deg. of freedom    39
 Full point group                 C1      NOp   1
 Largest Abelian subgroup         C1      NOp   1
 Largest concise Abelian subgroup C1      NOp   1
                         Standard orientation:                         
 ---------------------------------------------------------------------
 Center     Atomic      Atomic             Coordinates (Angstroms)
 Number     Number       Type             X           Y           Z
 ---------------------------------------------------------------------
      1          6           0       -1.026247    0.703485   -0.226059
      2          6           0       -1.952954   -0.302186    0.307068
      3          8           0       -3.049409   -0.531841   -0.172267
      4          6           0        0.174791    0.883806    0.363245
      5          6           0        3.027165   -0.346784    0.140069
      6          1           0        3.006655   -0.807317    1.134259
      7          1           0        3.685302   -0.944605   -0.504617
      8          1           0        3.458162    0.656529    0.237827
      9          7           0        1.668159   -0.250384   -0.385276
     10          1           0        1.289504   -1.196941   -0.470790
     11          1           0        1.721885    0.080305   -1.352121
     12          1           0        0.775460    1.754861    0.090127
     13          1           0        0.374968    0.414317    1.330204
     14          1           0       -1.344947    1.270108   -1.096673
     15          1           0       -1.585366   -0.849770    1.200919
 ---------------------------------------------------------------------
 Rotational constants (GHZ):          10.8615324           1.2214336           1.1697274
 Standard basis: STO-3G (5D, 7F)
 There are    39 symmetry adapted cartesian basis functions of A   symmetry.
 There are    39 symmetry adapted basis functions of A   symmetry.
    39 basis functions,   117 primitive gaussians,    39 cartesian basis functions
    24 alpha electrons       24 beta electrons
       nuclear repulsion energy       222.8979606532 Hartrees.
 NAtoms=   15 NActive=   15 NUniq=   15 SFac= 1.00D+00 NAtFMM=   60 NAOKFM=F Big=F
 Integral buffers will be    131072 words long.
 Raffenetti 1 integral format.
 Two-electron integral symmetry is turned on.
 External calculation of energy, first and second derivatives.
 Running external command "~/scripts/MiMe -H 'pbepbe def2svp' -EF 'wb97xd def2svp' -c 12 -m 48GB R"
         input file       "/local/jobs/1158158/Gau-2791591.EIn"
         output file      "/local/jobs/1158158/Gau-2791591.EOu"
         message file     "/local/jobs/1158158/Gau-2791591.EMs"
         fchk file        "/local/jobs/1158158/Gau-2791591.EFC"
         mat. el file     "/local/jobs/1158158/Gau-2791591.EUF"
 Read checkpoint file Gau-2791591_H.chk type G16
 Write formatted file Gau-2791591_H.fchk

deriv: 2

spelevel: wb97xd def2svp
gradlevel: wb97xd def2svp
hesslevel: pbepbe def2svp

runspe: False
runforce: True
runfreq: True

Running Gaussian ...

Parsing files ...
SPE file: Gau-2791591_F.out
FORCE file: Gau-2791591_F.out
HESS file: Gau-2791591_H.out

 ExternalExternalExternalExternalExternalExternalExternalExternalExternalExternal
 Output from external command:
 "~/scripts/MiMe -H 'pbepbe def2svp' -EF 'wb97xd def2svp' -c 12 -m 48GB R /local/jobs/1158158/Gau-2791591.EIn /local/jobs/1158158/Gau-2791591.EOu /local/jobs/1158158/Gau-2791591.EMs /local/jobs/1158158/Gau-2791591.EFC /local/jobs/1158158/Gau-2791591.EUF"
  
 --------------------------------------------------
 Force calculation at wb97xd def2svp
 Hessian calculation at pbepbe def2svp
 ExternalExternalExternalExternalExternalExternalExternalExternalExternalExternal

 Recovered energy= -287.438121319     dipole=      7.492600000000     -0.263400000000     -0.164600000000
 Energy=    -287.438121     NIter=   0.
 Dipole moment=       7.492600      -0.263400      -0.164600
 ***** Axes restored to original set *****
 -------------------------------------------------------------------
 Center     Atomic                   Forces (Hartrees/Bohr)
 Number     Number              X              Y              Z
 -------------------------------------------------------------------
      1        6          -0.015630997   -0.015962116    0.007695303
      2        6          -0.008073612    0.015637184   -0.025919691
      3        8           0.006903212   -0.003372784    0.008719028
      4        6          -0.002140667    0.019152670    0.013334497
      5        6          -0.002130231    0.001693456    0.001090760
      6        1           0.000105318   -0.000295965    0.002420105
      7        1           0.003761207   -0.001484366   -0.000253861
      8        1           0.000899777    0.002204074    0.000570755
      9        7           0.024132031   -0.024246815   -0.022400044
     10        1          -0.004541240    0.002563126    0.001522171
     11        1          -0.003332898    0.000957459    0.001584256
     12        1           0.000027028    0.001313596    0.005908426
     13        1          -0.000891880    0.004461396    0.002324304
     14        1          -0.001318773    0.001527997   -0.003791068
     15        1           0.002231724   -0.004148913    0.007195060
 -------------------------------------------------------------------
 Cartesian Forces:  Max     0.025919691 RMS     0.009582753
 FormGI is forming the generalized inverse of G from B-inverse, IUseBI=4.

 GradGradGradGradGradGradGradGradGradGradGradGradGradGradGradGradGradGrad
 Berny optimization.
 Internal  Forces:  Max     0.030230612 RMS     0.005596031
 Search for a saddle point.
 Step number   4 out of a maximum of   50
 All quantities printed in internal units (Hartrees-Bohrs-Radians)
 Swapping is turned off.
 Second derivative matrix not updated -- analytic derivatives used.
 ITU=  0  0  0  0
     Eigenvalues ---   -0.03745  -0.00734  -0.00257   0.00184   0.00312
     Eigenvalues ---    0.00687   0.01198   0.01292   0.02954   0.03033
     Eigenvalues ---    0.04183   0.04238   0.04312   0.05981   0.06363
     Eigenvalues ---    0.07048   0.07271   0.07669   0.08172   0.10662
     Eigenvalues ---    0.11798   0.12391   0.13921   0.15677   0.16198
     Eigenvalues ---    0.21079   0.31071   0.32106   0.33706   0.34597
     Eigenvalues ---    0.35168   0.35438   0.35597   0.36740   0.37419
     Eigenvalues ---    0.43798   0.44032   0.60373   0.84686
 Eigenvectors required to have negative eigenvalues:
                          A19       A7        D1        A20       A21
   1                   -0.56466   0.36964  -0.35329   0.30473   0.24067
                          D2        D3        D6        D10       A11
   1                   -0.23864  -0.19960   0.16147  -0.15386  -0.12690
 RFO step:  Lambda0=1.294770762D-04 Lambda=-2.05481741D-02.
 Linear search not attempted -- option 19 set.
 Maximum step size (   0.100) exceeded in Quadratic search.
    -- Step size scaled by   0.149
 Iteration  1 RMS(Cart)=  0.02371092 RMS(Int)=  0.00022298
 Iteration  2 RMS(Cart)=  0.00024501 RMS(Int)=  0.00003332
 Iteration  3 RMS(Cart)=  0.00000005 RMS(Int)=  0.00003332
 Variable       Old X    -DE/DX   Delta X   Delta X   Delta X     New X
                                 (Linear)    (Quad)   (Total)
    R1        2.77371  -0.00998   0.00000  -0.00128  -0.00128   2.77242
    R2        2.55098   0.01766   0.00000  -0.00157  -0.00157   2.54941
    R3        2.05329   0.00423   0.00000   0.00191   0.00191   2.05520
    R4        2.30261  -0.00892   0.00000  -0.00314  -0.00314   2.29947
    R5        2.09916   0.00857   0.00000   0.00364   0.00364   2.10280
    R6        3.81557   0.03023   0.00000   0.09426   0.09426   3.90984
    R7        2.06502  -0.00057   0.00000  -0.00152  -0.00152   2.06350
    R8        2.06621   0.00004   0.00000  -0.00100  -0.00100   2.06521
    R9        2.07089   0.00233   0.00000   0.00118   0.00118   2.07206
   R10        2.07539   0.00318   0.00000   0.00227   0.00227   2.07766
   R11        2.07177   0.00241   0.00000   0.00140   0.00140   2.07317
   R12        2.75937   0.00364   0.00000  -0.00299  -0.00299   2.75639
   R13        1.93331  -0.00072   0.00000  -0.00108  -0.00108   1.93223
   R14        1.93365  -0.00135   0.00000  -0.00128  -0.00128   1.93237
    A1        2.08828   0.00430   0.00000  -0.00155  -0.00155   2.08673
    A2        2.05234  -0.00250   0.00000   0.00079   0.00079   2.05314
    A3        2.14253  -0.00181   0.00000   0.00075   0.00075   2.14328
    A4        2.15842   0.01102   0.00000   0.00770   0.00770   2.16612
    A5        2.00545  -0.00489   0.00000  -0.00492  -0.00492   2.00053
    A6        2.11930  -0.00614   0.00000  -0.00279  -0.00279   2.11650
    A7        2.00553  -0.00929   0.00000   0.00238   0.00239   2.00792
    A8        2.07879   0.00183   0.00000   0.00943   0.00937   2.08816
    A9        2.08472  -0.00035   0.00000   0.00200   0.00194   2.08666
   A10        1.51933   0.00467   0.00000  -0.01480  -0.01477   1.50456
   A11        1.52202   0.00607   0.00000  -0.01128  -0.01127   1.51076
   A12        2.05180  -0.00215   0.00000  -0.00270  -0.00289   2.04891
   A13        1.89126  -0.00127   0.00000  -0.00244  -0.00244   1.88882
   A14        1.88709  -0.00037   0.00000  -0.00294  -0.00294   1.88415
   A15        1.91423  -0.00050   0.00000  -0.00136  -0.00136   1.91286
   A16        1.89116  -0.00123   0.00000  -0.00230  -0.00231   1.88885
   A17        1.96327   0.00391   0.00000   0.00929   0.00928   1.97255
   A18        1.91510  -0.00070   0.00000  -0.00071  -0.00072   1.91439
   A19        2.20442  -0.00676   0.00000  -0.01484  -0.01485   2.18957
   A20        1.85143  -0.00183   0.00000   0.00426   0.00429   1.85572
   A21        1.77990   0.00008   0.00000  -0.00439  -0.00439   1.77551
   A22        1.88963   0.00576   0.00000   0.00659   0.00658   1.89621
   A23        1.88853   0.00402   0.00000   0.00718   0.00709   1.89562
   A24        1.81261  -0.00075   0.00000   0.00382   0.00379   1.81640
    D1       -3.13236   0.00017   0.00000   0.00007   0.00007  -3.13230
    D2        0.01580   0.00061   0.00000   0.00146   0.00146   0.01726
    D3        0.00059  -0.00031   0.00000  -0.00114  -0.00114  -0.00055
    D4       -3.13442   0.00013   0.00000   0.00025   0.00025  -3.13417
    D5        1.58145  -0.00005   0.00000   0.00234   0.00235   1.58380
    D6       -2.93611   0.00090   0.00000  -0.00960  -0.00962  -2.94573
    D7       -0.19113  -0.00144   0.00000   0.01414   0.01415  -0.17698
    D8       -1.55105   0.00046   0.00000   0.00362   0.00362  -1.54742
    D9        0.21458   0.00141   0.00000  -0.00833  -0.00835   0.20624
   D10        2.95956  -0.00093   0.00000   0.01541   0.01542   2.97498
   D11       -3.03701   0.00057   0.00000   0.01100   0.01102  -3.02598
   D12       -0.80185   0.00106   0.00000   0.01223   0.01224  -0.78960
   D13        1.09038  -0.00031   0.00000   0.01611   0.01608   1.10646
   D14        1.13659  -0.00184   0.00000   0.00744   0.00750   1.14409
   D15       -2.91144  -0.00136   0.00000   0.00867   0.00872  -2.90272
   D16       -1.01921  -0.00272   0.00000   0.01255   0.01256  -1.00665
   D17       -0.91937   0.00121   0.00000   0.00798   0.00796  -0.91141
   D18        1.31579   0.00170   0.00000   0.00921   0.00918   1.32497
   D19       -3.07516   0.00033   0.00000   0.01309   0.01302  -3.06214
   D20        1.14495  -0.00118   0.00000   0.01498   0.01498   1.15994
   D21       -1.07489   0.00152   0.00000   0.01495   0.01497  -1.05991
   D22       -3.02903  -0.00239   0.00000   0.00380   0.00377  -3.02526
   D23       -3.03213  -0.00056   0.00000   0.01708   0.01709  -3.01504
   D24        1.03121   0.00214   0.00000   0.01706   0.01708   1.04829
   D25       -0.92293  -0.00176   0.00000   0.00590   0.00587  -0.91705
   D26       -0.92555  -0.00001   0.00000   0.01982   0.01983  -0.90572
   D27        3.13779   0.00269   0.00000   0.01980   0.01982  -3.12558
   D28        1.18365  -0.00121   0.00000   0.00864   0.00861   1.19227
         Item               Value     Threshold  Converged?
 Maximum Force            0.030231     0.000450     NO 
 RMS     Force            0.005596     0.000300     NO 
 Maximum Displacement     0.074920     0.001800     NO 
 RMS     Displacement     0.023717     0.001200     NO 
 Predicted change in Energy=-2.959554D-03
 GradGradGradGradGradGradGradGradGradGradGradGradGradGradGradGradGradGrad

                          Input orientation:                          
 ---------------------------------------------------------------------
 Center     Atomic      Atomic             Coordinates (Angstroms)
 Number     Number       Type             X           Y           Z
 ---------------------------------------------------------------------
      1          6           0       -1.053966    0.718335   -0.213023
      2          6           0       -1.979679   -0.264280    0.361358
      3          8           0       -3.087700   -0.499203   -0.083360
      4          6           0        0.159255    0.897684    0.349095
      5          6           0        3.022812   -0.387038    0.106571
      6          1           0        3.000446   -0.844864    1.102655
      7          1           0        3.691278   -0.983318   -0.530924
      8          1           0        3.450285    0.618421    0.206041
      9          7           0        1.665650   -0.294102   -0.419778
     10          1           0        1.277540   -1.237353   -0.491494
     11          1           0        1.712815    0.029664   -1.388587
     12          1           0        0.775099    1.746665    0.045220
     13          1           0        0.378815    0.437687    1.315813
     14          1           0       -1.383320    1.268247   -1.091616
     15          1           0       -1.595139   -0.792076    1.262350
 ---------------------------------------------------------------------
                    Distance matrix (angstroms):
                    1          2          3          4          5
     1  C    0.000000
     2  C    1.467102   0.000000
     3  O    2.373875   1.216829   0.000000
     4  C    1.349092   2.434203   3.561042   0.000000
     5  C    4.236049   5.010478   6.114491   3.147902   0.000000
     6  H    4.540139   5.068357   6.212216   3.417117   1.096489
     7  H    5.051141   5.785580   6.810963   4.097290   1.099453
     8  H    4.524807   5.503434   6.639132   3.305954   1.097076
     9  N    2.909311   3.728201   4.769652   2.068996   1.458618
    10  H    3.055844   3.504810   4.445982   2.552554   2.031426
    11  H    3.084039   4.096733   5.002825   2.487277   2.031066
    12  H    2.114151   3.425295   4.470086   1.091959   3.099785
    13  H    2.113993   2.639363   3.853852   1.092862   3.022111
    14  H    1.087567   2.194406   2.654311   2.143013   4.856915
    15  H    2.179664   1.112756   2.030873   2.601388   4.777588
                    6          7          8          9         10
     6  H    0.000000
     7  H    1.779045   0.000000
     8  H    1.774112   1.779539   0.000000
     9  N    2.098290   2.142555   2.099826   0.000000
    10  H    2.379867   2.427390   2.941304   1.022495   0.000000
    11  H    2.937530   2.382443   2.430695   1.022566   1.612319
    12  H    3.575802   4.035944   2.907820   2.274650   3.073250
    13  H    2.926315   4.049951   3.270808   2.281169   2.622941
    14  H    5.338302   5.579917   5.046774   3.491206   3.703829
    15  H    4.598662   5.585572   5.344305   3.702739   3.395073
                   11         12         13         14         15
    11  H    0.000000
    12  H    2.425532   0.000000
    13  H    3.042995   1.866781   0.000000
    14  H    3.347885   2.485972   3.096880   0.000000
    15  H    4.318019   3.680305   2.326301   3.135436   0.000000
 Stoichiometry    C4H9NO
 Framework group  C1[X(C4H9NO)]
 Deg. of freedom    39
 Full point group                 C1      NOp   1
 Largest Abelian subgroup         C1      NOp   1
 Largest concise Abelian subgroup C1      NOp   1
                         Standard orientation:                         
 ---------------------------------------------------------------------
 Center     Atomic      Atomic             Coordinates (Angstroms)
 Number     Number       Type             X           Y           Z
 ---------------------------------------------------------------------
      1          6           0       -1.042677    0.706816   -0.231126
      2          6           0       -1.964595   -0.300092    0.306083
      3          8           0       -3.059385   -0.543749   -0.165869
      4          6           0        0.155721    0.894381    0.359391
      5          6           0        3.043399   -0.341901    0.153953
[...]
     4   6    -0.01   0.00   0.05     0.01  -0.01  -0.05     0.00  -0.00   0.00
     5   6    -0.00  -0.00   0.00    -0.00  -0.01   0.00     0.25  -0.03  -0.02
     6   1     0.01   0.01  -0.00     0.02   0.02  -0.00    -0.19   0.20   0.05
     7   1     0.00   0.01  -0.01     0.02   0.02  -0.01     0.68   0.35   0.21
     8   1    -0.01  -0.00  -0.01    -0.04  -0.01  -0.01    -0.19   0.11   0.17
     9   7    -0.00   0.00  -0.00    -0.00   0.01  -0.00    -0.22  -0.01   0.00
    10   1    -0.02   0.00  -0.00    -0.02   0.01   0.00    -0.16  -0.09  -0.13
    11   1     0.02  -0.00  -0.00     0.05  -0.02  -0.01    -0.15  -0.16  -0.03
    12   1     0.05  -0.06  -0.28     0.03  -0.03  -0.13     0.00  -0.00   0.00
    13   1    -0.03   0.03   0.16    -0.13   0.11   0.62    -0.00  -0.00  -0.01
    14   1    -0.16   0.11   0.68    -0.11   0.11   0.54    -0.00  -0.01  -0.00
    15   1     0.11  -0.06  -0.56    -0.09   0.08   0.46    -0.00  -0.00  -0.00
                     19                     20                     21
                      A                      A                      A
 Frequencies --   1115.0118              1118.0103              1244.5560
 Red. masses --      1.7601                 1.8390                 1.7316
 Frc consts  --      1.2893                 1.3544                 1.5803
 IR Inten    --      0.0000                 0.0000                 0.0000
  Atom  AN      X      Y      Z        X      Y      Z        X      Y      Z
     1   6    -0.06   0.11  -0.03    -0.03   0.05  -0.01    -0.08   0.18  -0.05
     2   6     0.09  -0.17   0.05     0.04  -0.07   0.02     0.03  -0.05   0.01
     3   8    -0.01   0.03  -0.01    -0.01   0.01  -0.00    -0.01  -0.01   0.00
     4   6    -0.03  -0.03   0.00    -0.01  -0.01  -0.00     0.11  -0.07   0.04
     5   6    -0.04  -0.06  -0.04     0.09   0.14   0.09    -0.00  -0.00   0.00
     6   1    -0.20   0.04  -0.01     0.49  -0.09   0.03    -0.01  -0.00   0.00
     7   1     0.13   0.08   0.05    -0.31  -0.19  -0.12    -0.00  -0.00  -0.00
     8   1    -0.21  -0.00   0.05     0.47   0.00  -0.12    -0.01  -0.00  -0.00
     9   7     0.03   0.04   0.03    -0.09  -0.11  -0.07     0.00  -0.00  -0.00
    10   1     0.10   0.01  -0.03    -0.25  -0.00   0.10     0.01  -0.00  -0.00
    11   1     0.10  -0.03   0.01    -0.26   0.07  -0.03     0.00  -0.00  -0.00
    12   1    -0.14  -0.02  -0.04    -0.06  -0.01  -0.01    -0.33  -0.02  -0.07
    13   1     0.04   0.07  -0.03     0.01   0.03   0.03     0.35   0.27   0.08
    14   1     0.34   0.77  -0.05     0.14   0.33  -0.00    -0.52  -0.50  -0.03
    15   1     0.07  -0.22   0.03     0.03  -0.09   0.03    -0.10  -0.28   0.03
                     22                     23                     24
                      A                      A                      A
 Frequencies --   1271.0568              1335.1875              1378.2922
 Red. masses --      1.3823                 1.1696                 1.1514
 Frc consts  --      1.3158                 1.2285                 1.2887
 IR Inten    --      0.0000                 0.0000                 0.0000
  Atom  AN      X      Y      Z        X      Y      Z        X      Y      Z
     1   6     0.00  -0.00   0.00    -0.06  -0.03  -0.01    -0.01  -0.01  -0.00
     2   6    -0.00   0.00   0.00     0.02  -0.07   0.01    -0.00   0.01  -0.00
     3   8    -0.00  -0.00   0.00    -0.06   0.01  -0.01     0.01   0.00   0.00
     4   6     0.00   0.00   0.00     0.03   0.00   0.01    -0.00  -0.00   0.00
     5   6     0.00  -0.08   0.12     0.00   0.00  -0.00    -0.09  -0.06  -0.03
     6   1     0.24   0.24   0.07    -0.01  -0.01   0.00     0.45   0.47  -0.13
     7   1    -0.01   0.20  -0.30    -0.00  -0.00   0.00     0.22   0.19   0.13
     8   1    -0.25  -0.16  -0.20    -0.00   0.00  -0.00     0.46   0.07   0.46
     9   7    -0.00   0.06  -0.09    -0.00  -0.00   0.00    -0.01  -0.01  -0.00
    10   1     0.52   0.06   0.14    -0.00  -0.00  -0.00     0.04   0.00   0.02
    11   1    -0.52  -0.17   0.03     0.00  -0.00   0.00     0.03   0.02  -0.01
    12   1    -0.00   0.00  -0.00     0.32  -0.01   0.07     0.07  -0.01   0.02
    13   1     0.00  -0.01  -0.02     0.29   0.35  -0.01     0.05   0.07  -0.01
    14   1    -0.00  -0.01  -0.01    -0.07  -0.04  -0.02     0.00   0.01  -0.00
    15   1     0.00   0.01  -0.00     0.43   0.69  -0.01    -0.03  -0.05  -0.00
                     25                     26                     27
                      A                      A                      A
 Frequencies --   1390.9747              1414.5200              1435.6970
 Red. masses --      1.1721                 1.0668                 1.0288
 Frc consts  --      1.3362                 1.2577                 1.2494
 IR Inten    --      0.0000                 0.0000                 0.0000
  Atom  AN      X      Y      Z        X      Y      Z        X      Y      Z
     1   6    -0.06  -0.06  -0.00    -0.01  -0.01  -0.00    -0.00  -0.00  -0.00
     2   6    -0.02   0.05  -0.01    -0.00   0.01  -0.00    -0.00   0.00  -0.00
     3   8     0.04   0.01   0.01     0.00   0.00   0.00     0.00  -0.00   0.00
     4   6    -0.03  -0.01  -0.00    -0.00  -0.00  -0.00    -0.00  -0.00   0.00
     5   6     0.00   0.01   0.01     0.07  -0.01  -0.01    -0.00   0.02  -0.02
     6   1    -0.04  -0.11   0.02    -0.22   0.49   0.03     0.49  -0.19  -0.08
     7   1     0.01   0.02  -0.00    -0.43  -0.39  -0.24     0.02  -0.36   0.55
     8   1    -0.03  -0.03  -0.12    -0.22   0.21   0.46    -0.48   0.13   0.14
     9   7    -0.00   0.00   0.00     0.01  -0.01  -0.01    -0.00   0.02  -0.02
    10   1     0.01  -0.01  -0.01    -0.02  -0.00   0.00     0.10   0.02   0.02
    11   1    -0.00  -0.01   0.00    -0.03  -0.00  -0.00    -0.10  -0.03  -0.00
    12   1     0.53  -0.06   0.12     0.05  -0.00   0.01     0.01  -0.00   0.00
    13   1     0.35   0.51  -0.03     0.03   0.05   0.01     0.00   0.01  -0.00
    14   1     0.05   0.12  -0.01     0.00   0.01   0.00     0.00   0.00  -0.00
    15   1    -0.28  -0.42   0.00    -0.03  -0.04   0.00    -0.00  -0.00   0.00
                     28                     29                     30
                      A                      A                      A
 Frequencies --   1570.8580              1678.7237              1851.6051
 Red. masses --      1.0895                 5.3198                10.9405
 Frc consts  --      1.5841                 8.8329                22.0997
 IR Inten    --      0.0000                 0.0000                 0.0000
  Atom  AN      X      Y      Z        X      Y      Z        X      Y      Z
     1   6    -0.00  -0.00   0.00     0.37   0.26   0.05    -0.05  -0.04  -0.00
     2   6     0.00   0.00  -0.00     0.01  -0.01   0.00     0.60   0.43   0.06
     3   8     0.00  -0.00  -0.00    -0.04  -0.04  -0.00    -0.43  -0.27  -0.05
     4   6     0.00  -0.00   0.00    -0.37  -0.20  -0.05     0.00  -0.01   0.00
     5   6     0.02  -0.01  -0.01     0.00   0.00   0.00    -0.00  -0.00  -0.00
     6   1    -0.06  -0.01   0.00    -0.00   0.00   0.00     0.00  -0.00  -0.00
     7   1     0.04  -0.00  -0.00    -0.01  -0.01  -0.00     0.01   0.01   0.01
     8   1    -0.06  -0.00  -0.01    -0.01   0.00   0.00     0.00  -0.00   0.00
     9   7    -0.06  -0.04  -0.03    -0.00  -0.00  -0.00     0.00   0.00   0.00
    10   1     0.35   0.15   0.59     0.01  -0.00  -0.00    -0.01   0.00   0.00
    11   1     0.33   0.61  -0.10    -0.00   0.00  -0.00    -0.01   0.00   0.00
    12   1     0.00  -0.00  -0.00     0.25  -0.32   0.10    -0.01  -0.01  -0.00
    13   1     0.00   0.00  -0.00     0.05   0.51  -0.09    -0.02  -0.03   0.01
    14   1    -0.00  -0.00  -0.00     0.07  -0.36   0.07     0.10   0.15  -0.00
    15   1    -0.00   0.00  -0.00     0.10   0.14   0.00     0.12  -0.37   0.07
                     31                     32                     33
                      A                      A                      A
 Frequencies --   2880.2976              2988.0165              3085.9414
 Red. masses --      1.0832                 1.0505                 1.0670
 Frc consts  --      5.2946                 5.5260                 5.9868
 IR Inten    --      0.0000                 0.0000                 0.0000
  Atom  AN      X      Y      Z        X      Y      Z        X      Y      Z
     1   6    -0.00  -0.00   0.00    -0.00  -0.00  -0.00     0.00   0.01   0.00
     2   6    -0.07   0.04  -0.02     0.00  -0.00   0.00     0.00   0.00   0.00
     3   8    -0.00  -0.00  -0.00    -0.00  -0.00  -0.00    -0.00  -0.00  -0.00
     4   6    -0.00   0.00  -0.00     0.00  -0.00   0.00    -0.07  -0.00  -0.01
     5   6    -0.00   0.00   0.00    -0.06   0.02   0.02    -0.00   0.00   0.00
     6   1     0.00   0.00   0.00     0.04   0.02   0.29    -0.00   0.00  -0.02
     7   1     0.00  -0.00  -0.00     0.62  -0.54  -0.38     0.03  -0.03  -0.02
     8   1    -0.00   0.00  -0.00     0.03   0.27  -0.09    -0.00  -0.01   0.01
     9   7    -0.00  -0.00  -0.00    -0.00  -0.00  -0.00    -0.00   0.00   0.00
    10   1     0.00  -0.00  -0.00     0.00  -0.00  -0.01     0.00  -0.00   0.00
    11   1     0.00   0.00  -0.00     0.00  -0.01   0.00     0.00  -0.00  -0.00
    12   1     0.00  -0.00   0.00    -0.00  -0.01   0.00     0.06   0.45  -0.07
    13   1     0.01   0.00   0.00    -0.03   0.02  -0.01     0.70  -0.49   0.23
    14   1    -0.01   0.00  -0.00     0.00  -0.00   0.00     0.04  -0.02   0.01
    15   1     0.85  -0.46   0.23    -0.01   0.00  -0.00    -0.00  -0.00  -0.00
                     34                     35                     36
                      A                      A                      A
 Frequencies --   3091.3558              3138.1936              3182.7110
 Red. masses --      1.0865                 1.1040                 1.0942
 Frc consts  --      6.1176                 6.4060                 6.5306
 IR Inten    --      0.0000                 0.0000                 0.0000
  Atom  AN      X      Y      Z        X      Y      Z        X      Y      Z
     1   6     0.00   0.00  -0.00    -0.00   0.00   0.00    -0.07   0.04  -0.02
     2   6     0.00  -0.00   0.00    -0.00   0.00  -0.00    -0.00  -0.00   0.00
     3   8    -0.00  -0.00  -0.00    -0.00  -0.00  -0.00     0.00   0.00   0.00
     4   6    -0.00   0.00  -0.00    -0.00  -0.00   0.00     0.01  -0.02   0.01
     5   6     0.01  -0.07  -0.05    -0.00   0.05  -0.08     0.00  -0.00   0.00
     6   1     0.11   0.01   0.66     0.11   0.03   0.68    -0.00  -0.00  -0.00
     7   1    -0.26   0.22   0.16     0.01   0.01  -0.02    -0.00   0.00   0.00
     8   1     0.08   0.58  -0.24    -0.09  -0.67   0.25    -0.00  -0.00   0.00
     9   7     0.00   0.00   0.00     0.00  -0.00   0.00    -0.00  -0.00  -0.00
    10   1    -0.00  -0.01   0.01    -0.00   0.01  -0.00     0.00   0.00  -0.00
    11   1    -0.00   0.00  -0.01     0.00  -0.00  -0.01    -0.00   0.00   0.00
    12   1     0.00   0.02  -0.00     0.00   0.00  -0.00     0.02   0.15  -0.02
    13   1     0.03  -0.02   0.01     0.00  -0.00   0.00    -0.09   0.06  -0.03
    14   1     0.00  -0.00   0.00     0.00  -0.00   0.00     0.80  -0.49   0.27
    15   1    -0.00   0.00  -0.00     0.00  -0.00   0.00     0.01  -0.00   0.00
                     37                     38                     39
                      A                      A                      A
 Frequencies --   3234.8652              3525.5686              3607.2777
 Red. masses --      1.1146                 1.0508                 1.0926
 Frc consts  --      6.8717                 7.6956                 8.3765
 IR Inten    --      0.0000                 0.0000                 0.0000
  Atom  AN      X      Y      Z        X      Y      Z        X      Y      Z
     1   6     0.02  -0.01   0.01     0.00   0.00  -0.00    -0.00  -0.00  -0.00
     2   6    -0.00   0.00  -0.00     0.00  -0.00   0.00    -0.00   0.00  -0.00
     3   8    -0.00  -0.00   0.00    -0.00  -0.00  -0.00     0.00  -0.00   0.00
     4   6     0.02  -0.09   0.02    -0.00   0.00  -0.00     0.00  -0.00  -0.00
     5   6     0.00  -0.00   0.00     0.00  -0.00  -0.00    -0.00   0.00  -0.00
     6   1    -0.00  -0.00  -0.00    -0.00  -0.00   0.01     0.00  -0.00   0.01
     7   1    -0.00   0.00   0.00    -0.00   0.01   0.00     0.00  -0.00   0.00
     8   1    -0.00   0.00  -0.00    -0.00   0.01  -0.01    -0.00  -0.01   0.01
     9   7     0.00  -0.00  -0.00    -0.02  -0.05  -0.03    -0.00   0.04  -0.07
    10   1    -0.00   0.00  -0.00     0.11   0.64  -0.28    -0.10  -0.65   0.24
    11   1    -0.00   0.00   0.00     0.14  -0.01   0.69     0.14   0.03   0.69
    12   1     0.11   0.86  -0.13    -0.00  -0.00   0.00    -0.00   0.00  -0.00
    13   1    -0.35   0.23  -0.11     0.00  -0.00   0.00    -0.00   0.00  -0.00
    14   1    -0.16   0.09  -0.05    -0.00   0.00   0.00    -0.00   0.00  -0.00
    15   1     0.00   0.00   0.00    -0.00   0.00  -0.00     0.00  -0.00   0.00

 -------------------
 - Thermochemistry -
 -------------------
 Temperature   298.150 Kelvin.  Pressure   1.00000 Atm.
 Atom     1 has atomic number  6 and mass  12.00000
 Atom     2 has atomic number  6 and mass  12.00000
 Atom     3 has atomic number  8 and mass  15.99491
 Atom     4 has atomic number  6 and mass  12.00000
 Atom     5 has atomic number  6 and mass  12.00000
 Atom     6 has atomic number  1 and mass   1.00783
 Atom     7 has atomic number  1 and mass   1.00783
 Atom     8 has atomic number  1 and mass   1.00783
 Atom     9 has atomic number  7 and mass  14.00307
 Atom    10 has atomic number  1 and mass   1.00783
 Atom    11 has atomic number  1 and mass   1.00783
 Atom    12 has atomic number  1 and mass   1.00783
 Atom    13 has atomic number  1 and mass   1.00783
 Atom    14 has atomic number  1 and mass   1.00783
 Atom    15 has atomic number  1 and mass   1.00783
 Molecular mass:    87.06841 amu.
 Principal axes and moments of inertia in atomic units:
                           1         2         3
     Eigenvalues --   308.023451714.624471992.72022
           X            0.99982  -0.01892   0.00175
           Y            0.01893   0.99980  -0.00708
           Z           -0.00162   0.00711   0.99997
 This molecule is an asymmetric top.
 Rotational symmetry number  1.
 Rotational temperatures (Kelvin)      0.28119     0.05051     0.04347
 Rotational constants (GHZ):           5.85910     1.05256     0.90567
    5 imaginary frequencies ignored.
 Zero-point vibrational energy     321703.5 (Joules/Mol)
                                   76.88898 (Kcal/Mol)
 Warning -- explicit consideration of   6 degrees of freedom as
           vibrations may cause significant error
 Vibrational temperatures:     34.76   163.93   239.20   395.28   796.81
          (Kelvin)            815.59  1083.05  1278.99  1313.04  1365.82
                             1384.93  1433.68  1558.93  1604.25  1608.57
                             1790.64  1828.77  1921.04  1983.06  2001.30
                             2035.18  2065.65  2260.11  2415.31  2664.05
                             4144.11  4299.09  4439.98  4447.77  4515.16
                             4579.21  4654.25  5072.51  5190.07
 
 Zero-point correction=                           0.122530 (Hartree/Particle)
 Thermal correction to Energy=                    0.128868
 Thermal correction to Enthalpy=                  0.129812
 Thermal correction to Gibbs Free Energy=         0.090136
 Sum of electronic and zero-point Energies=           -287.343326
 Sum of electronic and thermal Energies=              -287.336989
 Sum of electronic and thermal Enthalpies=            -287.336045
 Sum of electronic and thermal Free Energies=         -287.375721
 
                     E (Thermal)             CV                S
                      KCal/Mol        Cal/Mol-Kelvin    Cal/Mol-Kelvin
 Total                   80.866             20.526             83.506
 Electronic               0.000              0.000              0.000
 Translational            0.889              2.981             39.305
 Rotational               0.889              2.981             28.444
 Vibrational             79.088             14.565             15.756
 Vibration     1          0.593              1.985              6.259
 Vibration     2          0.607              1.938              3.201
 Vibration     3          0.624              1.884              2.477
 Vibration     4          0.677              1.720              1.566
 Vibration     5          0.909              1.131              0.536
 Vibration     6          0.923              1.103              0.510
                       Q            Log10(Q)             Ln(Q)
 Total Bot       0.347163D-41        -41.459466        -95.463949
 Total V=0       0.795331D+15         14.900548         34.309779
 Vib (Bot)       0.296035D-54        -54.528656       -125.556871
 Vib (Bot)    1  0.857281D+01          0.933123          2.148595
 Vib (Bot)    2  0.179609D+01          0.254329          0.585613
 Vib (Bot)    3  0.121365D+01          0.084094          0.193634
 Vib (Bot)    4  0.701733D+00         -0.153828         -0.354202
 Vib (Bot)    5  0.282328D+00         -0.549246         -1.264685
 Vib (Bot)    6  0.272342D+00         -0.564885         -1.300696
 Vib (V=0)       0.678200D+02          1.831358          4.216857
 Vib (V=0)    1  0.908738D+01          0.958438          2.206886
 Vib (V=0)    2  0.236439D+01          0.373719          0.860520
 Vib (V=0)    3  0.181261D+01          0.258305          0.594769
 Vib (V=0)    4  0.136164D+01          0.134063          0.308692
 Vib (V=0)    5  0.107420D+01          0.031086          0.071579
 Vib (V=0)    6  0.106936D+01          0.029124          0.067060
 Electronic      0.100000D+01          0.000000          0.000000
 Translational   0.319334D+08          7.504245         17.279162
 Rotational      0.367236D+06          5.564945         12.813760
 ***** Axes restored to original set *****
 -------------------------------------------------------------------
 Center     Atomic                   Forces (Hartrees/Bohr)
 Number     Number              X              Y              Z
 -------------------------------------------------------------------
      1        6          -0.000600007   -0.000479096    0.000964791
      2        6           0.001126442   -0.000971683   -0.001053690
      3        8          -0.000641310    0.001348453   -0.000033513
      4        6          -0.002673980   -0.000960285   -0.003753076
      5        6          -0.000006016   -0.000076599    0.000177328
      6        1          -0.000046189    0.000069310   -0.000129782
      7        1           0.000109285    0.000154471   -0.000036683
      8        1          -0.000049670    0.000139264   -0.000077790
      9        7          -0.000036475   -0.001460360    0.000683045
     10        1          -0.000175928    0.000079750   -0.000076738
     11        1           0.000162866    0.000157982   -0.000090599
     12        1           0.000615064   -0.000287956    0.001931764
     13        1           0.002476892    0.002763930    0.000087445
     14        1          -0.000031961    0.000088525    0.000575126
     15        1          -0.000229012   -0.000565704    0.000832374
 -------------------------------------------------------------------
 Cartesian Forces:  Max     0.003753076 RMS     0.001069182


 IF YOU PERCEIVE THAT THERE ARE FOUR POSSIBLE WAYS IN
 WHICH A PROCEDURE CAN GO WRONG AND CIRCUMVENT THESE, 
 THEN A FIFTH WAY WILL DEVELOP.

                              -- MURPHY'S TWELFTH LAW
 Error termination request processed by link 9999.
 Error termination via Lnk1e in /apps/gaussian/g16/C.01/g16/l9999.exe at Thu Jan 18 13:35:42 2024.
 Job cpu time:       0 days  6 hours 43 minutes 40.9 seconds.
 Elapsed time:       0 days  1 hours  5 minutes 21.0 seconds.
 File lengths (MBytes):  RWF=      6 Int=      0 D2E=      0 Chk=      1 Scr=      1
