Unloading slurm/anatra/current
  ERROR: No such file or directory on
    '/cm/local/modulefiles/slurm/anatra/current'
environment: line 0: unalias: gv: not found
environment: line 0: unalias: sl: not found
 Entering Gaussian System, Link 0=g16
 Initial command:
 /apps/gaussian/g16/C.01/g16/l1.exe "/local/jobs/1158159/Gau-2795319.inp" -scrdir="/local/jobs/1158159/"
 Entering Link 1 = /apps/gaussian/g16/C.01/g16/l1.exe PID=   2795322.
  
 Copyright (c) 1988-2019, Gaussian, Inc.  All Rights Reserved.
  
 This is part of the Gaussian(R) 16 program.  It is based on
 the Gaussian(R) 09 system (copyright 2009, Gaussian, Inc.),
 the Gaussian(R) 03 system (copyright 2003, Gaussian, Inc.),
 the Gaussian(R) 98 system (copyright 1998, Gaussian, Inc.),
 the Gaussian(R) 94 system (copyright 1995, Gaussian, Inc.),
 the Gaussian 92(TM) system (copyright 1992, Gaussian, Inc.),
 the Gaussian 90(TM) system (copyright 1990, Gaussian, Inc.),
 the Gaussian 88(TM) system (copyright 1988, Gaussian, Inc.),
 the Gaussian 86(TM) system (copyright 1986, Carnegie Mellon
 University), and the Gaussian 82(TM) system (copyright 1983,
 Carnegie Mellon University). Gaussian is a federally registered
 trademark of Gaussian, Inc.
  
 This software contains proprietary and confidential information,
 including trade secrets, belonging to Gaussian, Inc.
  
 This software is provided under written license and may be
 used, copied, transmitted, or stored only in accord with that
 written license.
  
 The following legend is applicable only to US Government
 contracts under FAR:
  
                    RESTRICTED RIGHTS LEGEND
  
 Use, reproduction and disclosure by the US Government is
 subject to restrictions as set forth in subparagraphs (a)
 and (c) of the Commercial Computer Software - Restricted
 Rights clause in FAR 52.227-19.
  
 Gaussian, Inc.
 340 Quinnipiac St., Bldg. 40, Wallingford CT 06492
  
  
 ---------------------------------------------------------------
 Warning -- This program may not be used in any manner that
 competes with the business of Gaussian, Inc. or will provide
 assistance to any competitor of Gaussian, Inc.  The licensee
 of this program is prohibited from giving any competitor of
 Gaussian, Inc. access to this program.  By using this program,
 the user acknowledges that Gaussian, Inc. is engaged in the
 business of creating and licensing software in the field of
 computational chemistry and represents and warrants to the
 licensee that it is not a competitor of Gaussian, Inc. and that
 it will not use this program in any manner prohibited above.
 ---------------------------------------------------------------
  

 Cite this work as:
 Gaussian 16, Revision C.01,
 M. J. Frisch, G. W. Trucks, H. B. Schlegel, G. E. Scuseria, 
 M. A. Robb, J. R. Cheeseman, G. Scalmani, V. Barone, 
 G. A. Petersson, H. Nakatsuji, X. Li, M. Caricato, A. V. Marenich, 
 J. Bloino, B. G. Janesko, R. Gomperts, B. Mennucci, H. P. Hratchian, 
 J. V. Ortiz, A. F. Izmaylov, J. L. Sonnenberg, D. Williams-Young, 
 F. Ding, F. Lipparini, F. Egidi, J. Goings, B. Peng, A. Petrone, 
 T. Henderson, D. Ranasinghe, V. G. Zakrzewski, J. Gao, N. Rega, 
 G. Zheng, W. Liang, M. Hada, M. Ehara, K. Toyota, R. Fukuda, 
 J. Hasegawa, M. Ishida, T. Nakajima, Y. Honda, O. Kitao, H. Nakai, 
 T. Vreven, K. Throssell, J. A. Montgomery, Jr., J. E. Peralta, 
 F. Ogliaro, M. J. Bearpark, J. J. Heyd, E. N. Brothers, K. N. Kudin, 
 V. N. Staroverov, T. A. Keith, R. Kobayashi, J. Normand, 
 K. Raghavachari, A. P. Rendell, J. C. Burant, S. S. Iyengar, 
 J. Tomasi, M. Cossi, J. M. Millam, M. Klene, C. Adamo, R. Cammi, 
 J. W. Ochterski, R. L. Martin, K. Morokuma, O. Farkas, 
 J. B. Foresman, and D. J. Fox, Gaussian, Inc., Wallingford CT, 2019.
 
 ******************************************
 Gaussian 16:  ES64L-G16RevC.01  3-Jul-2019
                18-Jan-2024 
 ******************************************
 %nprocshared=12
 Will use up to   12 processors via shared memory.
 %mem=48GB
 ----------------------------------------------------------------------
 # external="~/scripts/MiMe -H 'pbepbe def2svp' -EF 'wb97xd def2svp' -c
  12 -m 48GB" opt=(calcall,ts,noeigen,maxcycles=50,maxstep=10,nomicro)
 ----------------------------------------------------------------------
 1/5=1,6=50,8=10,10=4,11=1,18=20,26=1,38=1/1,3;
 2/9=110,12=2,17=6,18=5,40=1/2;
 3/11=9,25=1,30=1,41=9900000,43=2,71=2,140=1/1;
 4/20=17,22=2,24=3,113=1,114=1/2;
 6/7=2,8=2,9=2,10=2,18=1/1;
 7/25=1,44=-1/16;
 1/5=1,6=50,8=10,10=4,11=1,18=20,26=1/3(3);
 2/9=110/2;
 7/8=1,9=1,25=1,44=-1/16;
 99//99;
 2/9=110/2;
 3/11=9,25=1,30=1,41=9900000,43=2,71=2,140=1/1;
 4/16=2,20=17,22=2,24=3,113=1,114=1/2;
 7/25=1,44=-1/16;
 1/5=1,6=50,8=10,10=4,11=1,18=20,26=1/3(-4);
 2/9=110/2;
 6/7=2,8=2,9=2,10=2,18=1/1;
 7/8=1,9=1,25=1,44=-1/16;
 99//99;
 ----------
 TS-325.out
 ----------
 Symbolic Z-matrix:
 Charge =  0 Multiplicity = 1
 C                     0.06177   0.16222  -0.05987 
 C                    -0.40074   1.45584   0.53163 
 O                    -1.15429   1.50254   1.49781 
 C                    -0.85367  -0.80502  -0.34582 
 C                    -0.17766  -2.94069   1.77398 
 H                    -0.63118  -3.30064   2.7018 
 H                    -0.07938  -3.77989   1.08005 
 H                     0.82018  -2.55382   1.99723 
 N                    -1.00546  -1.89012   1.17544 
 H                    -1.95493  -2.2718    1.0865 
 H                    -1.12869  -1.1636    1.89783 
 H                    -0.54188  -1.70552  -0.88485 
 Br                   -2.6779   -0.38746  -0.7648 
 C                     1.50834  -0.10668  -0.22143 
 C                     2.39043   0.13335   0.84219 
 C                     3.76031  -0.0945    0.69505 
 C                     4.26366  -0.56034  -0.51778 
 C                     3.39924  -0.79839  -1.58439 
 C                     2.02876  -0.57131  -1.43866 
 H                     2.01427   0.49002   1.7996 
 H                     4.43291   0.08937   1.52903 
 H                     5.33005  -0.7391   -0.63114 
 H                     3.79175  -1.16099  -2.5311 
 H                     1.37285  -0.75516  -2.28698 
 N                     0.13935   2.56268  -0.08207 
 C                    -0.10745   3.88962   0.41632 
 H                     0.84287   2.43119  -0.79729 
 H                    -1.14152   3.98435   0.75836 
 H                     0.57131   4.07921   1.25198 
 H                     0.08687   4.60465  -0.38633 
 
 Add virtual bond connecting atoms N9         and C4         Dist= 3.54D+00.

 GradGradGradGradGradGradGradGradGradGradGradGradGradGradGradGradGradGrad
 Berny optimization.
 Initialization pass.
                           ----------------------------
                           !    Initial Parameters    !
                           ! (Angstroms and Degrees)  !
 --------------------------                            --------------------------
 ! Name  Definition              Value          Derivative Info.                !
 --------------------------------------------------------------------------------
 ! R1    R(1,2)                  1.4957         calculate D2E/DX2 analytically  !
 ! R2    R(1,4)                  1.3621         calculate D2E/DX2 analytically  !
 ! R3    R(1,14)                 1.4802         calculate D2E/DX2 analytically  !
 ! R4    R(2,3)                  1.2262         calculate D2E/DX2 analytically  !
 ! R5    R(2,25)                 1.376          calculate D2E/DX2 analytically  !
 ! R6    R(4,9)                  1.8748         calculate D2E/DX2 analytically  !
 ! R7    R(4,12)                 1.0948         calculate D2E/DX2 analytically  !
 ! R8    R(4,13)                 1.9177         calculate D2E/DX2 analytically  !
 ! R9    R(5,6)                  1.0937         calculate D2E/DX2 analytically  !
 ! R10   R(5,7)                  1.0934         calculate D2E/DX2 analytically  !
 ! R11   R(5,8)                  1.0932         calculate D2E/DX2 analytically  !
 ! R12   R(5,9)                  1.4653         calculate D2E/DX2 analytically  !
 ! R13   R(9,10)                 1.0272         calculate D2E/DX2 analytically  !
 ! R14   R(9,11)                 1.0319         calculate D2E/DX2 analytically  !
 ! R15   R(14,15)                1.4025         calculate D2E/DX2 analytically  !
 ! R16   R(14,19)                1.403          calculate D2E/DX2 analytically  !
 ! R17   R(15,16)                1.3965         calculate D2E/DX2 analytically  !
 ! R18   R(15,20)                1.0887         calculate D2E/DX2 analytically  !
 ! R19   R(16,17)                1.3933         calculate D2E/DX2 analytically  !
 ! R20   R(16,21)                1.0871         calculate D2E/DX2 analytically  !
 ! R21   R(17,18)                1.3934         calculate D2E/DX2 analytically  !
 ! R22   R(17,22)                1.0872         calculate D2E/DX2 analytically  !
 ! R23   R(18,19)                1.3968         calculate D2E/DX2 analytically  !
 ! R24   R(18,23)                1.0871         calculate D2E/DX2 analytically  !
 ! R25   R(19,24)                1.088          calculate D2E/DX2 analytically  !
 ! R26   R(25,26)                1.4388         calculate D2E/DX2 analytically  !
 ! R27   R(25,27)                1.0118         calculate D2E/DX2 analytically  !
 ! R28   R(26,28)                1.0933         calculate D2E/DX2 analytically  !
 ! R29   R(26,29)                1.0932         calculate D2E/DX2 analytically  !
 ! R30   R(26,30)                1.0924         calculate D2E/DX2 analytically  !
 ! A1    A(2,1,4)              119.2977         calculate D2E/DX2 analytically  !
 ! A2    A(2,1,14)             120.1638         calculate D2E/DX2 analytically  !
 ! A3    A(4,1,14)             120.3242         calculate D2E/DX2 analytically  !
 ! A4    A(1,2,3)              122.3149         calculate D2E/DX2 analytically  !
 ! A5    A(1,2,25)             113.4496         calculate D2E/DX2 analytically  !
 ! A6    A(3,2,25)             124.1945         calculate D2E/DX2 analytically  !
 ! A7    A(1,4,9)              107.1618         calculate D2E/DX2 analytically  !
 ! A8    A(1,4,12)             119.737          calculate D2E/DX2 analytically  !
 ! A9    A(1,4,13)             122.0429         calculate D2E/DX2 analytically  !
 ! A10   A(9,4,12)              86.9335         calculate D2E/DX2 analytically  !
 ! A11   A(9,4,13)             103.0786         calculate D2E/DX2 analytically  !
 ! A12   A(12,4,13)            110.0243         calculate D2E/DX2 analytically  !
 ! A13   A(6,5,7)              108.85           calculate D2E/DX2 analytically  !
 ! A14   A(6,5,8)              108.7668         calculate D2E/DX2 analytically  !
 ! A15   A(6,5,9)              110.3791         calculate D2E/DX2 analytically  !
 ! A16   A(7,5,8)              108.6128         calculate D2E/DX2 analytically  !
 ! A17   A(7,5,9)              109.9879         calculate D2E/DX2 analytically  !
 ! A18   A(8,5,9)              110.2017         calculate D2E/DX2 analytically  !
 ! A19   A(4,9,5)              134.4812         calculate D2E/DX2 analytically  !
 ! A20   A(4,9,10)             102.6885         calculate D2E/DX2 analytically  !
 ! A21   A(4,9,11)              99.8004         calculate D2E/DX2 analytically  !
 ! A22   A(5,9,10)             106.9268         calculate D2E/DX2 analytically  !
 ! A23   A(5,9,11)             106.6355         calculate D2E/DX2 analytically  !
 ! A24   A(10,9,11)            102.2303         calculate D2E/DX2 analytically  !
 ! A25   A(1,14,15)            120.0524         calculate D2E/DX2 analytically  !
 ! A26   A(1,14,19)            121.1561         calculate D2E/DX2 analytically  !
 ! A27   A(15,14,19)           118.7735         calculate D2E/DX2 analytically  !
 ! A28   A(14,15,16)           120.6063         calculate D2E/DX2 analytically  !
 ! A29   A(14,15,20)           120.3757         calculate D2E/DX2 analytically  !
 ! A30   A(16,15,20)           119.0145         calculate D2E/DX2 analytically  !
 ! A31   A(15,16,17)           120.043          calculate D2E/DX2 analytically  !
 ! A32   A(15,16,21)           119.9017         calculate D2E/DX2 analytically  !
 ! A33   A(17,16,21)           120.0551         calculate D2E/DX2 analytically  !
 ! A34   A(16,17,18)           119.9552         calculate D2E/DX2 analytically  !
 ! A35   A(16,17,22)           120.0055         calculate D2E/DX2 analytically  !
 ! A36   A(18,17,22)           120.0393         calculate D2E/DX2 analytically  !
 ! A37   A(17,18,19)           120.0693         calculate D2E/DX2 analytically  !
 ! A38   A(17,18,23)           119.9742         calculate D2E/DX2 analytically  !
 ! A39   A(19,18,23)           119.9565         calculate D2E/DX2 analytically  !
 ! A40   A(14,19,18)           120.5513         calculate D2E/DX2 analytically  !
 ! A41   A(14,19,24)           120.5858         calculate D2E/DX2 analytically  !
 ! A42   A(18,19,24)           118.8619         calculate D2E/DX2 analytically  !
 ! A43   A(2,25,26)            121.3346         calculate D2E/DX2 analytically  !
 ! A44   A(2,25,27)            118.9233         calculate D2E/DX2 analytically  !
 ! A45   A(26,25,27)           118.9457         calculate D2E/DX2 analytically  !
 ! A46   A(25,26,28)           110.5197         calculate D2E/DX2 analytically  !
 ! A47   A(25,26,29)           108.557          calculate D2E/DX2 analytically  !
 ! A48   A(25,26,30)           108.5812         calculate D2E/DX2 analytically  !
 ! A49   A(28,26,29)           109.457          calculate D2E/DX2 analytically  !
 ! A50   A(28,26,30)           109.9632         calculate D2E/DX2 analytically  !
 ! A51   A(29,26,30)           109.7381         calculate D2E/DX2 analytically  !
 ! D1    D(4,1,2,3)             49.1418         calculate D2E/DX2 analytically  !
 ! D2    D(4,1,2,25)          -133.0961         calculate D2E/DX2 analytically  !
 ! D3    D(14,1,2,3)          -125.5571         calculate D2E/DX2 analytically  !
 ! D4    D(14,1,2,25)           52.2051         calculate D2E/DX2 analytically  !
 ! D5    D(2,1,4,9)            -90.7057         calculate D2E/DX2 analytically  !
 ! D6    D(2,1,4,12)           172.8674         calculate D2E/DX2 analytically  !
 ! D7    D(2,1,4,13)            27.5036         calculate D2E/DX2 analytically  !
 ! D8    D(14,1,4,9)            83.9844         calculate D2E/DX2 analytically  !
 ! D9    D(14,1,4,12)          -12.4424         calculate D2E/DX2 analytically  !
 ! D10   D(14,1,4,13)         -157.8063         calculate D2E/DX2 analytically  !
 ! D11   D(2,1,14,15)           47.5529         calculate D2E/DX2 analytically  !
 ! D12   D(2,1,14,19)         -130.8817         calculate D2E/DX2 analytically  !
 ! D13   D(4,1,14,15)         -127.091          calculate D2E/DX2 analytically  !
 ! D14   D(4,1,14,19)           54.4743         calculate D2E/DX2 analytically  !
 ! D15   D(1,2,25,26)         -175.0909         calculate D2E/DX2 analytically  !
 ! D16   D(1,2,25,27)           -5.4202         calculate D2E/DX2 analytically  !
 ! D17   D(3,2,25,26)            2.6225         calculate D2E/DX2 analytically  !
 ! D18   D(3,2,25,27)          172.2932         calculate D2E/DX2 analytically  !
 ! D19   D(1,4,9,5)            -76.1611         calculate D2E/DX2 analytically  !
 ! D20   D(1,4,9,10)           154.0923         calculate D2E/DX2 analytically  !
 ! D21   D(1,4,9,11)            49.0666         calculate D2E/DX2 analytically  !
 ! D22   D(12,4,9,5)            44.0598         calculate D2E/DX2 analytically  !
 ! D23   D(12,4,9,10)          -85.6868         calculate D2E/DX2 analytically  !
 ! D24   D(12,4,9,11)          169.2875         calculate D2E/DX2 analytically  !
 ! D25   D(13,4,9,5)           153.9121         calculate D2E/DX2 analytically  !
 ! D26   D(13,4,9,10)           24.1655         calculate D2E/DX2 analytically  !
 ! D27   D(13,4,9,11)          -80.8602         calculate D2E/DX2 analytically  !
 ! D28   D(6,5,9,4)            178.1429         calculate D2E/DX2 analytically  !
 ! D29   D(6,5,9,10)           -53.4919         calculate D2E/DX2 analytically  !
 ! D30   D(6,5,9,11)            55.2944         calculate D2E/DX2 analytically  !
 ! D31   D(7,5,9,4)            -61.7329         calculate D2E/DX2 analytically  !
 ! D32   D(7,5,9,10)            66.6323         calculate D2E/DX2 analytically  !
 ! D33   D(7,5,9,11)           175.4186         calculate D2E/DX2 analytically  !
 ! D34   D(8,5,9,4)             57.985          calculate D2E/DX2 analytically  !
 ! D35   D(8,5,9,10)          -173.6498         calculate D2E/DX2 analytically  !
 ! D36   D(8,5,9,11)           -64.8635         calculate D2E/DX2 analytically  !
 ! D37   D(1,14,15,16)        -178.8957         calculate D2E/DX2 analytically  !
 ! D38   D(1,14,15,20)           1.7968         calculate D2E/DX2 analytically  !
 ! D39   D(19,14,15,16)         -0.424          calculate D2E/DX2 analytically  !
 ! D40   D(19,14,15,20)       -179.7315         calculate D2E/DX2 analytically  !
 ! D41   D(1,14,19,18)         178.8607         calculate D2E/DX2 analytically  !
 ! D42   D(1,14,19,24)          -0.7663         calculate D2E/DX2 analytically  !
 ! D43   D(15,14,19,18)          0.4065         calculate D2E/DX2 analytically  !
 ! D44   D(15,14,19,24)       -179.2205         calculate D2E/DX2 analytically  !
 ! D45   D(14,15,16,17)          0.2129         calculate D2E/DX2 analytically  !
 ! D46   D(14,15,16,21)       -179.6096         calculate D2E/DX2 analytically  !
 ! D47   D(20,15,16,17)        179.5297         calculate D2E/DX2 analytically  !
 ! D48   D(20,15,16,21)         -0.2928         calculate D2E/DX2 analytically  !
 ! D49   D(15,16,17,18)          0.0232         calculate D2E/DX2 analytically  !
 ! D50   D(15,16,17,22)       -179.898          calculate D2E/DX2 analytically  !
 ! D51   D(21,16,17,18)        179.8455         calculate D2E/DX2 analytically  !
 ! D52   D(21,16,17,22)         -0.0757         calculate D2E/DX2 analytically  !
 ! D53   D(16,17,18,19)         -0.0404         calculate D2E/DX2 analytically  !
 ! D54   D(16,17,18,23)        179.9442         calculate D2E/DX2 analytically  !
 ! D55   D(22,17,18,19)        179.8808         calculate D2E/DX2 analytically  !
 ! D56   D(22,17,18,23)         -0.1346         calculate D2E/DX2 analytically  !
 ! D57   D(17,18,19,14)         -0.1782         calculate D2E/DX2 analytically  !
 ! D58   D(17,18,19,24)        179.4552         calculate D2E/DX2 analytically  !
 ! D59   D(23,18,19,14)        179.8372         calculate D2E/DX2 analytically  !
 ! D60   D(23,18,19,24)         -0.5294         calculate D2E/DX2 analytically  !
 ! D61   D(2,25,26,28)         -38.8072         calculate D2E/DX2 analytically  !
 ! D62   D(2,25,26,29)          81.2469         calculate D2E/DX2 analytically  !
 ! D63   D(2,25,26,30)        -159.4988         calculate D2E/DX2 analytically  !
 ! D64   D(27,25,26,28)        151.5243         calculate D2E/DX2 analytically  !
 ! D65   D(27,25,26,29)        -88.4216         calculate D2E/DX2 analytically  !
 ! D66   D(27,25,26,30)         30.8328         calculate D2E/DX2 analytically  !
 --------------------------------------------------------------------------------
 Trust Radius=1.00D-01 FncErr=1.00D-07 GrdErr=1.00D-07 EigMax=2.50D+02 EigMin=1.00D-04
 Number of steps in this run=     50 maximum allowed number of steps=    180.
 Search for a saddle point of order  1.
 GradGradGradGradGradGradGradGradGradGradGradGradGradGradGradGradGradGrad

                          Input orientation:                          
 ---------------------------------------------------------------------
 Center     Atomic      Atomic             Coordinates (Angstroms)
 Number     Number       Type             X           Y           Z
 ---------------------------------------------------------------------
      1          6           0        0.061770    0.162220   -0.059870
      2          6           0       -0.400740    1.455840    0.531630
      3          8           0       -1.154290    1.502540    1.497810
      4          6           0       -0.853670   -0.805020   -0.345820
      5          6           0       -0.177660   -2.940690    1.773980
      6          1           0       -0.631180   -3.300640    2.701800
      7          1           0       -0.079380   -3.779890    1.080050
      8          1           0        0.820180   -2.553820    1.997230
      9          7           0       -1.005460   -1.890120    1.175440
     10          1           0       -1.954930   -2.271800    1.086500
     11          1           0       -1.128690   -1.163600    1.897830
     12          1           0       -0.541880   -1.705520   -0.884850
     13         35           0       -2.677900   -0.387460   -0.764800
     14          6           0        1.508340   -0.106680   -0.221430
     15          6           0        2.390430    0.133350    0.842190
     16          6           0        3.760310   -0.094500    0.695050
     17          6           0        4.263660   -0.560340   -0.517780
     18          6           0        3.399240   -0.798390   -1.584390
     19          6           0        2.028760   -0.571310   -1.438660
     20          1           0        2.014270    0.490020    1.799600
     21          1           0        4.432910    0.089370    1.529030
     22          1           0        5.330050   -0.739100   -0.631140
     23          1           0        3.791750   -1.160990   -2.531100
     24          1           0        1.372850   -0.755160   -2.286980
     25          7           0        0.139350    2.562680   -0.082070
     26          6           0       -0.107450    3.889620    0.416320
     27          1           0        0.842870    2.431190   -0.797290
     28          1           0       -1.141520    3.984350    0.758360
     29          1           0        0.571310    4.079210    1.251980
     30          1           0        0.086870    4.604650   -0.386330
 ---------------------------------------------------------------------
                    Distance matrix (angstroms):
                    1          2          3          4          5
     1  C    0.000000
     2  C    1.495741   0.000000
     3  O    2.387808   1.226182   0.000000
     4  C    1.362113   2.467094   2.968868   0.000000
     5  C    3.612255   4.574131   4.557671   3.084093   0.000000
     6  H    4.483124   5.233244   4.979335   3.945327   1.093661
     7  H    4.106041   5.274173   5.406850   3.388581   1.093368
     8  H    3.490519   4.440271   4.538944   3.368970   1.093249
     9  N    2.622417   3.460582   3.411190   1.874757   1.465333
    10  H    3.362394   4.076602   3.880186   2.327178   2.019587
    11  H    2.647184   3.042676   2.696103   2.288707   2.019368
    12  H    2.129187   3.467064   4.042742   1.094836   2.954264
    13  Br   2.881816   3.203739   3.318568   1.917737   4.383559
    14  C    1.480194   2.579371   3.554571   2.466220   3.854331
    15  C    2.497439   3.104200   3.856107   3.579957   4.112547
    16  C    3.783518   4.443489   5.229556   4.782997   4.977198
    17  C    4.288083   5.188725   6.137773   5.126061   5.535662
    18  C    3.792840   4.898871   5.960610   4.429599   5.353719
    19  C    2.511609   3.727446   4.801616   3.091492   4.561064
    20  H    2.716126   2.893584   3.340067   3.808548   4.071239
    21  H    4.651535   5.121154   5.763231   5.680046   5.522556
    22  H    5.375268   6.245939   7.183595   6.190650   6.400505
    23  H    4.665899   5.814214   6.913018   5.146075   6.120234
    24  H    2.742360   3.997337   5.080185   2.954315   4.865390
    25  N    2.401816   1.376016   2.300744   3.520945   5.816571
    26  C    3.761503   2.454099   2.821993   4.814286   6.964288
    27  H    2.510404   2.064922   3.180963   3.681729   6.042351
    28  H    4.089754   2.644527   2.589658   4.923427   7.065174
    29  H    4.162138   2.888919   3.110845   5.332845   7.079014
    30  H    4.454480   3.315934   3.835824   5.490973   7.852966
                    6          7          8          9         10
     6  H    0.000000
     7  H    1.778830   0.000000
     8  H    1.777809   1.775859   0.000000
     9  N    2.111736   2.106645   2.109217   0.000000
    10  H    2.328094   2.406671   2.934314   1.027172   0.000000
    11  H    2.336841   2.935096   2.395973   1.031923   1.602821
    12  H    3.926378   2.894434   3.298667   2.119853   2.490704
    13  Br   4.969205   4.654499   4.955652   2.969777   2.738747
    14  C    4.829513   4.207990   3.374094   3.383947   4.288667
    15  C    4.937668   4.633572   3.319742   3.967059   4.972584
    16  C    5.795823   5.336061   4.048246   5.115427   6.128445
    17  C    6.467952   5.637425   4.707100   5.692006   6.646328
    18  C    6.393510   5.299941   4.749851   5.311301   6.162120
    19  C    5.627427   4.591638   4.146848   4.216547   5.013770
    20  H    4.709721   4.809704   3.275648   3.895306   4.887812
    21  H    6.205849   5.961000   4.500831   5.798213   6.824621
    22  H    7.294261   6.437120   5.526343   6.687845   7.640052
    23  H    7.177998   5.906326   5.592493   6.106005   6.880789
    24  H    5.948406   4.753405   4.679218   4.351189   4.975408
    25  N    6.536220   6.451865   5.564673   4.766482   5.396644
    26  C    7.562906   7.698228   6.699081   5.898142   6.467258
    27  H    6.875342   6.553813   5.714909   5.097225   5.787440
    28  H    7.557016   7.843153   6.937632   5.890829   6.317335
    29  H    7.616439   7.887865   6.679403   6.174541   6.837002
    30  H    8.517379   8.513426   7.580422   6.768630   7.322823
                   11         12         13         14         15
    11  H    0.000000
    12  H    2.895053   0.000000
    13  Br   3.176798   2.512822   0.000000
    14  C    3.544329   2.683248   4.230685   0.000000
    15  C    3.896237   3.868146   5.342437   1.402492   0.000000
    16  C    5.147036   4.858015   6.608142   2.431348   1.396473
    17  C    5.939405   4.953725   6.948105   2.808099   2.416550
    18  C    5.723756   4.104226   6.145911   2.431383   2.788212
    19  C    4.631680   2.863796   4.758207   1.402985   2.414462
    20  H    3.552788   4.308198   5.418725   2.167159   1.088735
    21  H    5.712910   5.813517   7.486831   3.414038   2.155321
    22  H    6.949188   5.956333   8.016781   3.895290   3.401946
    23  H    6.620133   4.667655   6.750891   3.414690   3.875319
    24  H    4.892562   2.556432   4.342903   2.169189   3.408317
    25  N    4.406029   4.396142   4.135982   3.003171   3.438497
    26  C    5.364032   5.760848   5.127930   4.357513   4.531041
    27  H    4.906448   4.363206   4.510173   2.686122   3.219147
    28  H    5.272565   5.952674   4.877828   4.971747   5.226079
    29  H    5.549250   6.266445   5.880128   4.535486   4.364280
    30  H    6.322000   6.360982   5.719122   4.923860   5.177661
                   16         17         18         19         20
    16  C    0.000000
    17  C    1.393314   0.000000
    18  C    2.412816   1.393394   0.000000
    19  C    2.788966   2.417213   1.396788   0.000000
    20  H    2.147173   3.396066   3.876794   3.407779   0.000000
    21  H    1.087070   2.154112   3.398526   3.876031   2.466485
    22  H    2.153688   1.087195   2.154119   3.402757   4.291111
    23  H    3.398004   2.153355   1.087107   2.156219   4.963893
    24  H    3.876718   3.394820   2.145171   1.087964   4.319957
    25  N    4.558056   5.191631   4.917381   3.902832   3.369262
    26  C    5.559719   6.307241   6.186853   5.282446   4.239391
    27  H    4.137348   4.552931   4.193416   3.291306   3.447341
    28  H    6.377222   7.176260   6.998684   5.969222   4.822192
    29  H    5.282021   6.187966   6.311352   5.566960   3.906956
    30  H    6.061811   6.643792   6.449805   5.627513   5.042156
                   21         22         23         24         25
    21  H    0.000000
    22  H    2.481443   0.000000
    23  H    4.296410   2.480767   0.000000
    24  H    4.963782   4.289696   2.464827   0.000000
    25  N    5.210332   6.176293   5.762247   4.170277   0.000000
    26  C    6.024524   7.217245   7.028492   5.574325   1.438775
    27  H    4.876912   5.496647   4.960418   3.557089   1.011815
    28  H    6.843908   8.131599   7.850619   6.169206   2.089999
    29  H    5.559455   7.029072   7.220985   6.044654   2.065464
    30  H    6.553199   7.490429   7.181140   5.830418   2.065180
                   26         27         28         29         30
    26  C    0.000000
    27  H    2.122022   0.000000
    28  H    1.093282   2.961445   0.000000
    29  H    1.093155   2.643714   1.785062   0.000000
    30  H    1.092371   2.337595   1.789980   1.787408   0.000000
 Stoichiometry    C11H15BrN2O
 Framework group  C1[X(C11H15BrN2O)]
 Deg. of freedom    84
 Full point group                 C1      NOp   1
 Largest Abelian subgroup         C1      NOp   1
 Largest concise Abelian subgroup C1      NOp   1
                         Standard orientation:                         
 ---------------------------------------------------------------------
 Center     Atomic      Atomic             Coordinates (Angstroms)
 Number     Number       Type             X           Y           Z
 ---------------------------------------------------------------------
      1          6           0        0.061771    0.162220   -0.059871
      2          6           0       -0.400741    1.455839    0.531629
      3          8           0       -1.154291    1.502538    1.497809
      4          6           0       -0.853668   -0.805021   -0.345821
      5          6           0       -0.177655   -2.940690    1.773979
      6          1           0       -0.631175   -3.300641    2.701799
      7          1           0       -0.079374   -3.779890    1.080049
      8          1           0        0.820184   -2.553819    1.997229
      9          7           0       -1.005456   -1.890121    1.175439
     10          1           0       -1.954926   -2.271803    1.086499
     11          1           0       -1.128687   -1.163601    1.897829
     12          1           0       -0.541877   -1.705521   -0.884851
     13         35           0       -2.677898   -0.387463   -0.764801
     14          6           0        1.508341   -0.106678   -0.221431
     15          6           0        2.390431    0.133353    0.842189
     16          6           0        3.760311   -0.094495    0.695049
     17          6           0        4.263662   -0.560335   -0.517781
     18          6           0        3.399242   -0.798386   -1.584391
     19          6           0        2.028762   -0.571308   -1.438661
     20          1           0        2.014271    0.490022    1.799599
     21          1           0        4.432911    0.089375    1.529029
     22          1           0        5.330052   -0.739093   -0.631141
     23          1           0        3.791753   -1.160985   -2.531101
     24          1           0        1.372852   -0.755158   -2.286981
     25          7           0        0.139348    2.562680   -0.082071
     26          6           0       -0.107454    3.889620    0.416319
     27          1           0        0.842868    2.431191   -0.797291
     28          1           0       -1.141524    3.984349    0.758359
     29          1           0        0.571306    4.079211    1.251979
     30          1           0        0.086865    4.604650   -0.386331
 ---------------------------------------------------------------------
 Rotational constants (GHZ):           0.5707058           0.3130453           0.2543192
 Standard basis: STO-3G (5D, 7F)
 There are   104 symmetry adapted cartesian basis functions of A   symmetry.
 There are   103 symmetry adapted basis functions of A   symmetry.
   103 basis functions,   312 primitive gaussians,   104 cartesian basis functions
    69 alpha electrons       69 beta electrons
       nuclear repulsion energy      1347.9991246151 Hartrees.
 NAtoms=   30 NActive=   30 NUniq=   30 SFac= 1.00D+00 NAtFMM=   60 NAOKFM=F Big=F
 Integral buffers will be    131072 words long.
 Raffenetti 1 integral format.
 Two-electron integral symmetry is turned on.
 External calculation of energy, first and second derivatives.
 Running external command "~/scripts/MiMe -H 'pbepbe def2svp' -EF 'wb97xd def2svp' -c 12 -m 48GB R"
         input file       "/local/jobs/1158159/Gau-2795322.EIn"
         output file      "/local/jobs/1158159/Gau-2795322.EOu"
         message file     "/local/jobs/1158159/Gau-2795322.EMs"
         fchk file        "/local/jobs/1158159/Gau-2795322.EFC"
         mat. el file     "/local/jobs/1158159/Gau-2795322.EUF"
 Read checkpoint file Gau-2795322_H.chk type G16
 Write formatted file Gau-2795322_H.fchk

deriv: 2

spelevel: wb97xd def2svp
gradlevel: wb97xd def2svp
hesslevel: pbepbe def2svp

runspe: False
runforce: True
runfreq: True

Running Gaussian ...

Parsing files ...
SPE file: Gau-2795322_F.out
FORCE file: Gau-2795322_F.out
HESS file: Gau-2795322_H.out

 ExternalExternalExternalExternalExternalExternalExternalExternalExternalExternal
 Output from external command:
 "~/scripts/MiMe -H 'pbepbe def2svp' -EF 'wb97xd def2svp' -c 12 -m 48GB R /local/jobs/1158159/Gau-2795322.EIn /local/jobs/1158159/Gau-2795322.EOu /local/jobs/1158159/Gau-2795322.EMs /local/jobs/1158159/Gau-2795322.EFC /local/jobs/1158159/Gau-2795322.EUF"
  
 --------------------------------------------------
 Force calculation at wb97xd def2svp
 Hessian calculation at pbepbe def2svp
 ExternalExternalExternalExternalExternalExternalExternalExternalExternalExternal

 Recovered energy= -3186.12941520     dipole=      1.200900000000     -3.104500000000      0.376200000000
 Energy=    -3186.12942     NIter=   0.
 Dipole moment=       1.200900      -3.104500       0.376200
 ***** Axes restored to original set *****
 -------------------------------------------------------------------
 Center     Atomic                   Forces (Hartrees/Bohr)
 Number     Number              X              Y              Z
 -------------------------------------------------------------------
      1        6          -0.001720372    0.021014517   -0.012066100
      2        6           0.018747369   -0.009361337   -0.001782190
      3        8          -0.002427398    0.008060121   -0.006357442
      4        6           0.022972178   -0.002259832   -0.024519171
      5        6           0.004553538    0.003164048   -0.009007489
      6        1           0.000023169   -0.003614399    0.004773783
      7        1           0.001140051   -0.002945186   -0.002416408
      8        1           0.003391391    0.002005216   -0.000592329
      9        7          -0.040868928   -0.021046559    0.053559972
     10        1           0.002033591    0.000183013   -0.000333819
     11        1           0.002047528    0.002885873   -0.009297876
     12        1           0.000818244    0.007896110   -0.009008446
     13       35           0.000196220   -0.003137862    0.004975389
     14        6          -0.011077958    0.004107306   -0.002121278
     15        6           0.010643485   -0.001658333   -0.001884103
     16        6          -0.006059152    0.000699692   -0.002989362
     17        6           0.000616557   -0.000349538   -0.000047287
     18        6          -0.005080430    0.000096115    0.004789660
     19        6           0.011465596   -0.003685447    0.001094326
     20        1          -0.003482082    0.001421633    0.001667977
     21        1           0.002391962    0.000713404    0.003013846
     22        1           0.003705661   -0.000411738   -0.000499207
     23        1           0.001292009   -0.000959245   -0.003576982
     24        1          -0.004188348    0.001177728   -0.001282472
     25        7          -0.013916840   -0.007728269    0.008792708
     26        6           0.007391777   -0.006510149   -0.002173872
     27        1          -0.002856317   -0.003042485    0.000239075
     28        1          -0.002366730   -0.000466849    0.001270424
     29        1           0.000934091    0.008793299    0.006859288
     30        1          -0.000319866    0.004959152   -0.001080613
 -------------------------------------------------------------------
 Cartesian Forces:  Max     0.053559972 RMS     0.009953923
 FormGI is forming the generalized inverse of G from B-inverse, IUseBI=4.

 GradGradGradGradGradGradGradGradGradGradGradGradGradGradGradGradGradGrad
 Berny optimization.
 Internal  Forces:  Max     0.043217533 RMS     0.006088063
 Search for a saddle point.
 Step number   1 out of a maximum of   50
 All quantities printed in internal units (Hartrees-Bohrs-Radians)
 Swapping is turned off.
 Second derivative matrix not updated -- analytic derivatives used.
 ITU=  0
     Eigenvalues ---   -0.04220  -0.03735  -0.03340  -0.02223  -0.01159
     Eigenvalues ---   -0.00903  -0.00483  -0.00335  -0.00026   0.00215
     Eigenvalues ---    0.00584   0.00949   0.01490   0.01579   0.01856
     Eigenvalues ---    0.01929   0.02058   0.02080   0.02287   0.02504
     Eigenvalues ---    0.02739   0.03566   0.03642   0.04203   0.04287
     Eigenvalues ---    0.04698   0.04962   0.05158   0.05377   0.07606
     Eigenvalues ---    0.07782   0.08893   0.09495   0.09743   0.10007
     Eigenvalues ---    0.10012   0.10592   0.11120   0.11240   0.11271
     Eigenvalues ---    0.11413   0.12053   0.12704   0.13816   0.14741
     Eigenvalues ---    0.15699   0.15910   0.16374   0.17401   0.17531
     Eigenvalues ---    0.18019   0.18043   0.18348   0.19866   0.21280
     Eigenvalues ---    0.21834   0.32470   0.32709   0.33598   0.34139
     Eigenvalues ---    0.34596   0.34743   0.35182   0.35680   0.35807
     Eigenvalues ---    0.35895   0.36667   0.36725   0.36967   0.37051
     Eigenvalues ---    0.37077   0.37255   0.40161   0.41039   0.41210
     Eigenvalues ---    0.42398   0.42561   0.43630   0.47404   0.47522
     Eigenvalues ---    0.47823   0.51744   0.56955   0.82078
 Eigenvectors required to have negative eigenvalues:
                          R6        A19       D3        D4        D1
   1                    0.45763   0.35691   0.31702   0.29802   0.28465
                          D2        A20       D10       D14       D13
   1                    0.26564  -0.18703  -0.15332   0.14926   0.14108
 RFO step:  Lambda0=3.793899376D-05 Lambda=-3.81995818D-02.
 Linear search not attempted -- option 19 set.
 Maximum step size (   0.100) exceeded in Quadratic search.
    -- Step size scaled by   0.162
 Iteration  1 RMS(Cart)=  0.02403492 RMS(Int)=  0.00022403
 Iteration  2 RMS(Cart)=  0.00039061 RMS(Int)=  0.00002128
 Iteration  3 RMS(Cart)=  0.00000008 RMS(Int)=  0.00002128
 Variable       Old X    -DE/DX   Delta X   Delta X   Delta X     New X
                                 (Linear)    (Quad)   (Total)
    R1        2.82654  -0.00391   0.00000  -0.00161  -0.00161   2.82493
    R2        2.57402   0.01276   0.00000  -0.00330  -0.00330   2.57072
    R3        2.79716   0.00022   0.00000   0.00085   0.00085   2.79801
    R4        2.31715  -0.00321   0.00000  -0.00092  -0.00092   2.31623
    R5        2.60029  -0.01378   0.00000  -0.00447  -0.00447   2.59582
    R6        3.54278   0.04322   0.00000   0.09173   0.09173   3.63451
    R7        2.06894  -0.00183   0.00000  -0.00348  -0.00348   2.06546
    R8        3.62400  -0.00196   0.00000  -0.00666  -0.00666   3.61733
    R9        2.06672   0.00523   0.00000   0.00348   0.00348   2.07020
   R10        2.06617   0.00390   0.00000   0.00185   0.00185   2.06802
   R11        2.06594   0.00368   0.00000   0.00193   0.00193   2.06787
   R12        2.76908   0.00318   0.00000  -0.00359  -0.00359   2.76549
   R13        1.94107  -0.00192   0.00000  -0.00238  -0.00238   1.93870
   R14        1.95005  -0.00472   0.00000  -0.00309  -0.00309   1.94697
   R15        2.65033   0.00324   0.00000   0.00018   0.00018   2.65051
   R16        2.65126   0.00253   0.00000   0.00034   0.00034   2.65160
   R17        2.63895  -0.00157   0.00000  -0.00064  -0.00064   2.63832
   R18        2.05741   0.00314   0.00000   0.00125   0.00125   2.05866
   R19        2.63298   0.00130   0.00000   0.00049   0.00049   2.63348
   R20        2.05426   0.00391   0.00000   0.00144   0.00144   2.05570
   R21        2.63313   0.00118   0.00000   0.00008   0.00008   2.63321
   R22        2.05450   0.00375   0.00000   0.00137   0.00137   2.05587
   R23        2.63955  -0.00154   0.00000  -0.00130  -0.00130   2.63825
   R24        2.05434   0.00390   0.00000   0.00151   0.00151   2.05584
   R25        2.05595   0.00332   0.00000   0.00133   0.00133   2.05729
   R26        2.71889   0.00697   0.00000   0.00103   0.00103   2.71992
   R27        1.91205  -0.00176   0.00000  -0.00021  -0.00021   1.91184
   R28        2.06600   0.00260   0.00000   0.00127   0.00127   2.06727
   R29        2.06576   0.00735   0.00000   0.00297   0.00297   2.06874
   R30        2.06428   0.00398   0.00000   0.00150   0.00150   2.06578
    A1        2.08214   0.00373   0.00000   0.00478   0.00478   2.08692
    A2        2.09725  -0.00164   0.00000   0.00160   0.00159   2.09885
    A3        2.10005  -0.00232   0.00000  -0.00675  -0.00675   2.09330
    A4        2.13480   0.00464   0.00000  -0.00120  -0.00120   2.13360
    A5        1.98007   0.00951   0.00000   0.00798   0.00798   1.98805
    A6        2.16760  -0.01408   0.00000  -0.00672  -0.00672   2.16088
    A7        1.87033   0.01515   0.00000  -0.00173  -0.00172   1.86860
    A8        2.08981  -0.00434   0.00000   0.00287   0.00283   2.09264
    A9        2.13005   0.00137   0.00000   0.00596   0.00586   2.13591
   A10        1.51728   0.00946   0.00000  -0.00127  -0.00126   1.51602
   A11        1.79906  -0.01970   0.00000  -0.01664  -0.01662   1.78244
   A12        1.92029  -0.00030   0.00000   0.00210   0.00202   1.92231
   A13        1.89979  -0.00165   0.00000  -0.00339  -0.00340   1.89639
   A14        1.89834  -0.00066   0.00000  -0.00316  -0.00316   1.89517
   A15        1.92648   0.00484   0.00000   0.01111   0.01110   1.93758
   A16        1.89565  -0.00005   0.00000  -0.00246  -0.00247   1.89319
   A17        1.91965   0.00008   0.00000  -0.00036  -0.00036   1.91929
   A18        1.92338  -0.00265   0.00000  -0.00200  -0.00201   1.92138
   A19        2.34714  -0.02335   0.00000  -0.00917  -0.00916   2.33798
   A20        1.79225   0.00915   0.00000  -0.00059  -0.00056   1.79169
   A21        1.74185   0.00014   0.00000  -0.01259  -0.01257   1.72927
   A22        1.86622   0.00680   0.00000   0.00760   0.00757   1.87379
   A23        1.86114   0.01241   0.00000   0.01286   0.01277   1.87391
   A24        1.78426  -0.00155   0.00000   0.00439   0.00431   1.78856
   A25        2.09531   0.00107   0.00000   0.00479   0.00479   2.10010
   A26        2.11457   0.00353   0.00000  -0.00300  -0.00300   2.11157
   A27        2.07299  -0.00459   0.00000  -0.00178  -0.00178   2.07121
   A28        2.10498   0.00232   0.00000   0.00035   0.00035   2.10533
   A29        2.10095  -0.00386   0.00000  -0.00235  -0.00235   2.09861
   A30        2.07719   0.00155   0.00000   0.00201   0.00201   2.07921
   A31        2.09515   0.00102   0.00000   0.00094   0.00094   2.09609
   A32        2.09268  -0.00056   0.00000  -0.00039  -0.00039   2.09229
   A33        2.09536  -0.00046   0.00000  -0.00056  -0.00056   2.09480
   A34        2.09361  -0.00225   0.00000  -0.00116  -0.00116   2.09245
   A35        2.09449   0.00116   0.00000   0.00082   0.00082   2.09531
   A36        2.09508   0.00109   0.00000   0.00034   0.00034   2.09542
   A37        2.09560   0.00108   0.00000  -0.00013  -0.00013   2.09547
   A38        2.09394  -0.00036   0.00000   0.00076   0.00076   2.09471
   A39        2.09364  -0.00072   0.00000  -0.00063  -0.00063   2.09301
   A40        2.10402   0.00242   0.00000   0.00177   0.00177   2.10579
   A41        2.10462  -0.00422   0.00000  -0.00425  -0.00425   2.10037
   A42        2.07453   0.00180   0.00000   0.00248   0.00248   2.07701
   A43        2.11769   0.00270   0.00000  -0.00154  -0.00154   2.11614
   A44        2.07560  -0.00436   0.00000  -0.00064  -0.00064   2.07496
   A45        2.07599   0.00170   0.00000   0.00189   0.00189   2.07789
   A46        1.92893  -0.00412   0.00000  -0.00391  -0.00391   1.92502
   A47        1.89468   0.01255   0.00000   0.00951   0.00950   1.90418
   A48        1.89510   0.00317   0.00000   0.00335   0.00333   1.89843
   A49        1.91039  -0.00457   0.00000  -0.00445  -0.00444   1.90594
   A50        1.91922  -0.00157   0.00000  -0.00152  -0.00152   1.91770
   A51        1.91529  -0.00528   0.00000  -0.00280  -0.00283   1.91247
    D1        0.85769  -0.00473   0.00000  -0.02487  -0.02488   0.83280
    D2       -2.32296  -0.00315   0.00000  -0.02322  -0.02322  -2.34619
    D3       -2.19138  -0.00164   0.00000  -0.01998  -0.01997  -2.21136
    D4        0.91115  -0.00006   0.00000  -0.01833  -0.01831   0.89284
    D5       -1.58311   0.01435   0.00000   0.01376   0.01377  -1.56934
    D6        3.01711  -0.00472   0.00000   0.01527   0.01529   3.03239
    D7        0.48003   0.00168   0.00000  -0.00637  -0.00641   0.47362
    D8        1.46580   0.01130   0.00000   0.00931   0.00933   1.47513
    D9       -0.21716  -0.00777   0.00000   0.01082   0.01084  -0.20632
   D10       -2.75424  -0.00137   0.00000  -0.01082  -0.01085  -2.76509
   D11        0.82996  -0.00330   0.00000  -0.01457  -0.01456   0.81539
   D12       -2.28432  -0.00397   0.00000  -0.01518  -0.01517  -2.29949
   D13       -2.21816  -0.00050   0.00000  -0.01025  -0.01025  -2.22841
   D14        0.95076  -0.00117   0.00000  -0.01086  -0.01086   0.93989
   D15       -3.05591   0.00039   0.00000  -0.00158  -0.00158  -3.05749
   D16       -0.09460   0.00081   0.00000  -0.00326  -0.00325  -0.09785
   D17        0.04577   0.00250   0.00000   0.00027   0.00026   0.04603
   D18        3.00708   0.00293   0.00000  -0.00141  -0.00141   3.00567
   D19       -1.32926  -0.00069   0.00000  -0.00231  -0.00231  -1.33158
   D20        2.68942  -0.00034   0.00000  -0.00486  -0.00485   2.68457
   D21        0.85637  -0.00094   0.00000  -0.00582  -0.00576   0.85062
   D22        0.76899  -0.00038   0.00000   0.00009   0.00006   0.76905
   D23       -1.49552  -0.00003   0.00000  -0.00246  -0.00248  -1.49799
   D24        2.95462  -0.00063   0.00000  -0.00341  -0.00338   2.95124
   D25        2.68627   0.00094   0.00000   0.00151   0.00147   2.68774
   D26        0.42177   0.00129   0.00000  -0.00104  -0.00107   0.42070
   D27       -1.41128   0.00069   0.00000  -0.00200  -0.00197  -1.41325
   D28        3.10918  -0.00212   0.00000  -0.00351  -0.00353   3.10565
   D29       -0.93361  -0.00249   0.00000  -0.00393  -0.00397  -0.93758
   D30        0.96507   0.00386   0.00000   0.00964   0.00970   0.97477
   D31       -1.07744  -0.00102   0.00000  -0.00088  -0.00090  -1.07834
   D32        1.16295  -0.00140   0.00000  -0.00130  -0.00134   1.16162
   D33        3.06163   0.00495   0.00000   0.01227   0.01233   3.07396
   D34        1.01203  -0.00270   0.00000  -0.00541  -0.00543   1.00660
   D35       -3.03076  -0.00308   0.00000  -0.00583  -0.00587  -3.03663
   D36       -1.13208   0.00328   0.00000   0.00774   0.00780  -1.12428
   D37       -3.12232  -0.00049   0.00000   0.00036   0.00036  -3.12196
   D38        0.03136  -0.00085   0.00000  -0.00159  -0.00159   0.02977
   D39       -0.00740   0.00029   0.00000   0.00093   0.00093  -0.00647
   D40       -3.13691  -0.00007   0.00000  -0.00101  -0.00101  -3.13792
   D41        3.12171   0.00098   0.00000   0.00167   0.00167   3.12338
   D42       -0.01337   0.00098   0.00000   0.00134   0.00134  -0.01204
   D43        0.00710   0.00024   0.00000   0.00097   0.00097   0.00806
   D44       -3.12799   0.00024   0.00000   0.00064   0.00064  -3.12735
   D45        0.00372  -0.00052   0.00000  -0.00177  -0.00177   0.00195
   D46       -3.13478  -0.00028   0.00000  -0.00176  -0.00177  -3.13654
   D47        3.13339  -0.00021   0.00000   0.00012   0.00012   3.13351
   D48       -0.00511   0.00004   0.00000   0.00013   0.00013  -0.00498
   D49        0.00041   0.00026   0.00000   0.00071   0.00071   0.00112
   D50       -3.13981   0.00007   0.00000  -0.00005  -0.00005  -3.13986
   D51        3.13890   0.00001   0.00000   0.00071   0.00071   3.13960
   D52       -0.00132  -0.00018   0.00000  -0.00006  -0.00006  -0.00138
   D53       -0.00071   0.00026   0.00000   0.00117   0.00117   0.00047
   D54        3.14062  -0.00035   0.00000  -0.00027  -0.00027   3.14035
   D55        3.13951   0.00045   0.00000   0.00194   0.00194   3.14145
   D56       -0.00235  -0.00016   0.00000   0.00049   0.00049  -0.00186
   D57       -0.00311  -0.00053   0.00000  -0.00203  -0.00203  -0.00514
   D58        3.13208  -0.00055   0.00000  -0.00173  -0.00173   3.13036
   D59        3.13875   0.00008   0.00000  -0.00058  -0.00059   3.13817
   D60       -0.00924   0.00006   0.00000  -0.00028  -0.00028  -0.00952
   D61       -0.67731  -0.00070   0.00000  -0.00493  -0.00493  -0.68225
   D62        1.41803  -0.00093   0.00000  -0.00680  -0.00682   1.41121
   D63       -2.78378   0.00175   0.00000  -0.00279  -0.00277  -2.78655
   D64        2.64460  -0.00051   0.00000  -0.00300  -0.00300   2.64160
   D65       -1.54325  -0.00074   0.00000  -0.00487  -0.00488  -1.54813
   D66        0.53813   0.00193   0.00000  -0.00085  -0.00084   0.53729
         Item               Value     Threshold  Converged?
 Maximum Force            0.043218     0.000450     NO 
 RMS     Force            0.006088     0.000300     NO 
 Maximum Displacement     0.095099     0.001800     NO 
 RMS     Displacement     0.024049     0.001200     NO 
 Predicted change in Energy=-5.793860D-03
 GradGradGradGradGradGradGradGradGradGradGradGradGradGradGradGradGradGrad

                          Input orientation:                          
 ---------------------------------------------------------------------
 Center     Atomic      Atomic             Coordinates (Angstroms)
 Number     Number       Type             X           Y           Z
 ---------------------------------------------------------------------
      1          6           0        0.062708    0.169180   -0.082023
      2          6           0       -0.403359    1.460093    0.510448
      3          8           0       -1.179482    1.502237    1.458175
      4          6           0       -0.844346   -0.801635   -0.374209
      5          6           0       -0.186344   -2.944564    1.799016
      6          1           0       -0.632367   -3.310321    2.730367
      7          1           0       -0.079295   -3.786334    1.107960
      8          1           0        0.809646   -2.549375    2.020957
      9          7           0       -1.016779   -1.903020    1.193049
     10          1           0       -1.964252   -2.284455    1.096598
     11          1           0       -1.145428   -1.163125    1.898387
     12          1           0       -0.525205   -1.704898   -0.900423
     13         35           0       -2.670392   -0.406518   -0.790911
     14          6           0        1.510256   -0.101702   -0.235417
     15          6           0        2.393681    0.147536    0.825098
     16          6           0        3.762844   -0.083545    0.679535
     17          6           0        4.265959   -0.564136   -0.527925
     18          6           0        3.400229   -0.812694   -1.591123
     19          6           0        2.031166   -0.580171   -1.447270
     20          1           0        2.016477    0.516100    1.778334
     21          1           0        4.436495    0.109494    1.511585
     22          1           0        5.332786   -0.745475   -0.640032
     23          1           0        3.790870   -1.186786   -2.535047
     24          1           0        1.371795   -0.770217   -2.292440
     25          7           0        0.152112    2.572897   -0.072673
     26          6           0       -0.106198    3.892483    0.440758
     27          1           0        0.873515    2.450021   -0.771259
     28          1           0       -1.150863    3.980257    0.753329
     29          1           0        0.543994    4.075288    1.302304
     30          1           0        0.109948    4.623395   -0.342860
 ---------------------------------------------------------------------
                    Distance matrix (angstroms):
                    1          2          3          4          5
     1  C    0.000000
     2  C    1.494890   0.000000
     3  O    2.385851   1.225695   0.000000
     4  C    1.360368   2.468299   2.962731   0.000000
     5  C    3.646333   4.594400   4.569085   3.122182   0.000000
     6  H    4.527648   5.266624   5.007846   3.997102   1.095504
     7  H    4.133077   5.290277   5.413137   3.419146   1.094347
     8  H    3.517241   4.452959   4.548506   3.395158   1.094271
     9  N    2.661788   3.486080   3.419436   1.923299   1.463432
    10  H    3.393823   4.098974   3.884023   2.369855   2.022398
    11  H    2.675191   3.059135   2.701685   2.320779   2.025647
    12  H    2.127814   3.467358   4.034449   1.092994   2.989745
    13  Br   2.881628   3.212040   3.305230   1.914210   4.395440
    14  C    1.480643   2.580202   3.560276   2.460350   3.885774
    15  C    2.501354   3.105679   3.873434   3.581072   4.143203
    16  C    3.786140   4.446196   5.248578   4.780401   5.003475
    17  C    4.289977   5.194060   6.153643   5.118130   5.559145
    18  C    3.792165   4.904024   5.969161   4.415588   5.376005
    19  C    2.510031   3.731253   4.804820   3.077186   4.587601
    20  H    2.720017   2.890374   3.359928   3.814993   4.102322
    21  H    4.655444   5.123532   5.786344   5.680990   5.548020
    22  H    5.377889   6.252319   7.201688   6.183104   6.422285
    23  H    4.664244   5.820015   6.919615   5.128625   6.139391
    24  H    2.735346   3.997704   5.073478   2.931190   4.888312
    25  N    2.405397   1.373649   2.294112   3.531476   5.836108
    26  C    3.763616   2.451465   2.810756   4.821180   6.971119
    27  H    2.516880   2.062314   3.175447   3.698913   6.068869
    28  H    4.085936   2.639883   2.576472   4.922580   7.069435
    29  H    4.172011   2.892017   3.100847   5.340652   7.075199
    30  H    4.462096   3.316339   3.827269   5.508413   7.870797
                    6          7          8          9         10
     6  H    0.000000
     7  H    1.778955   0.000000
     8  H    1.778118   1.775907   0.000000
     9  N    2.119343   2.105467   2.106901   0.000000
    10  H    2.344253   2.410153   2.935836   1.025915   0.000000
    11  H    2.359210   2.939837   2.399797   1.030290   1.603346
    12  H    3.971335   2.926571   3.321059   2.159519   2.528801
    13  Br   4.998501   4.662902   4.960755   2.984970   2.754626
    14  C    4.866409   4.231766   3.401937   3.416309   4.314033
    15  C    4.974313   4.655207   3.348518   3.996424   4.997987
    16  C    5.825451   5.353151   4.074446   5.139940   6.149600
    17  C    6.492426   5.651540   4.731181   5.715040   6.664391
    18  C    6.416794   5.313631   4.772243   5.333890   6.177992
    19  C    5.656923   4.611152   4.171148   4.243958   5.033807
    20  H    4.750182   4.832452   3.303398   3.923689   4.914679
    21  H    6.234896   5.977687   4.525823   5.821501   6.846369
    22  H    7.315810   6.449257   5.549208   6.709476   7.657095
    23  H    7.197153   5.916699   5.612621   6.125780   6.893124
    24  H    5.974728   4.771304   4.699660   4.374604   4.990761
    25  N    6.563893   6.472038   5.572549   4.796060   5.425869
    26  C    7.576248   7.707796   6.695769   5.914639   6.483598
    27  H    6.907286   6.582662   5.726649   5.136212   5.827269
    28  H    7.571660   7.848182   6.934448   5.901210   6.326614
    29  H    7.613830   7.888686   6.668822   6.179653   6.839586
    30  H    8.540469   8.536055   7.584579   6.798722   7.354776
                   11         12         13         14         15
    11  H    0.000000
    12  H    2.917453   0.000000
    13  Br   3.182811   2.509902   0.000000
    14  C    3.568248   2.674990   4.228392   0.000000
    15  C    3.923655   3.863785   5.344463   1.402587   0.000000
    16  C    5.171289   4.848961   6.607045   2.431382   1.396136
    17  C    5.960611   4.939164   6.943124   2.809503   2.417142
    18  C    5.741296   4.084376   6.136592   2.432170   2.788066
    19  C    4.650161   2.845889   4.750327   1.403164   2.413428
    20  H    3.582157   4.309143   5.423926   2.166363   1.089394
    21  H    5.738208   5.807604   7.488363   3.414599   2.155412
    22  H    6.970312   5.941747   8.011773   3.897421   3.403295
    23  H    6.634978   4.644237   6.737858   3.415686   3.875969
    24  H    4.904468   2.531787   4.327371   2.167355   3.406694
    25  N    4.418885   4.409474   4.166450   3.004085   3.422426
    26  C    5.363194   5.771049   5.154949   4.361611   4.519041
    27  H    4.925237   4.385938   4.551864   2.684000   3.187585
    28  H    5.269304   5.953766   4.892590   4.972079   5.220986
    29  H    5.536283   6.277400   5.899187   4.554722   4.367642
    30  H    6.331111   6.384480   5.764639   4.929397   5.158767
                   16         17         18         19         20
    16  C    0.000000
    17  C    1.393575   0.000000
    18  C    2.412268   1.393435   0.000000
    19  C    2.787229   2.416558   1.396100   0.000000
    20  H    2.148659   3.397927   3.877333   3.406838   0.000000
    21  H    1.087831   2.154637   3.398688   3.875057   2.468394
    22  H    2.155023   1.087921   2.154964   3.402889   4.293946
    23  H    3.398744   2.154517   1.087905   2.155876   4.965234
    24  H    3.875728   3.395905   2.146671   1.088668   4.317571
    25  N    4.545315   5.193455   4.931348   3.919465   3.336540
    26  C    5.552954   6.317876   6.209852   5.304489   4.206521
    27  H    4.107552   4.544561   4.207348   3.313489   3.398063
    28  H    6.376869   7.185756   7.012937   5.980422   4.804484
    29  H    5.295728   6.223104   6.357859   5.607597   3.881060
    30  H    6.045182   6.649599   6.475738   5.655785   5.000419
                   21         22         23         24         25
    21  H    0.000000
    22  H    2.482694   0.000000
    23  H    4.297954   2.482607   0.000000
    24  H    4.963555   4.291912   2.466640   0.000000
    25  N    5.189813   6.178420   5.782653   4.194211   0.000000
    26  C    6.007806   7.229198   7.059854   5.603178   1.439320
    27  H    4.835728   5.487578   4.984805   3.596138   1.011703
    28  H    6.839322   8.143200   7.869720   6.181223   2.088225
    29  H    5.560834   7.067174   7.277149   6.089857   2.073960
    30  H    6.521754   7.496073   7.218939   5.872323   2.068652
                   26         27         28         29         30
    26  C    0.000000
    27  H    2.123562   0.000000
    28  H    1.093952   2.960422   0.000000
    29  H    1.094728   2.655135   1.784081   0.000000
    30  H    1.093165   2.343099   1.790224   1.787564   0.000000
 Stoichiometry    C11H15BrN2O
 Framework group  C1[X(C11H15BrN2O)]
 Deg. of freedom    84
 Full point group                 C1      NOp   1
 Largest Abelian subgroup         C1      NOp   1
 Largest concise Abelian subgroup C1      NOp   1
                         Standard orientation:                         
 ---------------------------------------------------------------------
 Center     Atomic      Atomic             Coordinates (Angstroms)
 Number     Number       Type             X           Y           Z
 ---------------------------------------------------------------------
      1          6           0        0.062613    0.172681   -0.072179
      2          6           0       -0.394492    1.469196    0.515017
      3          8           0       -1.169262    1.520562    1.463395
      4          6           0       -0.850982   -0.793583   -0.359023
      5          6           0       -0.204310   -2.930961    1.823051
      6          1           0       -0.651626   -3.289678    2.756517
      7          1           0       -0.103443   -3.776482    1.135653
      8          1           0        0.794445   -2.541190    2.042130
      9          7           0       -1.028722   -1.886821    1.213337
     10          1           0       -1.978732   -2.262588    1.119631
     11          1           0       -1.151826   -1.142970    1.915495
     12          1           0       -0.538237   -1.701220   -0.881538
     13         35           0       -2.674920   -0.388608   -0.775491
     14          6           0        1.508219   -0.108179   -0.225943
     15          6           0        2.394416    0.140116    0.832478
     16          6           0        3.761904   -0.100405    0.686452
     17          6           0        4.260567   -0.589611   -0.519394
     18          6           0        3.392065   -0.837351   -1.580521
     19          6           0        2.024685   -0.595396   -1.436212
     20          1           0        2.020657    0.515352    1.784467
     21          1           0        4.437714    0.092019    1.516892
     22          1           0        5.326081   -0.778299   -0.631856
     23          1           0        3.779236   -1.218160   -2.523187
     24          1           0        1.363159   -0.784977   -2.279800
     25          7           0        0.167457    2.575792   -0.073687
     26          6           0       -0.081799    3.899291    0.434114
     27          1           0        0.887271    2.445162   -0.772505
     28          1           0       -1.125528    3.995172    0.747432
     29          1           0        0.570520    4.081764    1.294121
     30          1           0        0.138154    4.625290   -0.353005
 ---------------------------------------------------------------------
 Rotational constants (GHZ):           0.5660372           0.3125449           0.2538649
 Standard basis: STO-3G (5D, 7F)
 There are   104 symmetry adapted cartesian basis functions of A   symmetry.
 There are   103 symmetry adapted basis functions of A   symmetry.
   103 basis functions,   312 primitive gaussians,   104 cartesian basis functions
    69 alpha electrons       69 beta electrons
       nuclear repulsion energy      1346.1560818705 Hartrees.
 NAtoms=   30 NActive=   30 NUniq=   30 SFac= 1.00D+00 NAtFMM=   60 NAOKFM=F Big=F
 Integral buffers will be    131072 words long.
 Raffenetti 1 integral format.
 Two-electron integral symmetry is turned on.
 External calculation of energy, first and second derivatives.
 Running external command "~/scripts/MiMe -H 'pbepbe def2svp' -EF 'wb97xd def2svp' -c 12 -m 48GB R"
         input file       "/local/jobs/1158159/Gau-2795322.EIn"
         output file      "/local/jobs/1158159/Gau-2795322.EOu"
         message file     "/local/jobs/1158159/Gau-2795322.EMs"
         fchk file        "/local/jobs/1158159/Gau-2795322.EFC"
         mat. el file     "/local/jobs/1158159/Gau-2795322.EUF"
 Read checkpoint file Gau-2795322_H.chk type G16
 Write formatted file Gau-2795322_H.fchk

deriv: 2

spelevel: wb97xd def2svp
gradlevel: wb97xd def2svp
hesslevel: pbepbe def2svp

runspe: False
runforce: True
runfreq: True

Running Gaussian ...

Parsing files ...
SPE file: Gau-2795322_F.out
FORCE file: Gau-2795322_F.out
HESS file: Gau-2795322_H.out

 ExternalExternalExternalExternalExternalExternalExternalExternalExternalExternal
 Output from external command:
 "~/scripts/MiMe -H 'pbepbe def2svp' -EF 'wb97xd def2svp' -c 12 -m 48GB R /local/jobs/1158159/Gau-2795322.EIn /local/jobs/1158159/Gau-2795322.EOu /local/jobs/1158159/Gau-2795322.EMs /local/jobs/1158159/Gau-2795322.EFC /local/jobs/1158159/Gau-2795322.EUF"
  
 --------------------------------------------------
 Force calculation at wb97xd def2svp
 Hessian calculation at pbepbe def2svp
 ExternalExternalExternalExternalExternalExternalExternalExternalExternalExternal

 Recovered energy= -3186.13518836     dipole=      1.436700000000     -2.777300000000      0.327400000000
 Energy=    -3186.13519     NIter=   0.
 Dipole moment=       1.436700      -2.777300       0.327400
 ***** Axes restored to original set *****
 -------------------------------------------------------------------
 Center     Atomic                   Forces (Hartrees/Bohr)
 Number     Number              X              Y              Z
 -------------------------------------------------------------------
      1        6          -0.002711663    0.016896998   -0.011317901
      2        6           0.016063299   -0.007849451    0.000069629
      3        8          -0.001938481    0.006900462   -0.005662775
      4        6           0.020606173    0.002054894   -0.024620809
      5        6           0.003706951    0.003080936   -0.007264504
      6        1           0.000194491   -0.003162315    0.004123863
      7        1           0.001067708   -0.002497309   -0.002115547
      8        1           0.002960172    0.001658245   -0.000638939
      9        7          -0.035852050   -0.020972013    0.048832555
     10        1           0.001702489    0.000064600   -0.000511124
     11        1           0.002278095    0.002656055   -0.008226860
     12        1           0.000807540    0.006218230   -0.007040356
     13       35           0.000241543   -0.002657901    0.004661409
     14        6          -0.009115795    0.003847544   -0.002210220
     15        6           0.009084040   -0.001277160   -0.001584470
     16        6          -0.005202270    0.000552776   -0.002501368
     17        6           0.000539313   -0.000309350    0.000017495
     18        6          -0.004314270    0.000064968    0.004130696
     19        6           0.009703142   -0.003392139    0.000987957
     20        1          -0.002987809    0.001261246    0.001407534
     21        1           0.002012369    0.000616667    0.002606592
     22        1           0.003160193   -0.000336133   -0.000380723
     23        1           0.001113652   -0.000808716   -0.003018046
     24        1          -0.003525256    0.001139728   -0.001130451
     25        7          -0.011850732   -0.006793910    0.007102654
     26        6           0.006582374   -0.005620595   -0.001737394
     27        1          -0.002547365   -0.002628289   -0.000046700
     28        1          -0.002018659   -0.000335941    0.001035189
     29        1           0.000540274    0.007425345    0.005945205
     30        1          -0.000299468    0.004202530   -0.000912587
 -------------------------------------------------------------------
 Cartesian Forces:  Max     0.048832555 RMS     0.008922678
 FormGI is forming the generalized inverse of G from B-inverse, IUseBI=4.

 GradGradGradGradGradGradGradGradGradGradGradGradGradGradGradGradGradGrad
 Berny optimization.
 Internal  Forces:  Max     0.040991326 RMS     0.005376585
 Search for a saddle point.
 Step number   2 out of a maximum of   50
 All quantities printed in internal units (Hartrees-Bohrs-Radians)
 Swapping is turned off.
 Second derivative matrix not updated -- analytic derivatives used.
 ITU=  0  0
     Eigenvalues ---   -0.03899  -0.03610  -0.02984  -0.02138  -0.01127
     Eigenvalues ---   -0.00879  -0.00473  -0.00311  -0.00023   0.00238
     Eigenvalues ---    0.00520   0.00967   0.01488   0.01580   0.01829
     Eigenvalues ---    0.01898   0.02057   0.02087   0.02286   0.02504
     Eigenvalues ---    0.02737   0.03423   0.03656   0.04190   0.04292
     Eigenvalues ---    0.04669   0.04983   0.05151   0.05365   0.07500
     Eigenvalues ---    0.07597   0.08943   0.09544   0.09744   0.09811
     Eigenvalues ---    0.10033   0.10334   0.10983   0.11196   0.11286
     Eigenvalues ---    0.11466   0.11895   0.12626   0.13733   0.14833
     Eigenvalues ---    0.15657   0.15862   0.16328   0.17364   0.17464
     Eigenvalues ---    0.17977   0.18036   0.18332   0.19787   0.20690
     Eigenvalues ---    0.21981   0.32447   0.32776   0.33724   0.34005
     Eigenvalues ---    0.34487   0.34885   0.35146   0.35534   0.35576
     Eigenvalues ---    0.35748   0.36531   0.36701   0.36828   0.36903
     Eigenvalues ---    0.36927   0.37103   0.40020   0.41089   0.41699
     Eigenvalues ---    0.42554   0.42828   0.44170   0.47435   0.47600
     Eigenvalues ---    0.47821   0.51763   0.57132   0.82453
 Eigenvectors required to have negative eigenvalues:
                          D3        D4        D1        D2        R6
   1                    0.43972   0.41544   0.37129   0.34701   0.24508
                          A19       D14       D13       A2        D16
   1                    0.21718   0.14061   0.13927  -0.12811   0.12196
 RFO step:  Lambda0=6.908050659D-06 Lambda=-3.61952572D-02.
 Linear search not attempted -- option 19 set.
 Maximum step size (   0.100) exceeded in Quadratic search.
    -- Step size scaled by   0.165
 Iteration  1 RMS(Cart)=  0.03862289 RMS(Int)=  0.00049464
 Iteration  2 RMS(Cart)=  0.00074575 RMS(Int)=  0.00002533
 Iteration  3 RMS(Cart)=  0.00000026 RMS(Int)=  0.00002533
 Variable       Old X    -DE/DX   Delta X   Delta X   Delta X     New X
                                 (Linear)    (Quad)   (Total)
    R1        2.82493  -0.00318   0.00000   0.00175   0.00175   2.82668
    R2        2.57072   0.00966   0.00000  -0.00315  -0.00315   2.56757
    R3        2.79801   0.00038   0.00000   0.00097   0.00097   2.79898
    R4        2.31623  -0.00291   0.00000  -0.00242  -0.00242   2.31381
    R5        2.59582  -0.01175   0.00000  -0.00308  -0.00308   2.59274
    R6        3.63451   0.04099   0.00000   0.08274   0.08274   3.71725
    R7        2.06546  -0.00151   0.00000  -0.00218  -0.00218   2.06328
    R8        3.61733  -0.00179   0.00000  -0.00673  -0.00673   3.61061
    R9        2.07020   0.00448   0.00000   0.00275   0.00275   2.07295
   R10        2.06802   0.00336   0.00000   0.00195   0.00195   2.06997
   R11        2.06787   0.00316   0.00000   0.00168   0.00168   2.06955
   R12        2.76549   0.00271   0.00000  -0.00467  -0.00467   2.76082
   R13        1.93870  -0.00155   0.00000  -0.00168  -0.00168   1.93702
   R14        1.94697  -0.00401   0.00000  -0.00341  -0.00341   1.94356
   R15        2.65051   0.00278   0.00000   0.00107   0.00107   2.65157
   R16        2.65160   0.00214   0.00000  -0.00010  -0.00010   2.65150
   R17        2.63832  -0.00152   0.00000  -0.00157  -0.00157   2.63675
   R18        2.05866   0.00269   0.00000   0.00113   0.00113   2.05978
   R19        2.63348   0.00103   0.00000   0.00043   0.00043   2.63390
   R20        2.05570   0.00335   0.00000   0.00133   0.00133   2.05704
   R21        2.63321   0.00113   0.00000   0.00022   0.00022   2.63343
   R22        2.05587   0.00319   0.00000   0.00120   0.00120   2.05707
   R23        2.63825  -0.00117   0.00000  -0.00019  -0.00019   2.63805
   R24        2.05584   0.00330   0.00000   0.00129   0.00129   2.05713
   R25        2.05729   0.00281   0.00000   0.00120   0.00120   2.05849
   R26        2.71992   0.00588   0.00000   0.00058   0.00058   2.72050
   R27        1.91184  -0.00146   0.00000  -0.00020  -0.00020   1.91164
   R28        2.06727   0.00220   0.00000   0.00115   0.00115   2.06842
   R29        2.06874   0.00624   0.00000   0.00268   0.00268   2.07142
   R30        2.06578   0.00341   0.00000   0.00138   0.00138   2.06717
    A1        2.08692   0.00345   0.00000   0.01011   0.01011   2.09702
    A2        2.09885  -0.00241   0.00000  -0.01059  -0.01059   2.08826
    A3        2.09330  -0.00128   0.00000   0.00038   0.00038   2.09369
    A4        2.13360   0.00437   0.00000   0.00575   0.00575   2.13936
    A5        1.98805   0.00718   0.00000  -0.00087  -0.00087   1.98718
    A6        2.16088  -0.01149   0.00000  -0.00487  -0.00487   2.15602
    A7        1.86860   0.01289   0.00000   0.00365   0.00366   1.87227
    A8        2.09264  -0.00340   0.00000   0.00373   0.00371   2.09635
    A9        2.13591   0.00122   0.00000   0.00200   0.00198   2.13789
   A10        1.51602   0.00755   0.00000  -0.01098  -0.01098   1.50504
   A11        1.78244  -0.01708   0.00000  -0.00962  -0.00962   1.77282
   A12        1.92231  -0.00006   0.00000   0.00288   0.00278   1.92508
   A13        1.89639  -0.00145   0.00000  -0.00310  -0.00309   1.89329
   A14        1.89517  -0.00062   0.00000  -0.00171  -0.00172   1.89345
   A15        1.93758   0.00439   0.00000   0.01366   0.01365   1.95123
   A16        1.89319  -0.00012   0.00000  -0.00238  -0.00240   1.89079
   A17        1.91929  -0.00003   0.00000  -0.00382  -0.00383   1.91546
   A18        1.92138  -0.00226   0.00000  -0.00297  -0.00298   1.91840
   A19        2.33798  -0.01979   0.00000  -0.03856  -0.03857   2.29941
   A20        1.79169   0.00782   0.00000   0.01227   0.01228   1.80397
   A21        1.72927  -0.00019   0.00000   0.00488   0.00489   1.73416
   A22        1.87379   0.00579   0.00000   0.01121   0.01115   1.88495
   A23        1.87391   0.01049   0.00000   0.01398   0.01384   1.88776
   A24        1.78856  -0.00118   0.00000   0.00480   0.00464   1.79321
   A25        2.10010   0.00005   0.00000  -0.00457  -0.00457   2.09553
   A26        2.11157   0.00382   0.00000   0.00644   0.00644   2.11801
   A27        2.07121  -0.00385   0.00000  -0.00187  -0.00187   2.06934
   A28        2.10533   0.00210   0.00000   0.00179   0.00179   2.10712
   A29        2.09861  -0.00337   0.00000  -0.00349  -0.00349   2.09511
   A30        2.07921   0.00127   0.00000   0.00173   0.00173   2.08093
   A31        2.09609   0.00079   0.00000  -0.00008  -0.00008   2.09601
   A32        2.09229  -0.00048   0.00000  -0.00050  -0.00050   2.09180
   A33        2.09480  -0.00031   0.00000   0.00057   0.00057   2.09537
   A34        2.09245  -0.00191   0.00000  -0.00126  -0.00126   2.09120
   A35        2.09531   0.00094   0.00000   0.00041   0.00041   2.09572
   A36        2.09542   0.00097   0.00000   0.00085   0.00085   2.09627
   A37        2.09547   0.00099   0.00000   0.00111   0.00110   2.09658
   A38        2.09471  -0.00037   0.00000  -0.00050  -0.00050   2.09421
   A39        2.09301  -0.00062   0.00000  -0.00061  -0.00061   2.09240
   A40        2.10579   0.00187   0.00000   0.00031   0.00031   2.10609
   A41        2.10037  -0.00349   0.00000  -0.00206  -0.00206   2.09831
   A42        2.07701   0.00162   0.00000   0.00176   0.00176   2.07877
   A43        2.11614   0.00266   0.00000   0.00169   0.00169   2.11784
   A44        2.07496  -0.00391   0.00000  -0.00262  -0.00262   2.07234
   A45        2.07789   0.00130   0.00000   0.00117   0.00117   2.07906
   A46        1.92502  -0.00338   0.00000  -0.00184  -0.00184   1.92319
   A47        1.90418   0.01069   0.00000   0.00810   0.00809   1.91227
   A48        1.89843   0.00254   0.00000   0.00193   0.00193   1.90036
   A49        1.90594  -0.00392   0.00000  -0.00375  -0.00375   1.90219
   A50        1.91770  -0.00135   0.00000  -0.00156  -0.00156   1.91614
   A51        1.91247  -0.00449   0.00000  -0.00280  -0.00281   1.90965
    D1        0.83280  -0.00420   0.00000  -0.00590  -0.00591   0.82690
    D2       -2.34619  -0.00277   0.00000  -0.00536  -0.00536  -2.35155
    D3       -2.21136  -0.00132   0.00000  -0.00477  -0.00477  -2.21613
    D4        0.89284   0.00011   0.00000  -0.00423  -0.00423   0.88861
    D5       -1.56934   0.01242   0.00000  -0.01137  -0.01137  -1.58071
    D6        3.03239  -0.00336   0.00000  -0.00169  -0.00168   3.03072
    D7        0.47362   0.00121   0.00000  -0.01994  -0.01995   0.45367
    D8        1.47513   0.00949   0.00000  -0.01312  -0.01312   1.46201
    D9       -0.20632  -0.00630   0.00000  -0.00344  -0.00343  -0.20975
   D10       -2.76509  -0.00172   0.00000  -0.02170  -0.02171  -2.78679
   D11        0.81539  -0.00294   0.00000  -0.02089  -0.02089   0.79450
   D12       -2.29949  -0.00359   0.00000  -0.02094  -0.02094  -2.32043
   D13       -2.22841  -0.00032   0.00000  -0.02030  -0.02030  -2.24871
   D14        0.93989  -0.00097   0.00000  -0.02035  -0.02035   0.91954
   D15       -3.05749   0.00040   0.00000   0.00115   0.00115  -3.05634
   D16       -0.09785   0.00082   0.00000   0.00284   0.00284  -0.09501
   D17        0.04603   0.00225   0.00000   0.00196   0.00196   0.04800
   D18        3.00567   0.00267   0.00000   0.00365   0.00365   3.00932
   D19       -1.33158  -0.00061   0.00000  -0.00601  -0.00605  -1.33762
   D20        2.68457  -0.00043   0.00000  -0.00123  -0.00122   2.68334
   D21        0.85062  -0.00090   0.00000  -0.01038  -0.01034   0.84027
   D22        0.76905  -0.00024   0.00000  -0.00522  -0.00528   0.76377
   D23       -1.49799  -0.00006   0.00000  -0.00043  -0.00046  -1.49845
   D24        2.95124  -0.00053   0.00000  -0.00959  -0.00958   2.94166
   D25        2.68774   0.00093   0.00000  -0.00475  -0.00477   2.68297
   D26        0.42070   0.00112   0.00000   0.00003   0.00006   0.42075
   D27       -1.41325   0.00065   0.00000  -0.00913  -0.00907  -1.42232
   D28        3.10565  -0.00200   0.00000   0.00096   0.00093   3.10658
   D29       -0.93758  -0.00227   0.00000  -0.00504  -0.00509  -0.94266
   D30        0.97477   0.00359   0.00000   0.01157   0.01165   0.98641
   D31       -1.07834  -0.00101   0.00000   0.00338   0.00335  -1.07499
   D32        1.16162  -0.00128   0.00000  -0.00262  -0.00267   1.15895
   D33        3.07396   0.00459   0.00000   0.01400   0.01406   3.08802
   D34        1.00660  -0.00258   0.00000  -0.00379  -0.00382   1.00278
   D35       -3.03663  -0.00285   0.00000  -0.00979  -0.00983  -3.04646
   D36       -1.12428   0.00301   0.00000   0.00682   0.00690  -1.11738
   D37       -3.12196  -0.00055   0.00000   0.00159   0.00159  -3.12037
   D38        0.02977  -0.00080   0.00000  -0.00136  -0.00136   0.02842
   D39       -0.00647   0.00020   0.00000   0.00177   0.00177  -0.00470
   D40       -3.13792  -0.00005   0.00000  -0.00118  -0.00118  -3.13910
   D41        3.12338   0.00092   0.00000   0.00097   0.00097   3.12435
   D42       -0.01204   0.00097   0.00000  -0.00019  -0.00019  -0.01223
   D43        0.00806   0.00023   0.00000   0.00096   0.00096   0.00903
   D44       -3.12735   0.00028   0.00000  -0.00020  -0.00020  -3.12755
   D45        0.00195  -0.00041   0.00000  -0.00281  -0.00281  -0.00086
   D46       -3.13654  -0.00020   0.00000  -0.00280  -0.00280  -3.13934
   D47        3.13351  -0.00019   0.00000   0.00009   0.00009   3.13360
   D48       -0.00498   0.00002   0.00000   0.00009   0.00010  -0.00489
   D49        0.00112   0.00022   0.00000   0.00109   0.00109   0.00221
   D50       -3.13986   0.00004   0.00000   0.00037   0.00037  -3.13949
   D51        3.13960   0.00000   0.00000   0.00108   0.00108   3.14068
   D52       -0.00138  -0.00018   0.00000   0.00036   0.00036  -0.00102
   D53        0.00047   0.00020   0.00000   0.00164   0.00164   0.00210
   D54        3.14035  -0.00034   0.00000   0.00021   0.00021   3.14056
   D55        3.14145   0.00038   0.00000   0.00235   0.00235  -3.13938
   D56       -0.00186  -0.00016   0.00000   0.00093   0.00093  -0.00093
   D57       -0.00514  -0.00044   0.00000  -0.00268  -0.00268  -0.00782
   D58        3.13036  -0.00051   0.00000  -0.00155  -0.00155   3.12881
   D59        3.13817   0.00009   0.00000  -0.00126  -0.00126   3.13691
   D60       -0.00952   0.00003   0.00000  -0.00013  -0.00013  -0.00965
   D61       -0.68225  -0.00057   0.00000  -0.00075  -0.00075  -0.68300
   D62        1.41121  -0.00077   0.00000  -0.00142  -0.00143   1.40978
   D63       -2.78655   0.00156   0.00000   0.00108   0.00109  -2.78547
   D64        2.64160  -0.00046   0.00000  -0.00206  -0.00206   2.63954
   D65       -1.54813  -0.00066   0.00000  -0.00273  -0.00274  -1.55087
   D66        0.53729   0.00167   0.00000  -0.00022  -0.00022   0.53707
         Item               Value     Threshold  Converged?
 Maximum Force            0.040991     0.000450     NO 
 RMS     Force            0.005377     0.000300     NO 
[...]
   A30        2.08821  -0.00019   0.00000  -0.00179  -0.00181   2.08640
   A31        2.09845  -0.00001   0.00000  -0.00002  -0.00004   2.09842
   A32        2.08873  -0.00002   0.00000  -0.00027  -0.00026   2.08847
   A33        2.09597   0.00003   0.00000   0.00030   0.00031   2.09628
   A34        2.08745  -0.00006   0.00000  -0.00101  -0.00103   2.08641
   A35        2.09773  -0.00000   0.00000   0.00056   0.00057   2.09830
   A36        2.09798   0.00006   0.00000   0.00046   0.00047   2.09844
   A37        2.09798   0.00008   0.00000   0.00094   0.00092   2.09889
   A38        2.09696  -0.00008   0.00000  -0.00041  -0.00041   2.09655
   A39        2.08821  -0.00000   0.00000  -0.00056  -0.00055   2.08766
   A40        2.10771   0.00005   0.00000   0.00101   0.00099   2.10870
   A41        2.08463  -0.00003   0.00000   0.00139   0.00139   2.08602
   A42        2.09068  -0.00002   0.00000  -0.00229  -0.00228   2.08839
   A43        2.12958  -0.00019   0.00000  -0.00777  -0.00782   2.12176
   A44        2.06159   0.00010   0.00000   0.00324   0.00318   2.06477
   A45        2.08284   0.00011   0.00000   0.00215   0.00209   2.08494
   A46        1.90544  -0.00002   0.00000   0.00234   0.00234   1.90778
   A47        1.95591   0.00008   0.00000   0.00017   0.00017   1.95608
   A48        1.91431  -0.00004   0.00000  -0.00084  -0.00084   1.91346
   A49        1.88350  -0.00002   0.00000  -0.00251  -0.00251   1.88099
   A50        1.90494  -0.00000   0.00000  -0.00001  -0.00001   1.90493
   A51        1.89896  -0.00001   0.00000   0.00084   0.00084   1.89980
    D1        0.84259   0.00082   0.00000  -0.01020  -0.01020   0.83239
    D2       -2.32034   0.00100   0.00000  -0.01439  -0.01438  -2.33472
    D3       -2.24288  -0.00011   0.00000  -0.01000  -0.01001  -2.25288
    D4        0.87738   0.00008   0.00000  -0.01419  -0.01419   0.86319
    D5       -1.27433  -0.00050   0.00000  -0.03354  -0.03350  -1.30783
    D6       -3.01736  -0.00141   0.00000  -0.00261  -0.00263  -3.02000
    D7        0.14205   0.00052   0.00000   0.00391   0.00389   0.14594
    D8        1.80978   0.00038   0.00000  -0.03399  -0.03396   1.77583
    D9        0.06675  -0.00053   0.00000  -0.00306  -0.00308   0.06366
   D10       -3.05703   0.00140   0.00000   0.00346   0.00344  -3.05358
   D11        0.65965  -0.00024   0.00000  -0.08273  -0.08274   0.57691
   D12       -2.48896   0.00008   0.00000  -0.07701  -0.07701  -2.56597
   D13       -2.42749  -0.00109   0.00000  -0.08175  -0.08176  -2.50925
   D14        0.70709  -0.00076   0.00000  -0.07603  -0.07603   0.63106
   D15       -3.06581  -0.00009   0.00000   0.00273   0.00274  -3.06308
   D16       -0.07033   0.00014   0.00000  -0.01593  -0.01593  -0.08625
   D17        0.05446   0.00011   0.00000  -0.00146  -0.00146   0.05300
   D18        3.04994   0.00034   0.00000  -0.02012  -0.02012   3.02982
   D19       -0.84412  -0.00068   0.00000  -0.02545  -0.02514  -0.86926
   D20        2.52405  -0.00072   0.00000   0.01497   0.01478   2.53883
   D21        0.98116  -0.00049   0.00000  -0.02155  -0.02106   0.96010
   D22        1.26149   0.00024   0.00000  -0.01656  -0.01649   1.24500
   D23       -1.65352   0.00019   0.00000   0.02386   0.02343  -1.63009
   D24        3.08678   0.00043   0.00000  -0.01266  -0.01241   3.07437
   D25       -3.05934  -0.00003   0.00000  -0.01717  -0.01723  -3.07657
   D26        0.30884  -0.00007   0.00000   0.02325   0.02268   0.33152
   D27       -1.23405   0.00016   0.00000  -0.01327  -0.01315  -1.24720
   D28        2.30630   0.00001   0.00000   0.04432   0.04469   2.35100
   D29       -0.98965  -0.00005   0.00000   0.01034   0.00999  -0.97966
   D30        1.07348  -0.00002   0.00000   0.01362   0.01360   1.08708
   D31       -1.84391  -0.00011   0.00000   0.04051   0.04088  -1.80303
   D32        1.14332  -0.00017   0.00000   0.00653   0.00618   1.14950
   D33       -3.07674  -0.00014   0.00000   0.00982   0.00979  -3.06695
   D34        0.19658  -0.00035   0.00000   0.03882   0.03919   0.23577
   D35       -3.09937  -0.00040   0.00000   0.00484   0.00449  -3.09489
   D36       -1.03625  -0.00037   0.00000   0.00812   0.00810  -1.02815
   D37        3.10760   0.00040   0.00000   0.02003   0.02002   3.12762
   D38       -0.00992   0.00010   0.00000   0.00540   0.00538  -0.00453
   D39       -0.02717   0.00008   0.00000   0.01445   0.01445  -0.01273
   D40        3.13850  -0.00021   0.00000  -0.00018  -0.00019   3.13831
   D41       -3.10707  -0.00031   0.00000  -0.00712  -0.00712  -3.11419
   D42        0.05424  -0.00035   0.00000  -0.01348  -0.01349   0.04075
   D43        0.02763   0.00001   0.00000  -0.00150  -0.00150   0.02614
   D44       -3.09425  -0.00003   0.00000  -0.00786  -0.00786  -3.10211
   D45        0.00926  -0.00009   0.00000  -0.01463  -0.01463  -0.00537
   D46       -3.12379  -0.00017   0.00000  -0.01681  -0.01681  -3.14061
   D47        3.12677   0.00020   0.00000   0.00003   0.00002   3.12678
   D48       -0.00629   0.00012   0.00000  -0.00215  -0.00216  -0.00845
   D49        0.00877   0.00001   0.00000   0.00164   0.00163   0.01040
   D50       -3.14067  -0.00002   0.00000   0.00177   0.00177  -3.13890
   D51       -3.14140   0.00009   0.00000   0.00383   0.00382  -3.13758
   D52       -0.00765   0.00006   0.00000   0.00396   0.00396  -0.00369
   D53       -0.00832   0.00009   0.00000   0.01126   0.01126   0.00293
   D54        3.12340   0.00001   0.00000   0.00742   0.00742   3.13082
   D55        3.14112   0.00012   0.00000   0.01112   0.01111  -3.13095
   D56       -0.01034   0.00004   0.00000   0.00728   0.00728  -0.00307
   D57       -0.01018  -0.00010   0.00000  -0.01136  -0.01136  -0.02154
   D58        3.11163  -0.00006   0.00000  -0.00494  -0.00495   3.10668
   D59        3.14123  -0.00002   0.00000  -0.00754  -0.00754   3.13369
   D60       -0.02014   0.00002   0.00000  -0.00112  -0.00113  -0.02127
   D61       -0.63118   0.00023   0.00000  -0.05056  -0.05056  -0.68174
   D62        1.45446   0.00025   0.00000  -0.05205  -0.05205   1.40241
   D63       -2.71768   0.00027   0.00000  -0.05146  -0.05146  -2.76914
   D64        2.65824  -0.00000   0.00000  -0.03176  -0.03176   2.62648
   D65       -1.53930   0.00001   0.00000  -0.03325  -0.03325  -1.57255
   D66        0.57174   0.00003   0.00000  -0.03266  -0.03266   0.53909
         Item               Value     Threshold  Converged?
 Maximum Force            0.004825     0.000450     NO 
 RMS     Force            0.000584     0.000300     NO 
 Maximum Displacement     0.414490     0.001800     NO 
 RMS     Displacement     0.091951     0.001200     NO 
 Predicted change in Energy=-6.296434D-04
 GradGradGradGradGradGradGradGradGradGradGradGradGradGradGradGradGradGrad

                          Input orientation:                          
 ---------------------------------------------------------------------
 Center     Atomic      Atomic             Coordinates (Angstroms)
 Number     Number       Type             X           Y           Z
 ---------------------------------------------------------------------
      1          6           0        0.070206    0.107839   -0.545966
      2          6           0       -0.428220    1.248338    0.311136
      3          8           0       -1.322199    1.112145    1.128254
      4          6           0       -0.768673   -0.702824   -1.205294
      5          6           0       -0.194002   -2.394969    2.214682
      6          1           0       -0.144864   -2.136708    3.293410
      7          1           0        0.002132   -3.476427    2.130290
      8          1           0        0.649562   -1.885447    1.721920
      9          7           0       -1.426474   -2.053509    1.536601
     10          1           0       -2.226114   -2.477455    2.000484
     11          1           0       -1.575476   -1.043002    1.551743
     12          1           0       -0.403471   -1.587575   -1.728110
     13         35           0       -2.614747   -0.470903   -1.381432
     14          6           0        1.536133   -0.136999   -0.579200
     15          6           0        2.320522    0.113129    0.559186
     16          6           0        3.691287   -0.127159    0.547648
     17          6           0        4.306758   -0.628505   -0.599276
     18          6           0        3.541595   -0.875396   -1.737718
     19          6           0        2.172171   -0.620140   -1.731996
     20          1           0        1.847517    0.492975    1.468606
     21          1           0        4.282634    0.073194    1.443634
     22          1           0        5.381860   -0.819369   -0.607391
     23          1           0        4.015408   -1.258410   -2.644134
     24          1           0        1.587682   -0.786169   -2.639633
     25          7           0        0.215786    2.427020    0.123994
     26          6           0       -0.078001    3.585655    0.933631
     27          1           0        1.012246    2.444668   -0.499248
     28          1           0       -1.159260    3.635563    1.117142
     29          1           0        0.428286    3.546286    1.912944
     30          1           0        0.239887    4.494163    0.406383
 ---------------------------------------------------------------------
                    Distance matrix (angstroms):
                    1          2          3          4          5
     1  C    0.000000
     2  C    1.511222   0.000000
     3  O    2.398007   1.218782   0.000000
     4  C    1.340002   2.494494   3.007649   0.000000
     5  C    3.735643   4.117284   3.840964   3.858735   0.000000
     6  H    4.452534   4.520264   4.077875   4.762719   1.110300
     7  H    4.473695   5.081135   4.879849   4.406033   1.102335
     8  H    3.074435   3.601740   3.636735   3.461007   1.101829
     9  N    3.353888   3.660665   3.193586   3.126506   1.447542
    10  H    4.294327   4.468541   3.803036   3.943407   2.045034
    11  H    2.903979   2.847024   2.210917   2.892733   2.043471
    12  H    2.120439   3.493070   4.036257   1.090639   4.030059
    13  Br   2.870874   3.255990   3.236548   1.868903   4.742791
    14  C    1.486604   2.563307   3.556097   2.454442   3.987176
    15  C    2.507052   2.984260   3.819854   3.649972   3.918425
    16  C    3.789913   4.349513   5.196924   4.826535   4.797649
    17  C    4.300397   5.174109   6.139982   5.112023   5.594247
    18  C    3.799679   4.946461   5.985032   4.346454   5.646703
    19  C    2.520888   3.798372   4.836576   2.988782   4.932044
    20  H    2.713976   2.662572   3.247508   3.927356   3.614505
    21  H    4.658782   4.985545   5.709031   5.756277   5.169778
    22  H    5.392323   6.235073   7.189410   6.180625   6.444908
    23  H    4.672639   5.896035   6.952733   5.026566   6.528322
    24  H    2.735950   4.112191   5.125230   2.759835   5.415442
    25  N    2.418397   1.356119   2.258945   3.540070   5.271668
    26  C    3.782377   2.444014   2.775636   4.841805   6.117385
    27  H    2.519999   2.040311   3.142294   3.684682   5.678251
    28  H    4.089297   2.623529   2.528697   4.936382   6.205129
    29  H    4.242332   2.929157   3.099190   5.404726   5.981371
    30  H    4.491726   3.315241   3.794635   5.533839   7.135709
                    6          7          8          9         10
     6  H    0.000000
     7  H    1.780253   0.000000
     8  H    1.778714   1.765546   0.000000
     9  N    2.176195   2.101922   2.091057   0.000000
    10  H    2.473736   2.445378   2.949167   1.017026   0.000000
    11  H    2.505244   2.957215   2.385261   1.021545   1.637789
    12  H    5.058071   4.315035   3.619436   3.452820   4.244565
    13  Br   5.543408   5.311630   4.720958   3.525840   3.951537
    14  C    4.671370   4.565773   3.022951   4.114204   5.127086
    15  C    4.314611   4.552825   2.852781   4.437301   5.427741
    16  C    5.127724   5.228023   3.704400   5.557008   6.530717
    17  C    6.102837   5.838750   4.510315   6.281923   7.270199
    18  C    6.363421   5.852747   4.620947   6.065544   7.057423
    19  C    5.737886   5.271119   3.981065   5.068384   6.060193
    20  H    3.770242   4.427124   2.675099   4.148280   5.069598
    21  H    5.282809   5.603035   4.136777   6.093064   7.012824
    22  H    6.891756   6.595175   5.381157   7.243840   8.211670
    23  H    7.302992   6.619751   5.548380   6.908314   7.874969
    24  H    6.326663   5.701195   4.594739   5.303982   6.239886
    25  N    5.568023   6.238715   4.619405   4.976708   5.791198
    26  C    6.190191   7.163199   5.575276   5.829419   6.520266
    27  H    6.059056   6.556994   4.880064   5.506872   6.400229
    28  H    6.251740   7.277067   5.841159   5.710769   6.267971
    29  H    5.876276   7.038988   5.439593   5.910963   6.583234
    30  H    7.242335   8.158351   6.526706   6.850268   7.564773
                   11         12         13         14         15
    11  H    0.000000
    12  H    3.525279   0.000000
    13  Br   3.164000   2.501376   0.000000
    14  C    3.878644   2.680715   4.240857   0.000000
    15  C    4.183373   3.942621   5.335163   1.404903   0.000000
    16  C    5.439280   4.907029   6.603451   2.431989   1.391714
    17  C    6.276892   4.937645   6.967340   2.813955   2.416028
    18  C    6.085480   4.008844   6.179894   2.430899   2.782799
    19  C    5.000662   2.751341   4.802057   1.402465   2.410230
    20  H    3.752735   4.428841   5.381781   2.165026   1.093189
    21  H    5.964481   5.897261   7.473345   3.417499   2.152609
    22  H    7.288100   5.942744   8.041535   3.905897   3.406207
    23  H    6.993552   4.524814   6.795111   3.415892   3.874922
    24  H    5.257297   2.331913   4.398053   2.160894   3.402681
    25  N    4.157902   4.464386   4.321595   2.968500   3.158069
    26  C    4.903974   5.826929   5.315096   4.330385   4.236928
    27  H    4.802782   4.446723   4.736441   2.635499   2.875403
    28  H    4.717105   5.995652   5.022386   4.937098   4.982744
    29  H    5.020667   6.348672   6.020861   4.583088   4.147262
    30  H    5.938653   6.477462   5.999758   4.909103   4.852407
                   16         17         18         19         20
    16  C    0.000000
    17  C    1.394843   0.000000
    18  C    2.409391   1.393729   0.000000
    19  C    2.783437   2.416523   1.393022   0.000000
    20  H    2.152259   3.403193   3.875933   3.404157   0.000000
    21  H    1.092073   2.160195   3.401465   3.875486   2.471161
    22  H    2.161321   1.091943   2.160406   3.406836   4.303905
    23  H    3.401802   2.159423   1.092149   2.153347   4.968072
    24  H    3.875333   3.403129   2.153877   1.092244   4.310609
    25  N    4.333869   5.157073   5.043107   4.069070   2.865494
    26  C    5.304857   6.271767   6.335500   5.464207   3.682185
    27  H    3.858438   4.506463   4.353647   3.501164   2.894690
    28  H    6.165242   7.141829   7.113157   6.109585   4.363495
    29  H    5.099550   6.227574   6.524668   5.803950   3.396227
    30  H    5.769639   6.617592   6.658124   5.870476   4.440979
                   21         22         23         24         25
    21  H    0.000000
    22  H    2.492322   0.000000
    23  H    4.307485   2.491640   0.000000
    24  H    4.967327   4.304287   2.473233   0.000000
    25  N    4.880697   6.145103   5.973446   4.454697   0.000000
    26  C    5.622511   7.182553   7.281577   5.886897   1.443695
    27  H    4.482646   5.455196   5.228031   3.917995   1.011479
    28  H    6.512394   8.099795   8.054524   6.419561   2.082707
    29  H    5.209474   7.067456   7.531236   6.390644   2.120909
    30  H    6.079857   7.463327   7.526773   6.243130   2.086481
                   26         27         28         29         30
    26  C    0.000000
    27  H    2.131579   0.000000
    28  H    1.097856   2.957428   0.000000
    29  H    1.103146   2.715371   1.778082   0.000000
    30  H    1.097466   2.370050   1.788850   1.789886   0.000000
 Stoichiometry    C11H15BrN2O
 Framework group  C1[X(C11H15BrN2O)]
 Deg. of freedom    84
 Full point group                 C1      NOp   1
 Largest Abelian subgroup         C1      NOp   1
 Largest concise Abelian subgroup C1      NOp   1
                         Standard orientation:                         
 ---------------------------------------------------------------------
 Center     Atomic      Atomic             Coordinates (Angstroms)
 Number     Number       Type             X           Y           Z
 ---------------------------------------------------------------------
      1          6           0        0.053947    0.082156   -0.363666
      2          6           0       -0.365950    1.412451    0.217533
      3          8           0       -1.217672    1.509771    1.083862
      4          6           0       -0.841266   -0.828257   -0.770294
      5          6           0       -0.128313   -1.680260    2.925058
      6          1           0       -0.013705   -1.175127    3.907133
      7          1           0        0.033375   -2.757652    3.093069
      8          1           0        0.700868   -1.336160    2.286245
      9          7           0       -1.385976   -1.461429    2.242582
     10          1           0       -2.170545   -1.731072    2.830873
     11          1           0       -1.506311   -0.471219    2.022222
     12          1           0       -0.529237   -1.825622   -1.082373
     13         35           0       -2.687160   -0.572216   -0.911426
     14          6           0        1.508687   -0.221194   -0.404947
     15          6           0        2.360203    0.261225    0.602995
     16          6           0        3.721256   -0.028798    0.586057
     17          6           0        4.259700   -0.812282   -0.434638
     18          6           0        3.427460   -1.292331   -1.444295
     19          6           0        2.067837   -0.989217   -1.436644
     20          1           0        1.947764    0.864714    1.415865
     21          1           0        4.365580    0.355307    1.379741
     22          1           0        5.327171   -1.041861   -0.446439
     23          1           0        3.840781   -1.898212   -2.253531
     24          1           0        1.430664   -1.343049   -2.250161
     25          7           0        0.298876    2.486516   -0.275875
     26          6           0        0.081160    3.815057    0.245503
     27          1           0        1.060541    2.324077   -0.921297
     28          1           0       -0.986788    3.949768    0.461437
     29          1           0        0.638561    3.989667    1.181317
     30          1           0        0.394649    4.558927   -0.498011
 ---------------------------------------------------------------------
 Rotational constants (GHZ):           0.5419452           0.2861791           0.2630013
 Standard basis: STO-3G (5D, 7F)
 There are   104 symmetry adapted cartesian basis functions of A   symmetry.
 There are   103 symmetry adapted basis functions of A   symmetry.
   103 basis functions,   312 primitive gaussians,   104 cartesian basis functions
    69 alpha electrons       69 beta electrons
       nuclear repulsion energy      1327.0002770189 Hartrees.
 NAtoms=   30 NActive=   30 NUniq=   30 SFac= 1.00D+00 NAtFMM=   60 NAOKFM=F Big=F
 Integral buffers will be    131072 words long.
 Raffenetti 1 integral format.
 Two-electron integral symmetry is turned on.
 External calculation of energy, first and second derivatives.
 Running external command "~/scripts/MiMe -H 'pbepbe def2svp' -EF 'wb97xd def2svp' -c 12 -m 48GB R"
         input file       "/local/jobs/1158159/Gau-2795322.EIn"
         output file      "/local/jobs/1158159/Gau-2795322.EOu"
         message file     "/local/jobs/1158159/Gau-2795322.EMs"
         fchk file        "/local/jobs/1158159/Gau-2795322.EFC"
         mat. el file     "/local/jobs/1158159/Gau-2795322.EUF"
