Unloading slurm/anatra/current
  ERROR: No such file or directory on
    '/cm/local/modulefiles/slurm/anatra/current'
environment: line 0: unalias: gv: not found
environment: line 0: unalias: sl: not found
 Entering Gaussian System, Link 0=g16
 Initial command:
 /apps/gaussian/g16/C.01/g16/l1.exe "/local/jobs/1158943/Gau-1424901.inp" -scrdir="/local/jobs/1158943/"
 Entering Link 1 = /apps/gaussian/g16/C.01/g16/l1.exe PID=   1424902.
  
 Copyright (c) 1988-2019, Gaussian, Inc.  All Rights Reserved.
  
 This is part of the Gaussian(R) 16 program.  It is based on
 the Gaussian(R) 09 system (copyright 2009, Gaussian, Inc.),
 the Gaussian(R) 03 system (copyright 2003, Gaussian, Inc.),
 the Gaussian(R) 98 system (copyright 1998, Gaussian, Inc.),
 the Gaussian(R) 94 system (copyright 1995, Gaussian, Inc.),
 the Gaussian 92(TM) system (copyright 1992, Gaussian, Inc.),
 the Gaussian 90(TM) system (copyright 1990, Gaussian, Inc.),
 the Gaussian 88(TM) system (copyright 1988, Gaussian, Inc.),
 the Gaussian 86(TM) system (copyright 1986, Carnegie Mellon
 University), and the Gaussian 82(TM) system (copyright 1983,
 Carnegie Mellon University). Gaussian is a federally registered
 trademark of Gaussian, Inc.
  
 This software contains proprietary and confidential information,
 including trade secrets, belonging to Gaussian, Inc.
  
 This software is provided under written license and may be
 used, copied, transmitted, or stored only in accord with that
 written license.
  
 The following legend is applicable only to US Government
 contracts under FAR:
  
                    RESTRICTED RIGHTS LEGEND
  
 Use, reproduction and disclosure by the US Government is
 subject to restrictions as set forth in subparagraphs (a)
 and (c) of the Commercial Computer Software - Restricted
 Rights clause in FAR 52.227-19.
  
 Gaussian, Inc.
 340 Quinnipiac St., Bldg. 40, Wallingford CT 06492
  
  
 ---------------------------------------------------------------
 Warning -- This program may not be used in any manner that
 competes with the business of Gaussian, Inc. or will provide
 assistance to any competitor of Gaussian, Inc.  The licensee
 of this program is prohibited from giving any competitor of
 Gaussian, Inc. access to this program.  By using this program,
 the user acknowledges that Gaussian, Inc. is engaged in the
 business of creating and licensing software in the field of
 computational chemistry and represents and warrants to the
 licensee that it is not a competitor of Gaussian, Inc. and that
 it will not use this program in any manner prohibited above.
 ---------------------------------------------------------------
  

 Cite this work as:
 Gaussian 16, Revision C.01,
 M. J. Frisch, G. W. Trucks, H. B. Schlegel, G. E. Scuseria, 
 M. A. Robb, J. R. Cheeseman, G. Scalmani, V. Barone, 
 G. A. Petersson, H. Nakatsuji, X. Li, M. Caricato, A. V. Marenich, 
 J. Bloino, B. G. Janesko, R. Gomperts, B. Mennucci, H. P. Hratchian, 
 J. V. Ortiz, A. F. Izmaylov, J. L. Sonnenberg, D. Williams-Young, 
 F. Ding, F. Lipparini, F. Egidi, J. Goings, B. Peng, A. Petrone, 
 T. Henderson, D. Ranasinghe, V. G. Zakrzewski, J. Gao, N. Rega, 
 G. Zheng, W. Liang, M. Hada, M. Ehara, K. Toyota, R. Fukuda, 
 J. Hasegawa, M. Ishida, T. Nakajima, Y. Honda, O. Kitao, H. Nakai, 
 T. Vreven, K. Throssell, J. A. Montgomery, Jr., J. E. Peralta, 
 F. Ogliaro, M. J. Bearpark, J. J. Heyd, E. N. Brothers, K. N. Kudin, 
 V. N. Staroverov, T. A. Keith, R. Kobayashi, J. Normand, 
 K. Raghavachari, A. P. Rendell, J. C. Burant, S. S. Iyengar, 
 J. Tomasi, M. Cossi, J. M. Millam, M. Klene, C. Adamo, R. Cammi, 
 J. W. Ochterski, R. L. Martin, K. Morokuma, O. Farkas, 
 J. B. Foresman, and D. J. Fox, Gaussian, Inc., Wallingford CT, 2019.
 
 ******************************************
 Gaussian 16:  ES64L-G16RevC.01  3-Jul-2019
                22-Jan-2024 
 ******************************************
 %nprocshared=12
 Will use up to   12 processors via shared memory.
 %mem=48GB
 ----------------------------------------------------------------------
 # external="~/scripts/MiMe -H 'pbepbe def2svp' -EF 'wb97xd def2svp' -c
  12 -m 48GB" opt=(calcall,ts,noeigen,maxcycles=50,maxstep=10,nomicro)
 ----------------------------------------------------------------------
 1/5=1,6=50,8=10,10=4,11=1,18=20,26=1,38=1/1,3;
 2/9=110,12=2,17=6,18=5,40=1/2;
 3/11=9,25=1,30=1,41=9900000,43=2,71=2,140=1/1;
 4/20=17,22=2,24=3,113=1,114=1/2;
 6/7=2,8=2,9=2,10=2,18=1/1;
 7/25=1,44=-1/16;
 1/5=1,6=50,8=10,10=4,11=1,18=20,26=1/3(3);
 2/9=110/2;
 7/8=1,9=1,25=1,44=-1/16;
 99//99;
 2/9=110/2;
 3/11=9,25=1,30=1,41=9900000,43=2,71=2,140=1/1;
 4/16=2,20=17,22=2,24=3,113=1,114=1/2;
 7/25=1,44=-1/16;
 1/5=1,6=50,8=10,10=4,11=1,18=20,26=1/3(-4);
 2/9=110/2;
 6/7=2,8=2,9=2,10=2,18=1/1;
 7/8=1,9=1,25=1,44=-1/16;
 99//99;
 ---------
 TS-68.out
 ---------
 Symbolic Z-matrix:
 Charge =  0 Multiplicity = 1
 C                    -0.74249  -0.12132   0.22248 
 C                    -2.09729   0.30804   0.69467 
 O                    -2.30169   1.18952   1.52012 
 C                     0.23569   0.82708   0.28242 
 C                    -1.12249   3.02777  -1.33601 
 H                    -0.92798   3.59591  -2.25016 
 H                    -2.10314   2.55168  -1.41988 
 H                    -1.13854   3.71741  -0.4876 
 N                    -0.08065   2.0099   -1.1377 
 H                    -0.07122   1.43807  -1.98871 
 H                     0.8163    2.51011  -1.18421 
 C                     1.69287   0.45967   0.25094 
 C                     2.32299  -0.06152  -0.88807 
 C                     3.68719  -0.36217  -0.87152 
 C                     4.43783  -0.13667   0.28037 
 C                     3.82677   0.39194   1.41535 
 C                     2.46265   0.69229   1.39956 
 H                     1.75802  -0.23854  -1.79909 
 H                     4.16255  -0.77282  -1.75836 
 H                     5.49878  -0.37232   0.29348 
 H                     4.41054   0.57044   2.31459 
 H                     2.00288   1.1043    2.29536 
 H                     0.02255   1.70746   0.91213 
 Br                   -0.52741  -1.88792  -0.36586 
 O                    -3.07299  -0.40619   0.06938 
 C                    -4.39791  -0.05049   0.46209 
 H                    -5.09696  -0.68232  -0.09281 
 H                    -4.5431   -0.23106   1.53182 
 H                    -4.60411   0.99512   0.21281 
 
 Add virtual bond connecting atoms N9         and C4         Dist= 3.54D+00.

 GradGradGradGradGradGradGradGradGradGradGradGradGradGradGradGradGradGrad
 Berny optimization.
 Initialization pass.
                           ----------------------------
                           !    Initial Parameters    !
                           ! (Angstroms and Degrees)  !
 --------------------------                            --------------------------
 ! Name  Definition              Value          Derivative Info.                !
 --------------------------------------------------------------------------------
 ! R1    R(1,2)                  1.4976         calculate D2E/DX2 analytically  !
 ! R2    R(1,4)                  1.3638         calculate D2E/DX2 analytically  !
 ! R3    R(1,24)                 1.8744         calculate D2E/DX2 analytically  !
 ! R4    R(2,3)                  1.2248         calculate D2E/DX2 analytically  !
 ! R5    R(2,25)                 1.3613         calculate D2E/DX2 analytically  !
 ! R6    R(4,9)                  1.8751         calculate D2E/DX2 analytically  !
 ! R7    R(4,12)                 1.5031         calculate D2E/DX2 analytically  !
 ! R8    R(4,23)                 1.1032         calculate D2E/DX2 analytically  !
 ! R9    R(5,6)                  1.0937         calculate D2E/DX2 analytically  !
 ! R10   R(5,7)                  1.0933         calculate D2E/DX2 analytically  !
 ! R11   R(5,8)                  1.0935         calculate D2E/DX2 analytically  !
 ! R12   R(5,9)                  1.47           calculate D2E/DX2 analytically  !
 ! R13   R(9,10)                 1.0253         calculate D2E/DX2 analytically  !
 ! R14   R(9,11)                 1.0281         calculate D2E/DX2 analytically  !
 ! R15   R(12,13)                1.4022         calculate D2E/DX2 analytically  !
 ! R16   R(12,17)                1.4021         calculate D2E/DX2 analytically  !
 ! R17   R(13,14)                1.397          calculate D2E/DX2 analytically  !
 ! R18   R(13,18)                1.0865         calculate D2E/DX2 analytically  !
 ! R19   R(14,15)                1.3933         calculate D2E/DX2 analytically  !
 ! R20   R(14,19)                1.0868         calculate D2E/DX2 analytically  !
 ! R21   R(15,16)                1.3932         calculate D2E/DX2 analytically  !
 ! R22   R(15,20)                1.0869         calculate D2E/DX2 analytically  !
 ! R23   R(16,17)                1.3969         calculate D2E/DX2 analytically  !
 ! R24   R(16,21)                1.0869         calculate D2E/DX2 analytically  !
 ! R25   R(17,22)                1.0879         calculate D2E/DX2 analytically  !
 ! R26   R(25,26)                1.4269         calculate D2E/DX2 analytically  !
 ! R27   R(26,27)                1.0935         calculate D2E/DX2 analytically  !
 ! R28   R(26,28)                1.0945         calculate D2E/DX2 analytically  !
 ! R29   R(26,29)                1.0945         calculate D2E/DX2 analytically  !
 ! A1    A(2,1,4)              115.8255         calculate D2E/DX2 analytically  !
 ! A2    A(2,1,24)             118.2285         calculate D2E/DX2 analytically  !
 ! A3    A(4,1,24)             125.9393         calculate D2E/DX2 analytically  !
 ! A4    A(1,2,3)              124.7361         calculate D2E/DX2 analytically  !
 ! A5    A(1,2,25)             110.6804         calculate D2E/DX2 analytically  !
 ! A6    A(3,2,25)             124.5799         calculate D2E/DX2 analytically  !
 ! A7    A(1,4,9)              106.5222         calculate D2E/DX2 analytically  !
 ! A8    A(1,4,12)             121.6302         calculate D2E/DX2 analytically  !
 ! A9    A(1,4,23)             116.1982         calculate D2E/DX2 analytically  !
 ! A10   A(9,4,12)             107.5707         calculate D2E/DX2 analytically  !
 ! A11   A(9,4,23)              84.0482         calculate D2E/DX2 analytically  !
 ! A12   A(12,4,23)            113.2234         calculate D2E/DX2 analytically  !
 ! A13   A(6,5,7)              108.7589         calculate D2E/DX2 analytically  !
 ! A14   A(6,5,8)              108.874          calculate D2E/DX2 analytically  !
 ! A15   A(6,5,9)              110.2671         calculate D2E/DX2 analytically  !
 ! A16   A(7,5,8)              108.7228         calculate D2E/DX2 analytically  !
 ! A17   A(7,5,9)              110.1531         calculate D2E/DX2 analytically  !
 ! A18   A(8,5,9)              110.0261         calculate D2E/DX2 analytically  !
 ! A19   A(4,9,5)              131.1893         calculate D2E/DX2 analytically  !
 ! A20   A(4,9,10)             105.9768         calculate D2E/DX2 analytically  !
 ! A21   A(4,9,11)             101.1863         calculate D2E/DX2 analytically  !
 ! A22   A(5,9,10)             106.3035         calculate D2E/DX2 analytically  !
 ! A23   A(5,9,11)             105.9827         calculate D2E/DX2 analytically  !
 ! A24   A(10,9,11)            103.049          calculate D2E/DX2 analytically  !
 ! A25   A(4,12,13)            122.9243         calculate D2E/DX2 analytically  !
 ! A26   A(4,12,17)            118.3279         calculate D2E/DX2 analytically  !
 ! A27   A(13,12,17)           118.7115         calculate D2E/DX2 analytically  !
 ! A28   A(12,13,14)           120.6107         calculate D2E/DX2 analytically  !
 ! A29   A(12,13,18)           120.5314         calculate D2E/DX2 analytically  !
 ! A30   A(14,13,18)           118.8579         calculate D2E/DX2 analytically  !
 ! A31   A(13,14,15)           120.0706         calculate D2E/DX2 analytically  !
 ! A32   A(13,14,19)           119.9189         calculate D2E/DX2 analytically  !
 ! A33   A(15,14,19)           120.0105         calculate D2E/DX2 analytically  !
 ! A34   A(14,15,16)           119.9096         calculate D2E/DX2 analytically  !
 ! A35   A(14,15,20)           120.0524         calculate D2E/DX2 analytically  !
 ! A36   A(16,15,20)           120.038          calculate D2E/DX2 analytically  !
 ! A37   A(15,16,17)           120.0455         calculate D2E/DX2 analytically  !
 ! A38   A(15,16,21)           120.0501         calculate D2E/DX2 analytically  !
 ! A39   A(17,16,21)           119.9044         calculate D2E/DX2 analytically  !
 ! A40   A(12,17,16)           120.6448         calculate D2E/DX2 analytically  !
 ! A41   A(12,17,22)           120.3535         calculate D2E/DX2 analytically  !
 ! A42   A(16,17,22)           119.0005         calculate D2E/DX2 analytically  !
 ! A43   A(2,25,26)            114.0982         calculate D2E/DX2 analytically  !
 ! A44   A(25,26,27)           108.0518         calculate D2E/DX2 analytically  !
 ! A45   A(25,26,28)           110.5495         calculate D2E/DX2 analytically  !
 ! A46   A(25,26,29)           110.5106         calculate D2E/DX2 analytically  !
 ! A47   A(27,26,28)           108.4105         calculate D2E/DX2 analytically  !
 ! A48   A(27,26,29)           108.4194         calculate D2E/DX2 analytically  !
 ! A49   A(28,26,29)           110.806          calculate D2E/DX2 analytically  !
 ! D1    D(4,1,2,3)            -27.0774         calculate D2E/DX2 analytically  !
 ! D2    D(4,1,2,25)           152.2549         calculate D2E/DX2 analytically  !
 ! D3    D(24,1,2,3)           152.0325         calculate D2E/DX2 analytically  !
 ! D4    D(24,1,2,25)          -28.6351         calculate D2E/DX2 analytically  !
 ! D5    D(2,1,4,9)            -75.3285         calculate D2E/DX2 analytically  !
 ! D6    D(2,1,4,12)           161.1309         calculate D2E/DX2 analytically  !
 ! D7    D(2,1,4,23)            16.1275         calculate D2E/DX2 analytically  !
 ! D8    D(24,1,4,9)           105.64           calculate D2E/DX2 analytically  !
 ! D9    D(24,1,4,12)          -17.9006         calculate D2E/DX2 analytically  !
 ! D10   D(24,1,4,23)         -162.9039         calculate D2E/DX2 analytically  !
 ! D11   D(1,2,25,26)         -179.7276         calculate D2E/DX2 analytically  !
 ! D12   D(3,2,25,26)           -0.394          calculate D2E/DX2 analytically  !
 ! D13   D(1,4,9,5)             72.2434         calculate D2E/DX2 analytically  !
 ! D14   D(1,4,9,10)           -57.4423         calculate D2E/DX2 analytically  !
 ! D15   D(1,4,9,11)          -164.6612         calculate D2E/DX2 analytically  !
 ! D16   D(12,4,9,5)          -155.8651         calculate D2E/DX2 analytically  !
 ! D17   D(12,4,9,10)           74.4492         calculate D2E/DX2 analytically  !
 ! D18   D(12,4,9,11)          -32.7697         calculate D2E/DX2 analytically  !
 ! D19   D(23,4,9,5)           -43.3552         calculate D2E/DX2 analytically  !
 ! D20   D(23,4,9,10)         -173.0409         calculate D2E/DX2 analytically  !
 ! D21   D(23,4,9,11)           79.7403         calculate D2E/DX2 analytically  !
 ! D22   D(1,4,12,13)           68.9325         calculate D2E/DX2 analytically  !
 ! D23   D(1,4,12,17)         -113.2871         calculate D2E/DX2 analytically  !
 ! D24   D(9,4,12,13)          -54.1185         calculate D2E/DX2 analytically  !
 ! D25   D(9,4,12,17)          123.6619         calculate D2E/DX2 analytically  !
 ! D26   D(23,4,12,13)        -145.1222         calculate D2E/DX2 analytically  !
 ! D27   D(23,4,12,17)          32.6582         calculate D2E/DX2 analytically  !
 ! D28   D(6,5,9,4)            174.3827         calculate D2E/DX2 analytically  !
 ! D29   D(6,5,9,10)           -56.0457         calculate D2E/DX2 analytically  !
 ! D30   D(6,5,9,11)            53.1305         calculate D2E/DX2 analytically  !
 ! D31   D(7,5,9,4)            -65.572          calculate D2E/DX2 analytically  !
 ! D32   D(7,5,9,10)            63.9996         calculate D2E/DX2 analytically  !
 ! D33   D(7,5,9,11)           173.1758         calculate D2E/DX2 analytically  !
 ! D34   D(8,5,9,4)             54.2755         calculate D2E/DX2 analytically  !
 ! D35   D(8,5,9,10)          -176.1529         calculate D2E/DX2 analytically  !
 ! D36   D(8,5,9,11)           -66.9767         calculate D2E/DX2 analytically  !
 ! D37   D(4,12,13,14)         178.741          calculate D2E/DX2 analytically  !
 ! D38   D(4,12,13,18)          -1.2625         calculate D2E/DX2 analytically  !
 ! D39   D(17,12,13,14)          0.9687         calculate D2E/DX2 analytically  !
 ! D40   D(17,12,13,18)       -179.0348         calculate D2E/DX2 analytically  !
 ! D41   D(4,12,17,16)        -178.8208         calculate D2E/DX2 analytically  !
 ! D42   D(4,12,17,22)           1.582          calculate D2E/DX2 analytically  !
 ! D43   D(13,12,17,16)         -0.9451         calculate D2E/DX2 analytically  !
 ! D44   D(13,12,17,22)        179.4577         calculate D2E/DX2 analytically  !
 ! D45   D(12,13,14,15)         -0.4365         calculate D2E/DX2 analytically  !
 ! D46   D(12,13,14,19)        179.5331         calculate D2E/DX2 analytically  !
 ! D47   D(18,13,14,15)        179.5669         calculate D2E/DX2 analytically  !
 ! D48   D(18,13,14,19)         -0.4634         calculate D2E/DX2 analytically  !
 ! D49   D(13,14,15,16)         -0.1381         calculate D2E/DX2 analytically  !
 ! D50   D(13,14,15,20)        179.8921         calculate D2E/DX2 analytically  !
 ! D51   D(19,14,15,16)        179.8923         calculate D2E/DX2 analytically  !
 ! D52   D(19,14,15,20)         -0.0775         calculate D2E/DX2 analytically  !
 ! D53   D(14,15,16,17)          0.1618         calculate D2E/DX2 analytically  !
 ! D54   D(14,15,16,21)       -179.8899         calculate D2E/DX2 analytically  !
 ! D55   D(20,15,16,17)       -179.8684         calculate D2E/DX2 analytically  !
 ! D56   D(20,15,16,21)          0.0799         calculate D2E/DX2 analytically  !
 ! D57   D(15,16,17,12)          0.3887         calculate D2E/DX2 analytically  !
 ! D58   D(15,16,17,22)        179.9913         calculate D2E/DX2 analytically  !
 ! D59   D(21,16,17,12)       -179.5596         calculate D2E/DX2 analytically  !
 ! D60   D(21,16,17,22)          0.043          calculate D2E/DX2 analytically  !
 ! D61   D(2,25,26,27)        -179.7742         calculate D2E/DX2 analytically  !
 ! D62   D(2,25,26,28)         -61.2895         calculate D2E/DX2 analytically  !
 ! D63   D(2,25,26,29)          61.7526         calculate D2E/DX2 analytically  !
 --------------------------------------------------------------------------------
 Trust Radius=1.00D-01 FncErr=1.00D-07 GrdErr=1.00D-07 EigMax=2.50D+02 EigMin=1.00D-04
 Number of steps in this run=     50 maximum allowed number of steps=    174.
 Search for a saddle point of order  1.
 GradGradGradGradGradGradGradGradGradGradGradGradGradGradGradGradGradGrad

                          Input orientation:                          
 ---------------------------------------------------------------------
 Center     Atomic      Atomic             Coordinates (Angstroms)
 Number     Number       Type             X           Y           Z
 ---------------------------------------------------------------------
      1          6           0       -0.742490   -0.121320    0.222480
      2          6           0       -2.097290    0.308040    0.694670
      3          8           0       -2.301690    1.189520    1.520120
      4          6           0        0.235690    0.827080    0.282420
      5          6           0       -1.122490    3.027770   -1.336010
      6          1           0       -0.927980    3.595910   -2.250160
      7          1           0       -2.103140    2.551680   -1.419880
      8          1           0       -1.138540    3.717410   -0.487600
      9          7           0       -0.080650    2.009900   -1.137700
     10          1           0       -0.071220    1.438070   -1.988710
     11          1           0        0.816300    2.510110   -1.184210
     12          6           0        1.692870    0.459670    0.250940
     13          6           0        2.322990   -0.061520   -0.888070
     14          6           0        3.687190   -0.362170   -0.871520
     15          6           0        4.437830   -0.136670    0.280370
     16          6           0        3.826770    0.391940    1.415350
     17          6           0        2.462650    0.692290    1.399560
     18          1           0        1.758020   -0.238540   -1.799090
     19          1           0        4.162550   -0.772820   -1.758360
     20          1           0        5.498780   -0.372320    0.293480
     21          1           0        4.410540    0.570440    2.314590
     22          1           0        2.002880    1.104300    2.295360
     23          1           0        0.022550    1.707460    0.912130
     24         35           0       -0.527410   -1.887920   -0.365860
     25          8           0       -3.072990   -0.406190    0.069380
     26          6           0       -4.397910   -0.050490    0.462090
     27          1           0       -5.096960   -0.682320   -0.092810
     28          1           0       -4.543100   -0.231060    1.531820
     29          1           0       -4.604110    0.995120    0.212810
 ---------------------------------------------------------------------
                    Distance matrix (angstroms):
                    1          2          3          4          5
     1  C    0.000000
     2  C    1.497597   0.000000
     3  O    2.415218   1.224808   0.000000
     4  C    1.363778   2.425314   2.846324   0.000000
     5  C    3.534128   3.531406   3.595435   3.050738   0.000000
     6  H    4.468350   4.566114   4.678975   3.928678   1.093749
     7  H    3.419597   3.083063   3.246306   3.367818   1.093330
     8  H    3.923891   3.733734   3.431339   3.291724   1.093463
     9  N    2.613469   3.212592   3.559501   1.875067   1.469972
    10  H    2.787770   3.547176   4.165172   2.371821   2.014530
    11  H    3.366456   4.107105   4.333500   2.306665   2.012442
    12  C    2.503865   3.819058   4.254410   1.503115   4.127929
    13  C    3.260991   4.709619   5.362103   2.552739   4.649268
    14  C    4.569126   6.030120   6.632825   3.828674   5.902581
    15  C    5.180666   6.563323   6.979749   4.311241   6.598752
    16  C    4.750212   5.968325   6.181030   3.790611   6.246019
    17  C    3.510043   4.630072   4.791733   2.495099   5.078488
    18  H    3.217613   4.623960   5.434865   2.790290   4.379562
    19  H    5.329878   6.809641   7.509035   4.705815   6.523382
    20  H    6.246719   7.637023   8.049306   5.398037   7.619519
    21  H    5.604389   6.711546   6.787376   4.650264   7.069637
    22  H    3.651853   4.472989   4.374652   2.692905   5.162802
    23  H    2.098890   2.549389   2.457642   1.103192   2.847537
    24  Br   1.874374   2.900256   4.021893   2.893754   5.045723
    25  O    2.352833   1.361287   2.290380   3.537471   4.191856
    26  C    3.663949   2.339976   2.655408   4.719392   4.841201
    27  H    4.401765   3.255604   3.730799   5.554840   5.577340
    28  H    4.021324   2.640726   2.653696   5.051484   5.526753
    29  H    4.019781   2.643561   2.654805   4.843217   4.318818
                    6          7          8          9         10
     6  H    0.000000
     7  H    1.777859   0.000000
     8  H    1.779246   1.777224   0.000000
     9  N    2.114465   2.112727   2.111244   0.000000
    10  H    2.336379   2.385874   2.930511   1.025328   0.000000
    11  H    2.314676   2.929232   2.400883   1.028053   1.607539
    12  C    4.791697   4.645195   4.378949   2.734393   3.014185
    13  C    5.079458   5.167423   5.140319   3.182857   3.031900
    14  C    6.234328   6.505316   6.330722   4.460290   4.314467
    15  C    7.009112   7.273401   6.821995   5.199553   5.287727
    16  C    6.805074   6.918586   6.271704   4.940019   5.279805
    17  C    5.766094   5.679173   5.067671   3.826507   4.296168
    18  H    4.703304   4.778879   5.075392   2.978863   2.488593
    19  H    6.726155   7.101108   7.062475   5.112093   4.781831
    20  H    7.969956   8.323134   7.835177   6.233241   6.285762
    21  H    7.647889   7.765282   6.967638   5.844753   6.273543
    22  H    5.954814   5.723401   4.943858   4.116687   4.771430
    23  H    3.803923   3.266426   2.710585   2.074590   2.914830
    24  Br   5.812352   4.827415   5.639860   3.998541   3.728802
    25  O    5.098837   3.450724   4.588725   4.030959   4.080153
    26  C    5.717775   3.947033   5.071733   5.044132   5.190614
    27  H    6.351205   4.602481   5.931490   5.788196   5.774821
    28  H    6.482142   4.733876   5.591020   5.662305   5.931091
    29  H    5.132666   3.367997   4.462243   4.828597   5.058655
                   11         12         13         14         15
    11  H    0.000000
    12  C    2.651855   0.000000
    13  C    2.995179   1.402153   0.000000
    14  C    4.073055   2.431594   1.397035   0.000000
    15  C    4.718678   2.809145   2.417322   1.393256   0.000000
    16  C    4.506361   2.431865   2.787961   2.412040   1.393199
    17  C    3.562416   1.402142   2.412672   2.787326   2.416836
    18  H    2.969847   2.166648   1.086501   2.144147   3.393510
    19  H    4.722782   3.414035   2.155767   1.086778   2.153343
    20  H    5.693645   3.896019   3.402690   2.153877   1.086884
    21  H    5.377963   3.414184   3.874825   3.397689   2.153787
    22  H    3.935947   2.165943   3.405266   3.875121   3.395464
    23  H    2.380951   2.187263   3.414972   4.571035   4.826451
    24  Br   4.670966   3.289569   3.425379   4.510705   5.304536
    25  O    5.020246   4.847277   5.491094   6.825486   7.518615
    26  C    6.037794   6.115754   6.855184   8.200275   8.838029
    27  H    6.808040   6.893772   7.488223   8.824408   9.557678
    28  H    6.604090   6.403521   7.282019   8.575016   9.068194
    29  H    5.798940   6.319819   7.093176   8.471344   9.112749
                   16         17         18         19         20
    16  C    0.000000
    17  C    1.396883   0.000000
    18  H    3.874256   3.405042   0.000000
    19  H    3.397330   3.874102   2.463509   0.000000
    20  H    2.153672   3.402189   4.288360   2.481120   0.000000
    21  H    1.086868   2.155552   4.961116   4.295901   2.481521
    22  H    2.146730   1.087933   4.315982   4.961895   4.290600
    23  H    4.056589   2.687424   3.761580   5.515696   5.890442
    24  Br   5.227748   4.326043   3.161929   5.017791   6.248739
    25  O    7.074979   5.798219   5.182465   7.471820   8.574766
    26  C    8.291551   6.964040   6.560775   8.873198   9.903357
    27  H    9.113810   7.827159   7.078071   9.408548  10.607310
    28  H    8.393832   7.067574   7.127351   9.322399  10.118932
    29  H    8.537545   7.172111   6.785747   9.157808  10.195332
                   21         22         23         24         25
    21  H    0.000000
    22  H    2.466212   0.000000
    23  H    4.744909   2.489746   0.000000
    24  Br   6.132838   4.736860   3.855188   0.000000
    25  O    7.873881   5.744652   3.841889   2.977404   0.000000
    26  C    9.022533   6.757554   4.778430   4.363762   1.426940
    27  H    9.887241   7.700850   5.738496   4.733795   2.049148
    28  H    9.023458   6.724287   4.998703   4.740479   2.081015
    29  H    9.266161   6.928294   4.733124   5.026556   2.080522
                   26         27         28         29
    26  C    0.000000
    27  H    1.093524   0.000000
    28  H    1.094535   1.774773   0.000000
    29  H    1.094513   1.774855   1.801951   0.000000
 Stoichiometry    C11H14BrNO2
 Framework group  C1[X(C11H14BrNO2)]
 Deg. of freedom    81
 Full point group                 C1      NOp   1
 Largest Abelian subgroup         C1      NOp   1
 Largest concise Abelian subgroup C1      NOp   1
                         Standard orientation:                         
 ---------------------------------------------------------------------
 Center     Atomic      Atomic             Coordinates (Angstroms)
 Number     Number       Type             X           Y           Z
 ---------------------------------------------------------------------
      1          6           0       -0.742491   -0.121320    0.222480
      2          6           0       -2.097291    0.308039    0.694670
      3          8           0       -2.301692    1.189518    1.520120
      4          6           0        0.235689    0.827081    0.282420
      5          6           0       -1.122494    3.027770   -1.336010
      6          1           0       -0.927984    3.595910   -2.250160
      7          1           0       -2.103143    2.551679   -1.419880
      8          1           0       -1.138544    3.717410   -0.487600
      9          7           0       -0.080653    2.009901   -1.137700
     10          1           0       -0.071222    1.438071   -1.988710
     11          1           0        0.816297    2.510112   -1.184210
     12          6           0        1.692869    0.459672    0.250940
     13          6           0        2.322989   -0.061517   -0.888070
     14          6           0        3.687190   -0.362166   -0.871520
     15          6           0        4.437829   -0.136665    0.280370
     16          6           0        3.826769    0.391945    1.415350
     17          6           0        2.462649    0.692293    1.399560
     18          1           0        1.758020   -0.238538   -1.799090
     19          1           0        4.162550   -0.772815   -1.758360
     20          1           0        5.498780   -0.372314    0.293480
     21          1           0        4.410539    0.570445    2.314590
     22          1           0        2.002878    1.104303    2.295360
     23          1           0        0.022548    1.707461    0.912130
     24         35           0       -0.527409   -1.887920   -0.365860
     25          8           0       -3.072990   -0.406192    0.069380
     26          6           0       -4.397911   -0.050494    0.462090
     27          1           0       -5.096960   -0.682324   -0.092810
     28          1           0       -4.543100   -0.231064    1.531820
     29          1           0       -4.604112    0.995116    0.212810
 ---------------------------------------------------------------------
 Rotational constants (GHZ):           0.6855917           0.3044402           0.2523100
 Standard basis: STO-3G (5D, 7F)
 There are   103 symmetry adapted cartesian basis functions of A   symmetry.
 There are   102 symmetry adapted basis functions of A   symmetry.
   102 basis functions,   309 primitive gaussians,   103 cartesian basis functions
    69 alpha electrons       69 beta electrons
       nuclear repulsion energy      1360.8047526770 Hartrees.
 NAtoms=   29 NActive=   29 NUniq=   29 SFac= 1.00D+00 NAtFMM=   60 NAOKFM=F Big=F
 Integral buffers will be    131072 words long.
 Raffenetti 1 integral format.
 Two-electron integral symmetry is turned on.
 External calculation of energy, first and second derivatives.
 Running external command "~/scripts/MiMe -H 'pbepbe def2svp' -EF 'wb97xd def2svp' -c 12 -m 48GB R"
         input file       "/local/jobs/1158943/Gau-1424902.EIn"
         output file      "/local/jobs/1158943/Gau-1424902.EOu"
         message file     "/local/jobs/1158943/Gau-1424902.EMs"
         fchk file        "/local/jobs/1158943/Gau-1424902.EFC"
         mat. el file     "/local/jobs/1158943/Gau-1424902.EUF"
 Read checkpoint file Gau-1424902_H.chk type G16
 Write formatted file Gau-1424902_H.fchk

deriv: 2

spelevel: wb97xd def2svp
gradlevel: wb97xd def2svp
hesslevel: pbepbe def2svp

runspe: False
runforce: True
runfreq: True

Running Gaussian ...

Parsing files ...
SPE file: Gau-1424902_F.out
FORCE file: Gau-1424902_F.out
HESS file: Gau-1424902_H.out

 ExternalExternalExternalExternalExternalExternalExternalExternalExternalExternal
 Output from external command:
 "~/scripts/MiMe -H 'pbepbe def2svp' -EF 'wb97xd def2svp' -c 12 -m 48GB R /local/jobs/1158943/Gau-1424902.EIn /local/jobs/1158943/Gau-1424902.EOu /local/jobs/1158943/Gau-1424902.EMs /local/jobs/1158943/Gau-1424902.EFC /local/jobs/1158943/Gau-1424902.EUF"
  
 --------------------------------------------------
 Force calculation at wb97xd def2svp
 Hessian calculation at pbepbe def2svp
 ExternalExternalExternalExternalExternalExternalExternalExternalExternalExternal

 Recovered energy= -3205.96547277     dipole=      1.675600000000      4.168400000000     -3.591900000000
 Energy=    -3205.96547     NIter=   0.
 Dipole moment=       1.675600       4.168400      -3.591900
 ***** Axes restored to original set *****
 -------------------------------------------------------------------
 Center     Atomic                   Forces (Hartrees/Bohr)
 Number     Number              X              Y              Z
 -------------------------------------------------------------------
      1        6          -0.038492355    0.002670073    0.025863863
      2        6           0.020040909   -0.012283367   -0.002525487
      3        8          -0.003508266   -0.011671172   -0.021888032
      4        6           0.007640770   -0.005428505    0.029288740
      5        6          -0.001434748   -0.006167454    0.008638485
      6        1          -0.001514921    0.003871695   -0.003831131
      7        1          -0.002761072   -0.002312238    0.001222697
      8        1          -0.000676326    0.000988945    0.003450267
      9        7           0.025470826    0.033526540   -0.052571714
     10        1           0.000017963   -0.004487422    0.004762104
     11        1          -0.001019951   -0.002346320   -0.000182828
     12        6          -0.002404801    0.012181354   -0.008483250
     13        6           0.004878610    0.000253754    0.004037828
     14        6          -0.004666230    0.002427725    0.003981813
     15        6          -0.001898841   -0.000027698   -0.000548301
     16        6          -0.006553432   -0.001227725   -0.003467086
     17        6           0.005556034   -0.001556480   -0.002572592
     18        1          -0.003501407   -0.001368052   -0.002564860
     19        1           0.001227634   -0.001317876   -0.003243400
     20        1           0.003721830   -0.000702605   -0.000067207
     21        1           0.001557469    0.000743540    0.003194228
     22        1          -0.003302429    0.001513842    0.001664726
     23        1           0.000105339   -0.014294282    0.008699021
     24       35           0.003277787   -0.006085285   -0.007558830
     25        8          -0.008734406    0.015663138    0.015420911
     26        6           0.006197118   -0.006784818   -0.004122453
     27        1           0.001954736   -0.003596192   -0.003342253
     28        1          -0.000602368    0.003439736    0.003726228
     29        1          -0.000575468    0.004377151    0.003018515
 -------------------------------------------------------------------
 Cartesian Forces:  Max     0.052571714 RMS     0.011072829
 FormGI is forming the generalized inverse of G from B-inverse, IUseBI=4.

 GradGradGradGradGradGradGradGradGradGradGradGradGradGradGradGradGradGrad
 Berny optimization.
 Internal  Forces:  Max     0.040674512 RMS     0.007162675
 Search for a saddle point.
 Step number   1 out of a maximum of   50
 All quantities printed in internal units (Hartrees-Bohrs-Radians)
 Swapping is turned off.
 Second derivative matrix not updated -- analytic derivatives used.
 ITU=  0
     Eigenvalues ---   -0.05585  -0.03853  -0.01820  -0.01201  -0.00945
     Eigenvalues ---   -0.00809  -0.00458  -0.00043   0.00468   0.00571
     Eigenvalues ---    0.00741   0.01363   0.01454   0.01547   0.01797
     Eigenvalues ---    0.01975   0.02094   0.02151   0.02429   0.02608
     Eigenvalues ---    0.02736   0.03534   0.04127   0.04249   0.04445
     Eigenvalues ---    0.04966   0.06914   0.07053   0.07664   0.07679
     Eigenvalues ---    0.08323   0.08535   0.09798   0.10109   0.10171
     Eigenvalues ---    0.10832   0.11144   0.11358   0.11394   0.11908
     Eigenvalues ---    0.13642   0.14248   0.15672   0.16264   0.16533
     Eigenvalues ---    0.16681   0.17692   0.18019   0.18059   0.18191
     Eigenvalues ---    0.20061   0.22283   0.22810   0.25832   0.30012
     Eigenvalues ---    0.31939   0.32797   0.33882   0.34019   0.35119
     Eigenvalues ---    0.35271   0.35521   0.35854   0.36200   0.36549
     Eigenvalues ---    0.36894   0.37040   0.37119   0.37171   0.37267
     Eigenvalues ---    0.37382   0.40985   0.41990   0.42121   0.43198
     Eigenvalues ---    0.44685   0.47676   0.47953   0.51686   0.57554
     Eigenvalues ---    0.79712
 Eigenvectors required to have negative eigenvalues:
                          D3        D5        D6        D1        D4
   1                    0.33925   0.29878   0.29128   0.27548   0.27390
                          D7        D11       D8        D9        D2
   1                    0.26176   0.25147   0.22919   0.22169   0.21013
 RFO step:  Lambda0=3.189824263D-04 Lambda=-4.19952476D-02.
 Linear search not attempted -- option 19 set.
 Maximum step size (   0.100) exceeded in Quadratic search.
    -- Step size scaled by   0.169
 Iteration  1 RMS(Cart)=  0.03661685 RMS(Int)=  0.00081297
 Iteration  2 RMS(Cart)=  0.00128489 RMS(Int)=  0.00006540
 Iteration  3 RMS(Cart)=  0.00000142 RMS(Int)=  0.00006540
 Iteration  4 RMS(Cart)=  0.00000000 RMS(Int)=  0.00006540
 Variable       Old X    -DE/DX   Delta X   Delta X   Delta X     New X
                                 (Linear)    (Quad)   (Total)
    R1        2.83005  -0.01953   0.00000  -0.01191  -0.01191   2.81814
    R2        2.57717   0.02420   0.00000   0.00442   0.00442   2.58158
    R3        3.54205   0.00848   0.00000   0.00552   0.00552   3.54758
    R4        2.31455  -0.02256   0.00000  -0.00216  -0.00216   2.31239
    R5        2.57246  -0.01237   0.00000  -0.00493  -0.00493   2.56753
    R6        3.54336   0.04067   0.00000   0.03467   0.03467   3.57803
    R7        2.84048  -0.00772   0.00000  -0.00495  -0.00495   2.83553
    R8        2.08473  -0.00646   0.00000  -0.00290  -0.00290   2.08183
    R9        2.06689   0.00494   0.00000   0.00205   0.00205   2.06894
   R10        2.06609   0.00339   0.00000   0.00154   0.00154   2.06764
   R11        2.06634   0.00331   0.00000   0.00151   0.00151   2.06786
   R12        2.77784   0.00074   0.00000  -0.00708  -0.00708   2.77077
   R13        1.93759  -0.00145   0.00000  -0.00103  -0.00103   1.93656
   R14        1.94274  -0.00202   0.00000  -0.00171  -0.00171   1.94103
   R15        2.64969  -0.00235   0.00000  -0.00100  -0.00100   2.64868
   R16        2.64966  -0.00248   0.00000  -0.00037  -0.00037   2.64929
   R17        2.64001  -0.00293   0.00000  -0.00030  -0.00030   2.63971
   R18        2.05319   0.00419   0.00000   0.00163   0.00163   2.05482
   R19        2.63287   0.00029   0.00000   0.00035   0.00035   2.63322
   R20        2.05371   0.00368   0.00000   0.00155   0.00155   2.05526
   R21        2.63276   0.00121   0.00000   0.00021   0.00021   2.63298
   R22        2.05391   0.00378   0.00000   0.00151   0.00151   2.05542
   R23        2.63973  -0.00350   0.00000  -0.00186  -0.00186   2.63786
   R24        2.05388   0.00360   0.00000   0.00150   0.00150   2.05538
   R25        2.05590   0.00334   0.00000   0.00144   0.00144   2.05733
   R26        2.69653  -0.00731   0.00000  -0.00412  -0.00412   2.69241
   R27        2.06646   0.00252   0.00000   0.00083   0.00083   2.06729
   R28        2.06837   0.00316   0.00000   0.00160   0.00160   2.06998
   R29        2.06833   0.00360   0.00000   0.00152   0.00152   2.06985
    A1        2.02154   0.00487   0.00000  -0.00023  -0.00023   2.02131
    A2        2.06348   0.00374   0.00000   0.00563   0.00563   2.06910
    A3        2.19805  -0.00859   0.00000  -0.00539  -0.00539   2.19266
    A4        2.17706  -0.00013   0.00000  -0.00403  -0.00403   2.17302
    A5        1.93174   0.01658   0.00000   0.01378   0.01378   1.94551
    A6        2.17433  -0.01647   0.00000  -0.00976  -0.00976   2.16457
    A7        1.85916   0.01772   0.00000   0.01133   0.01140   1.87056
    A8        2.12285   0.00549   0.00000   0.01405   0.01410   2.13695
    A9        2.02804  -0.00638   0.00000  -0.01493  -0.01497   2.01307
   A10        1.87746  -0.02518   0.00000  -0.01978  -0.01982   1.85764
   A11        1.46692   0.00965   0.00000   0.00858   0.00864   1.47555
   A12        1.97612  -0.00082   0.00000  -0.00118  -0.00115   1.97497
   A13        1.89820  -0.00061   0.00000  -0.00030  -0.00029   1.89791
   A14        1.90021  -0.00074   0.00000   0.00069   0.00069   1.90090
   A15        1.92452   0.00495   0.00000   0.01020   0.01020   1.93472
   A16        1.89757   0.00008   0.00000  -0.00197  -0.00200   1.89557
   A17        1.92253  -0.00242   0.00000  -0.00509  -0.00510   1.91744
   A18        1.92032  -0.00130   0.00000  -0.00360  -0.00362   1.91670
   A19        2.28969  -0.02568   0.00000  -0.07066  -0.07065   2.21903
   A20        1.84964   0.00359   0.00000   0.02245   0.02216   1.87180
   A21        1.76603   0.00774   0.00000   0.02228   0.02233   1.78837
   A22        1.85535   0.01224   0.00000   0.01735   0.01717   1.87251
   A23        1.84975   0.00813   0.00000   0.01851   0.01864   1.86839
   A24        1.79854  -0.00250   0.00000   0.00389   0.00337   1.80191
   A25        2.14543  -0.00033   0.00000   0.00619   0.00619   2.15162
   A26        2.06521  -0.00082   0.00000  -0.00636  -0.00637   2.05884
   A27        2.07191   0.00118   0.00000   0.00028   0.00028   2.07219
   A28        2.10505  -0.00010   0.00000  -0.00122  -0.00122   2.10384
   A29        2.10367  -0.00127   0.00000  -0.00107  -0.00107   2.10260
   A30        2.07446   0.00138   0.00000   0.00228   0.00228   2.07674
   A31        2.09563   0.00012   0.00000   0.00110   0.00110   2.09672
   A32        2.09298  -0.00052   0.00000  -0.00039  -0.00039   2.09259
   A33        2.09458   0.00041   0.00000  -0.00070  -0.00070   2.09387
   A34        2.09282  -0.00128   0.00000  -0.00061  -0.00061   2.09220
   A35        2.09531   0.00057   0.00000   0.00062   0.00062   2.09593
   A36        2.09506   0.00071   0.00000  -0.00000  -0.00000   2.09506
   A37        2.09519   0.00034   0.00000  -0.00067  -0.00067   2.09452
   A38        2.09527   0.00030   0.00000   0.00109   0.00109   2.09636
   A39        2.09273  -0.00064   0.00000  -0.00042  -0.00042   2.09230
   A40        2.10565  -0.00025   0.00000   0.00112   0.00113   2.10677
   A41        2.10056  -0.00212   0.00000  -0.00356  -0.00356   2.09700
   A42        2.07695   0.00237   0.00000   0.00244   0.00244   2.07939
   A43        1.99139   0.00646   0.00000   0.00190   0.00190   1.99329
   A44        1.88586  -0.00636   0.00000  -0.00359  -0.00359   1.88227
   A45        1.92945   0.00217   0.00000   0.00056   0.00057   1.93002
   A46        1.92877   0.00191   0.00000   0.00201   0.00201   1.93078
   A47        1.89212   0.00319   0.00000   0.00329   0.00329   1.89541
   A48        1.89228   0.00330   0.00000   0.00432   0.00432   1.89660
   A49        1.93393  -0.00422   0.00000  -0.00641  -0.00641   1.92752
    D1       -0.47259   0.00571   0.00000   0.01381   0.01381  -0.45878
    D2        2.65735   0.00309   0.00000   0.01232   0.01232   2.66967
    D3        2.65347   0.00699   0.00000   0.01416   0.01416   2.66763
    D4       -0.49978   0.00437   0.00000   0.01266   0.01266  -0.48711
    D5       -1.31473  -0.01024   0.00000  -0.01587  -0.01578  -1.33052
    D6        2.81226   0.00428   0.00000  -0.00950  -0.00954   2.80272
    D7        0.28148   0.00781   0.00000  -0.00491  -0.00496   0.27652
    D8        1.84377  -0.01176   0.00000  -0.01637  -0.01628   1.82749
    D9       -0.31242   0.00275   0.00000  -0.01000  -0.01004  -0.32246
   D10       -2.84321   0.00628   0.00000  -0.00540  -0.00545  -2.84866
   D11       -3.13684  -0.00043   0.00000  -0.01071  -0.01071   3.13564
   D12       -0.00688  -0.00291   0.00000  -0.01216  -0.01215  -0.01903
   D13        1.26088  -0.00298   0.00000  -0.02234  -0.02227   1.23862
   D14       -1.00256  -0.00081   0.00000  -0.00551  -0.00535  -1.00790
   D15       -2.87388  -0.00196   0.00000  -0.02440  -0.02450  -2.89838
   D16       -2.72036  -0.00105   0.00000  -0.01042  -0.01040  -2.73076
   D17        1.29938   0.00112   0.00000   0.00641   0.00653   1.30591
   D18       -0.57194  -0.00003   0.00000  -0.01248  -0.01263  -0.58457
   D19       -0.75669   0.00051   0.00000  -0.00945  -0.00947  -0.76616
   D20       -3.02013   0.00268   0.00000   0.00738   0.00745  -3.01268
   D21        1.39173   0.00153   0.00000  -0.01152  -0.01170   1.38003
   D22        1.20310   0.00258   0.00000  -0.01141  -0.01143   1.19167
   D23       -1.97723   0.00356   0.00000  -0.00817  -0.00820  -1.98543
   D24       -0.94455  -0.00296   0.00000  -0.01970  -0.01966  -0.96421
   D25        2.15831  -0.00198   0.00000  -0.01647  -0.01643   2.14188
   D26       -2.53286  -0.00270   0.00000  -0.02046  -0.02048  -2.55334
   D27        0.56999  -0.00172   0.00000  -0.01723  -0.01725   0.55275
   D28        3.04355   0.00190   0.00000  -0.00196  -0.00202   3.04154
   D29       -0.97818  -0.00336   0.00000  -0.01722  -0.01722  -0.99540
   D30        0.92730   0.00212   0.00000   0.00173   0.00180   0.92910
   D31       -1.14445   0.00276   0.00000   0.00093   0.00086  -1.14359
   D32        1.11700  -0.00251   0.00000  -0.01433  -0.01435   1.10265
   D33        3.02249   0.00298   0.00000   0.00462   0.00467   3.02716
   D34        0.94729   0.00051   0.00000  -0.00700  -0.00705   0.94024
   D35       -3.07445  -0.00476   0.00000  -0.02226  -0.02225  -3.09670
   D36       -1.16896   0.00073   0.00000  -0.00330  -0.00323  -1.17220
   D37        3.11962   0.00083   0.00000   0.00354   0.00355   3.12317
   D38       -0.02204   0.00015   0.00000  -0.00018  -0.00017  -0.02221
   D39        0.01691  -0.00011   0.00000   0.00044   0.00044   0.01734
   D40       -3.12475  -0.00079   0.00000  -0.00329  -0.00329  -3.12803
   D41       -3.12101  -0.00110   0.00000  -0.00257  -0.00255  -3.12357
   D42        0.02761  -0.00073   0.00000  -0.00370  -0.00369   0.02392
   D43       -0.01649  -0.00019   0.00000   0.00067   0.00067  -0.01583
   D44        3.13213   0.00017   0.00000  -0.00047  -0.00047   3.13166
   D45       -0.00762   0.00024   0.00000  -0.00105  -0.00105  -0.00866
   D46        3.13344  -0.00005   0.00000  -0.00198  -0.00199   3.13146
   D47        3.13403   0.00091   0.00000   0.00262   0.00262   3.13666
   D48       -0.00809   0.00061   0.00000   0.00168   0.00168  -0.00640
   D49       -0.00241  -0.00004   0.00000   0.00052   0.00052  -0.00189
   D50        3.13971  -0.00011   0.00000   0.00026   0.00026   3.13997
   D51        3.13971   0.00025   0.00000   0.00146   0.00146   3.14118
   D52       -0.00135   0.00019   0.00000   0.00120   0.00120  -0.00015
   D53        0.00282  -0.00026   0.00000   0.00060   0.00060   0.00342
   D54       -3.13967  -0.00006   0.00000   0.00089   0.00089  -3.13878
   D55       -3.13930  -0.00020   0.00000   0.00086   0.00086  -3.13843
   D56        0.00139   0.00001   0.00000   0.00115   0.00115   0.00254
   D57        0.00678   0.00037   0.00000  -0.00121  -0.00121   0.00558
   D58        3.14144  -0.00001   0.00000  -0.00011  -0.00011   3.14134
   D59       -3.13391   0.00017   0.00000  -0.00150  -0.00150  -3.13540
   D60        0.00075  -0.00021   0.00000  -0.00040  -0.00040   0.00036
   D61       -3.13765   0.00005   0.00000  -0.00682  -0.00682   3.13871
   D62       -1.06970   0.00133   0.00000  -0.00467  -0.00467  -1.07437
   D63        1.07779  -0.00121   0.00000  -0.01104  -0.01104   1.06675
         Item               Value     Threshold  Converged?
 Maximum Force            0.040675     0.000450     NO 
 RMS     Force            0.007163     0.000300     NO 
 Maximum Displacement     0.137044     0.001800     NO 
 RMS     Displacement     0.036898     0.001200     NO 
 Predicted change in Energy=-6.790423D-03
 GradGradGradGradGradGradGradGradGradGradGradGradGradGradGradGradGradGrad

                          Input orientation:                          
 ---------------------------------------------------------------------
 Center     Atomic      Atomic             Coordinates (Angstroms)
 Number     Number       Type             X           Y           Z
 ---------------------------------------------------------------------
      1          6           0       -0.753432   -0.129635    0.193097
      2          6           0       -2.097774    0.305585    0.669850
      3          8           0       -2.288340    1.192200    1.491403
      4          6           0        0.234102    0.812131    0.257324
      5          6           0       -1.121284    3.002230   -1.309086
      6          1           0       -0.971959    3.625857   -2.196474
      7          1           0       -2.085554    2.492506   -1.395812
      8          1           0       -1.144422    3.644890   -0.423724
      9          7           0       -0.045649    2.014434   -1.178372
     10          1           0       -0.030829    1.464169   -2.042765
     11          1           0        0.842240    2.529739   -1.212249
     12          6           0        1.690944    0.453646    0.233120
     13          6           0        2.333958   -0.076276   -0.893939
     14          6           0        3.699306   -0.369404   -0.859899
     15          6           0        4.438263   -0.126729    0.296272
     16          6           0        3.813253    0.411518    1.419202
     17          6           0        2.448495    0.702846    1.386145
     18          1           0        1.776267   -0.268741   -1.807336
     19          1           0        4.185679   -0.789149   -1.737464
     20          1           0        5.501041   -0.356663    0.322455
     21          1           0        4.386876    0.604938    2.322834
     22          1           0        1.974466    1.122849    2.271665
     23          1           0        0.013099    1.684494    0.892769
     24         35           0       -0.543934   -1.894466   -0.411650
     25          8           0       -3.091301   -0.396061    0.064367
     26          6           0       -4.403231   -0.031599    0.483827
     27          1           0       -5.115869   -0.653135   -0.066263
     28          1           0       -4.530811   -0.218893    1.555514
     29          1           0       -4.603962    1.020089    0.252780
 ---------------------------------------------------------------------
                    Distance matrix (angstroms):
                    1          2          3          4          5
     1  C    0.000000
     2  C    1.491297   0.000000
     3  O    2.405991   1.223663   0.000000
     4  C    1.366115   2.421654   2.833746   0.000000
     5  C    3.492914   3.484482   3.532841   3.014505   0.000000
     6  H    4.456627   4.528518   4.610421   3.923361   1.094836
     7  H    3.342874   3.008277   3.173000   3.307163   1.094147
     8  H    3.844525   3.640843   3.315410   3.223147   1.094263
     9  N    2.641763   3.247661   3.582378   1.893414   1.466226
    10  H    2.839268   3.601785   4.202460   2.405359   2.023118
    11  H    3.404914   4.139184   4.347330   2.340866   2.021893
    12  C    2.513322   3.816679   4.238330   1.500495   4.096621
    13  C    3.273602   4.715029   5.353926   2.554226   4.646315
    14  C    4.581829   6.033396   6.619602   3.827774   5.899811
    15  C    5.192720   6.560963   6.958096   4.307893   6.578459
    16  C    4.759285   5.959278   6.151758   3.784280   6.205240
    17  C    3.516920   4.619465   4.763209   2.487914   5.029389
    18  H    3.228074   4.634058   5.434801   2.794527   4.398102
    19  H    5.343860   6.817286   7.500950   4.707254   6.536200
    20  H    6.259928   7.635525   8.027445   5.395458   7.602583
    21  H    5.612320   6.698705   6.752382   4.642714   7.019806
    22  H    3.651107   4.451614   4.334183   2.680109   5.092889
    23  H    2.090017   2.531179   2.428444   1.101657   2.805605
    24  Br   1.877296   2.902463   4.023938   2.894570   5.011623
    25  O    2.356520   1.358680   2.281173   3.543341   4.161217
    26  C    3.662673   2.337399   2.643040   4.718903   4.815583
    27  H    4.401384   3.251139   3.718401   5.556429   5.555449
    28  H    4.016558   2.641808   2.650277   5.045067   5.496039
    29  H    4.018956   2.639212   2.631713   4.842533   4.300855
                    6          7          8          9         10
     6  H    0.000000
     7  H    1.779224   0.000000
     8  H    1.781221   1.777265   0.000000
     9  N    2.119261   2.106430   2.105987   0.000000
    10  H    2.362678   2.387032   2.935459   1.024785   0.000000
    11  H    2.336984   2.933780   2.410842   1.027149   1.608554
    12  C    4.801761   4.590459   4.319118   2.728392   3.027427
    13  C    5.131420   5.136400   5.115398   3.180329   3.047128
    14  C    6.290410   6.476290   6.306068   4.450707   4.321466
    15  C    7.040326   7.230749   6.775682   5.183109   5.289124
    16  C    6.804656   6.859355   6.199162   4.920148   5.279229
    17  C    5.751405   5.612466   4.984004   3.810218   4.299312
    18  H    4.782475   4.765239   5.075560   2.987952   2.514756
    19  H    6.804719   7.086209   7.056670   5.106544   4.790573
    20  H    8.006572   8.284119   7.793034   6.216136   6.285799
    21  H    7.633296   7.699584   6.883323   5.821718   6.269996
    22  H    5.908531   5.640046   4.832523   4.096162   4.769907
    23  H    3.779240   3.208556   2.629859   2.098079   2.944118
    24  Br   5.817454   4.752967   5.571822   4.014430   3.768852
    25  O    5.077287   3.389317   4.511968   4.078098   4.155352
    26  C    5.686355   3.908424   4.996004   5.092905   5.266773
    27  H    6.326102   4.565695   5.862865   5.836081   5.852108
    28  H    6.443985   4.694815   5.505800   5.707763   6.002511
    29  H    5.097089   3.350858   4.394958   4.880075   5.136173
                   11         12         13         14         15
    11  H    0.000000
    12  C    2.668249   0.000000
    13  C    3.019579   1.401622   0.000000
    14  C    4.085585   2.430148   1.396874   0.000000
    15  C    4.718457   2.808663   2.418108   1.393442   0.000000
    16  C    4.498701   2.431617   2.788705   2.411871   1.393312
    17  C    3.559388   1.401945   2.412246   2.785491   2.415614
    18  H    3.009655   2.166237   1.087362   2.146124   3.395815
    19  H    4.740195   3.413421   2.156060   1.087596   2.153760
    20  H    5.691314   3.896334   3.404210   2.155080   1.087682
    21  H    5.363405   3.414359   3.876358   3.398807   2.155211
    22  H    3.924148   2.164228   3.404142   3.874091   3.396162
    23  H    2.415164   2.182954   3.417458   4.569295   4.818549
    24  Br   4.704895   3.305153   3.438121   4.531206   5.333698
    25  O    5.065847   4.860076   5.518518   6.853271   7.537947
    26  C    6.078824   6.118602   6.876769   8.220147   8.843995
    27  H    6.851499   6.902702   7.517828   8.855375   9.575488
    28  H    6.639666   6.396191   7.290076   8.578560   9.057509
    29  H    5.838362   6.320370   7.117001   8.491937   9.114763
                   16         17         18         19         20
    16  C    0.000000
    17  C    1.395897   0.000000
    18  H    3.875902   3.405025   0.000000
    19  H    3.397770   3.873086   2.465963   0.000000
    20  H    2.154433   3.401769   4.291582   2.482033   0.000000
    21  H    1.087661   2.155062   4.963557   4.297672   2.483457
    22  H    2.147981   1.088693   4.314401   4.961685   4.292448
    23  H    4.042125   2.671742   3.770206   5.517922   5.882949
    24  Br   5.258770   4.351176   3.158204   5.034754   6.280562
    25  O    7.082417   5.800348   5.216579   7.507033   8.596307
    26  C    8.281419   6.949802   6.594836   8.903786   9.910919
    27  H    9.114237   7.820984   7.119033   9.451466  10.628159
    28  H    8.368955   7.041946   7.147760   9.335207  10.108287
    29  H    8.519414   7.149987   6.827333   9.191964  10.198597
                   21         22         23         24         25
    21  H    0.000000
    22  H    2.467908   0.000000
    23  H    4.726568   2.462470   0.000000
    24  Br   6.167440   4.758856   3.849773   0.000000
    25  O    7.875646   5.730728   3.827827   2.993475   0.000000
    26  C    9.002950   6.723402   4.755648   4.377937   1.424760
    27  H    9.878902   7.674170   5.717567   4.750031   2.045001
    28  H    8.988471   6.680702   4.970838   4.751049   2.080167
    29  H    9.235401   6.882018   4.708320   5.041818   2.080654
                   26         27         28         29
    26  C    0.000000
    27  H    1.093965   0.000000
    28  H    1.095384   1.777925   0.000000
    29  H    1.095319   1.778627   1.799317   0.000000
 Stoichiometry    C11H14BrNO2
 Framework group  C1[X(C11H14BrNO2)]
 Deg. of freedom    81
 Full point group                 C1      NOp   1
 Largest Abelian subgroup         C1      NOp   1
 Largest concise Abelian subgroup C1      NOp   1
                         Standard orientation:                         
 ---------------------------------------------------------------------
 Center     Atomic      Atomic             Coordinates (Angstroms)
 Number     Number       Type             X           Y           Z
 ---------------------------------------------------------------------
      1          6           0       -0.750003   -0.121317    0.212452
      2          6           0       -2.092630    0.328153    0.680739
      3          8           0       -2.279839    1.232823    1.483159
      4          6           0        0.240428    0.818603    0.255644
      5          6           0       -1.109608    2.978591   -1.356528
      6          1           0       -0.959125    3.582515   -2.257248
      7          1           0       -2.075487    2.470056   -1.431532
      8          1           0       -1.130075    3.640227   -0.485189
      9          7           0       -0.036860    1.990569   -1.205391
     10          1           0       -0.024415    1.421783   -2.057748
     11          1           0        0.852556    2.502321   -1.251024
     12          6           0        1.696158    0.455248    0.238063
     13          6           0        2.336641   -0.100766   -0.877812
     14          6           0        3.701123   -0.397247   -0.838501
     15          6           0        4.441759   -0.131992    0.311619
     16          6           0        3.819303    0.432202    1.423173
     17          6           0        2.455407    0.726903    1.384883
     18          1           0        1.777621   -0.311149   -1.786433
     19          1           0        4.185503   -0.837263   -1.707194
     20          1           0        5.503858   -0.364542    0.341943
     21          1           0        4.394250    0.643282    2.321999
     22          1           0        1.983377    1.167310    2.261514
     23          1           0        0.022588    1.705110    0.872328
     24         35           0       -0.546343   -1.899387   -0.354321
     25          8           0       -3.088772   -0.383337    0.091253
     26          6           0       -4.399249   -0.005940    0.503760
     27          1           0       -5.114216   -0.637001   -0.032284
     28          1           0       -4.526516   -0.169733    1.579326
     29          1           0       -4.596986    1.041137    0.250277
 ---------------------------------------------------------------------
 Rotational constants (GHZ):           0.6851493           0.3039629           0.2518990
 Standard basis: STO-3G (5D, 7F)
 There are   103 symmetry adapted cartesian basis functions of A   symmetry.
 There are   102 symmetry adapted basis functions of A   symmetry.
   102 basis functions,   309 primitive gaussians,   103 cartesian basis functions
    69 alpha electrons       69 beta electrons
       nuclear repulsion energy      1360.2051315005 Hartrees.
 NAtoms=   29 NActive=   29 NUniq=   29 SFac= 1.00D+00 NAtFMM=   60 NAOKFM=F Big=F
 Integral buffers will be    131072 words long.
 Raffenetti 1 integral format.
 Two-electron integral symmetry is turned on.
 External calculation of energy, first and second derivatives.
 Running external command "~/scripts/MiMe -H 'pbepbe def2svp' -EF 'wb97xd def2svp' -c 12 -m 48GB R"
         input file       "/local/jobs/1158943/Gau-1424902.EIn"
         output file      "/local/jobs/1158943/Gau-1424902.EOu"
         message file     "/local/jobs/1158943/Gau-1424902.EMs"
         fchk file        "/local/jobs/1158943/Gau-1424902.EFC"
         mat. el file     "/local/jobs/1158943/Gau-1424902.EUF"
 Read checkpoint file Gau-1424902_H.chk type G16
 Write formatted file Gau-1424902_H.fchk

deriv: 2

spelevel: wb97xd def2svp
gradlevel: wb97xd def2svp
hesslevel: pbepbe def2svp

runspe: False
runforce: True
runfreq: True

Running Gaussian ...

Parsing files ...
SPE file: Gau-1424902_F.out
FORCE file: Gau-1424902_F.out
HESS file: Gau-1424902_H.out

 ExternalExternalExternalExternalExternalExternalExternalExternalExternalExternal
 Output from external command:
 "~/scripts/MiMe -H 'pbepbe def2svp' -EF 'wb97xd def2svp' -c 12 -m 48GB R /local/jobs/1158943/Gau-1424902.EIn /local/jobs/1158943/Gau-1424902.EOu /local/jobs/1158943/Gau-1424902.EMs /local/jobs/1158943/Gau-1424902.EFC /local/jobs/1158943/Gau-1424902.EUF"
  
 --------------------------------------------------
 Force calculation at wb97xd def2svp
 Hessian calculation at pbepbe def2svp
 ExternalExternalExternalExternalExternalExternalExternalExternalExternalExternal

 Recovered energy= -3205.97208175     dipole=      1.714700000000      4.057400000000     -3.578800000000
 Energy=    -3205.97208     NIter=   0.
 Dipole moment=       1.714700       4.057400      -3.578800
 ***** Axes restored to original set *****
 -------------------------------------------------------------------
 Center     Atomic                   Forces (Hartrees/Bohr)
 Number     Number              X              Y              Z
 -------------------------------------------------------------------
      1        6          -0.032852258    0.003269662    0.022148492
      2        6           0.016706269   -0.010805587   -0.001754616
      3        8          -0.003481635   -0.009301967   -0.018802811
      4        6           0.005931621   -0.006398807    0.025688532
      5        6          -0.001189137   -0.005917752    0.007241802
      6        1          -0.001361732    0.003300822   -0.003168183
      7        1          -0.002377032   -0.002036714    0.001130862
      8        1          -0.000734793    0.000679006    0.002994234
      9        7           0.023728572    0.030283041   -0.045913066
     10        1          -0.000473824   -0.004390132    0.004293675
     11        1          -0.001042484   -0.001712595    0.000259918
     12        6          -0.002102760    0.010750050   -0.007059104
     13        6           0.004079303   -0.000021086    0.003514940
     14        6          -0.004072773    0.002141892    0.003290229
     15        6          -0.001587122   -0.000078277   -0.000533361
     16        6          -0.005473966   -0.001242988   -0.002961942
     17        6           0.004918791   -0.001131005   -0.002082556
     18        1          -0.003058910   -0.001249900   -0.002116003
     19        1           0.001024484   -0.001088520   -0.002779085
     20        1           0.003156648   -0.000582316   -0.000093890
     21        1           0.001331140    0.000615341    0.002692034
     22        1          -0.002791671    0.001248202    0.001389582
     23        1          -0.000135186   -0.012199229    0.007186491
     24       35           0.002669877   -0.004795689   -0.007219766
     25        8          -0.006521590    0.013093524    0.013452906
     26        6           0.004925264   -0.006036084   -0.003696646
     27        1           0.001704320   -0.003098038   -0.002969142
     28        1          -0.000508543    0.003025429    0.003190092
     29        1          -0.000410870    0.003679719    0.002676380
 -------------------------------------------------------------------
 Cartesian Forces:  Max     0.045913066 RMS     0.009651642
 FormGI is forming the generalized inverse of G from B-inverse, IUseBI=4.

 GradGradGradGradGradGradGradGradGradGradGradGradGradGradGradGradGradGrad
 Berny optimization.
 Internal  Forces:  Max     0.035530488 RMS     0.006154379
 Search for a saddle point.
 Step number   2 out of a maximum of   50
 All quantities printed in internal units (Hartrees-Bohrs-Radians)
 Swapping is turned off.
 Second derivative matrix not updated -- analytic derivatives used.
 ITU=  0  0
     Eigenvalues ---   -0.05472  -0.03427  -0.01197  -0.01166  -0.00971
     Eigenvalues ---   -0.00778  -0.00421  -0.00041   0.00479   0.00579
     Eigenvalues ---    0.00757   0.01434   0.01533   0.01588   0.01807
     Eigenvalues ---    0.01981   0.02098   0.02158   0.02445   0.02658
     Eigenvalues ---    0.02743   0.03464   0.04104   0.04247   0.04509
     Eigenvalues ---    0.05020   0.06772   0.06994   0.07644   0.07663
     Eigenvalues ---    0.08009   0.08509   0.09793   0.10120   0.10135
     Eigenvalues ---    0.10856   0.11145   0.11359   0.11443   0.11909
     Eigenvalues ---    0.13441   0.14315   0.15702   0.16331   0.16538
     Eigenvalues ---    0.16713   0.17721   0.18019   0.18067   0.18228
     Eigenvalues ---    0.20544   0.22011   0.23142   0.25661   0.30356
     Eigenvalues ---    0.32018   0.33151   0.34048   0.34165   0.34978
     Eigenvalues ---    0.35089   0.35484   0.35690   0.36571   0.36707
     Eigenvalues ---    0.36785   0.36962   0.37002   0.37103   0.37213
     Eigenvalues ---    0.37402   0.41075   0.42073   0.42423   0.43403
     Eigenvalues ---    0.45204   0.47784   0.47989   0.51759   0.56812
     Eigenvalues ---    0.80598
 Eigenvectors required to have negative eigenvalues:
                          D3        D6        D5        D4        D1
   1                    0.33413   0.29975   0.29372   0.27250   0.27020
                          D7        D11       D9        D8        D2
   1                    0.25715   0.25129   0.23054   0.22451   0.20857
 RFO step:  Lambda0=3.572554554D-04 Lambda=-3.57942649D-02.
 Linear search not attempted -- option 19 set.
 Maximum step size (   0.100) exceeded in Quadratic search.
    -- Step size scaled by   0.175
 Iteration  1 RMS(Cart)=  0.02834159 RMS(Int)=  0.00036708
 Iteration  2 RMS(Cart)=  0.00058836 RMS(Int)=  0.00003072
 Iteration  3 RMS(Cart)=  0.00000023 RMS(Int)=  0.00003072
 Variable       Old X    -DE/DX   Delta X   Delta X   Delta X     New X
                                 (Linear)    (Quad)   (Total)
    R1        2.81814  -0.01647   0.00000  -0.00635  -0.00635   2.81179
    R2        2.58158   0.02007   0.00000  -0.00176  -0.00176   2.57982
    R3        3.54758   0.00713   0.00000   0.00540   0.00540   3.55297
    R4        2.31239  -0.01882   0.00000  -0.00393  -0.00393   2.30846
    R5        2.56753  -0.01055   0.00000  -0.00575  -0.00575   2.56178
    R6        3.57803   0.03553   0.00000   0.07821   0.07821   3.65625
    R7        2.83553  -0.00657   0.00000  -0.00586  -0.00586   2.82966
    R8        2.08183  -0.00549   0.00000  -0.00384  -0.00384   2.07799
    R9        2.06894   0.00426   0.00000   0.00270   0.00270   2.07164
   R10        2.06764   0.00295   0.00000   0.00164   0.00164   2.06928
   R11        2.06786   0.00284   0.00000   0.00159   0.00159   2.06945
   R12        2.77077   0.00075   0.00000  -0.00495  -0.00495   2.76582
   R13        1.93656  -0.00127   0.00000  -0.00143  -0.00143   1.93513
   R14        1.94103  -0.00177   0.00000  -0.00240  -0.00240   1.93863
   R15        2.64868  -0.00208   0.00000  -0.00038  -0.00038   2.64830
   R16        2.64929  -0.00189   0.00000  -0.00034  -0.00034   2.64895
   R17        2.63971  -0.00276   0.00000  -0.00139  -0.00139   2.63832
   R18        2.05482   0.00357   0.00000   0.00132   0.00132   2.05614
   R19        2.63322   0.00013   0.00000   0.00026   0.00026   2.63349
   R20        2.05526   0.00312   0.00000   0.00139   0.00139   2.05665
   R21        2.63298   0.00116   0.00000   0.00026   0.00026   2.63323
   R22        2.05542   0.00321   0.00000   0.00136   0.00136   2.05678
   R23        2.63786  -0.00270   0.00000  -0.00063  -0.00063   2.63724
   R24        2.05538   0.00305   0.00000   0.00137   0.00137   2.05675
   R25        2.05733   0.00283   0.00000   0.00131   0.00131   2.05864
   R26        2.69241  -0.00611   0.00000  -0.00355  -0.00355   2.68886
   R27        2.06729   0.00214   0.00000   0.00068   0.00068   2.06797
   R28        2.06998   0.00266   0.00000   0.00136   0.00136   2.07133
   R29        2.06985   0.00304   0.00000   0.00138   0.00138   2.07123
    A1        2.02131   0.00581   0.00000   0.00439   0.00437   2.02568
    A2        2.06910   0.00254   0.00000   0.00062   0.00060   2.06970
    A3        2.19266  -0.00832   0.00000  -0.00484  -0.00486   2.18780
    A4        2.17302   0.00088   0.00000  -0.00102  -0.00103   2.17199
    A5        1.94551   0.01250   0.00000   0.00700   0.00700   1.95251
    A6        2.16457  -0.01340   0.00000  -0.00605  -0.00606   2.15851
    A7        1.87056   0.01540   0.00000   0.00799   0.00808   1.87864
    A8        2.13695   0.00464   0.00000   0.01630   0.01627   2.15322
    A9        2.01307  -0.00558   0.00000  -0.00962  -0.00966   2.00340
   A10        1.85764  -0.02202   0.00000  -0.02748  -0.02743   1.83021
   A11        1.47555   0.00850   0.00000  -0.00052  -0.00048   1.47508
   A12        1.97497  -0.00035   0.00000   0.00357   0.00346   1.97843
   A13        1.89791  -0.00043   0.00000  -0.00184  -0.00184   1.89607
   A14        1.90090  -0.00056   0.00000  -0.00128  -0.00129   1.89961
   A15        1.93472   0.00389   0.00000   0.01090   0.01089   1.94561
   A16        1.89557  -0.00016   0.00000  -0.00317  -0.00319   1.89239
   A17        1.91744  -0.00192   0.00000  -0.00315  -0.00315   1.91428
   A18        1.91670  -0.00088   0.00000  -0.00171  -0.00172   1.91498
   A19        2.21903  -0.02200   0.00000  -0.03828  -0.03828   2.18075
   A20        1.87180   0.00280   0.00000   0.01034   0.01032   1.88213
   A21        1.78837   0.00688   0.00000   0.00572   0.00576   1.79413
   A22        1.87251   0.01021   0.00000   0.01136   0.01128   1.88379
   A23        1.86839   0.00699   0.00000   0.01382   0.01373   1.88212
   A24        1.80191  -0.00204   0.00000   0.00410   0.00394   1.80585
   A25        2.15162  -0.00166   0.00000  -0.00342  -0.00342   2.14820
   A26        2.05884   0.00072   0.00000   0.00352   0.00352   2.06236
   A27        2.07219   0.00097   0.00000  -0.00018  -0.00018   2.07201
   A28        2.10384   0.00015   0.00000   0.00049   0.00049   2.10433
   A29        2.10260  -0.00131   0.00000  -0.00305  -0.00305   2.09955
   A30        2.07674   0.00116   0.00000   0.00254   0.00254   2.07929
   A31        2.09672   0.00005   0.00000   0.00008   0.00008   2.09681
   A32        2.09259  -0.00049   0.00000  -0.00054  -0.00054   2.09204
   A33        2.09387   0.00044   0.00000   0.00046   0.00046   2.09434
   A34        2.09220  -0.00109   0.00000  -0.00062  -0.00062   2.09158
   A35        2.09593   0.00041   0.00000   0.00016   0.00016   2.09609
   A36        2.09506   0.00068   0.00000   0.00046   0.00046   2.09552
   A37        2.09452   0.00036   0.00000   0.00035   0.00035   2.09487
   A38        2.09636   0.00016   0.00000  -0.00012  -0.00012   2.09624
   A39        2.09230  -0.00051   0.00000  -0.00023  -0.00023   2.09207
   A40        2.10677  -0.00045   0.00000  -0.00011  -0.00011   2.10667
   A41        2.09700  -0.00164   0.00000  -0.00180  -0.00181   2.09520
   A42        2.07939   0.00208   0.00000   0.00193   0.00193   2.08132
   A43        1.99329   0.00654   0.00000   0.00535   0.00535   1.99864
   A44        1.88227  -0.00564   0.00000  -0.00453  -0.00453   1.87774
   A45        1.93002   0.00206   0.00000   0.00181   0.00182   1.93183
   A46        1.93078   0.00165   0.00000   0.00097   0.00097   1.93176
   A47        1.89541   0.00277   0.00000   0.00339   0.00339   1.89880
   A48        1.89660   0.00286   0.00000   0.00386   0.00387   1.90046
   A49        1.92752  -0.00369   0.00000  -0.00537  -0.00537   1.92215
    D1       -0.45878   0.00539   0.00000   0.00325   0.00323  -0.45555
    D2        2.66967   0.00308   0.00000  -0.00282  -0.00284   2.66682
    D3        2.66763   0.00675   0.00000   0.01525   0.01526   2.68289
    D4       -0.48711   0.00444   0.00000   0.00918   0.00919  -0.47792
    D5       -1.33052  -0.00893   0.00000  -0.00578  -0.00577  -1.33629
    D6        2.80272   0.00392   0.00000   0.01280   0.01275   2.81547
    D7        0.27652   0.00654   0.00000  -0.00565  -0.00564   0.27088
    D8        1.82749  -0.01052   0.00000  -0.01882  -0.01878   1.80870
    D9       -0.32246   0.00232   0.00000  -0.00023  -0.00026  -0.32272
   D10       -2.84866   0.00494   0.00000  -0.01868  -0.01865  -2.86732
   D11        3.13564  -0.00031   0.00000  -0.00043  -0.00043   3.13520
   D12       -0.01903  -0.00248   0.00000  -0.00642  -0.00641  -0.02544
   D13        1.23862  -0.00258   0.00000  -0.01522  -0.01525   1.22337
   D14       -1.00790  -0.00030   0.00000  -0.00763  -0.00764  -1.01554
   D15       -2.89838  -0.00175   0.00000  -0.01789  -0.01788  -2.91626
   D16       -2.73076  -0.00144   0.00000  -0.00834  -0.00839  -2.73914
   D17        1.30591   0.00085   0.00000  -0.00075  -0.00078   1.30513
   D18       -0.58457  -0.00061   0.00000  -0.01102  -0.01102  -0.59559
   D19       -0.76616   0.00016   0.00000  -0.00529  -0.00528  -0.77144
   D20       -3.01268   0.00244   0.00000   0.00230   0.00233  -3.01035
   D21        1.38003   0.00099   0.00000  -0.00797  -0.00791   1.37212
   D22        1.19167   0.00186   0.00000  -0.02792  -0.02800   1.16367
   D23       -1.98543   0.00277   0.00000  -0.03056  -0.03064  -2.01607
   D24       -0.96421  -0.00246   0.00000  -0.02554  -0.02551  -0.98971
   D25        2.14188  -0.00155   0.00000  -0.02818  -0.02815   2.11373
   D26       -2.55334  -0.00241   0.00000  -0.01413  -0.01407  -2.56740
   D27        0.55275  -0.00150   0.00000  -0.01676  -0.01671   0.53604
   D28        3.04154   0.00190   0.00000  -0.00831  -0.00834   3.03320
   D29       -0.99540  -0.00326   0.00000  -0.01631  -0.01635  -1.01176
   D30        0.92910   0.00205   0.00000  -0.00049  -0.00041   0.92869
   D31       -1.14359   0.00260   0.00000  -0.00569  -0.00572  -1.14931
   D32        1.10265  -0.00256   0.00000  -0.01369  -0.01373   1.08892
   D33        3.02716   0.00275   0.00000   0.00214   0.00221   3.02937
   D34        0.94024   0.00068   0.00000  -0.01259  -0.01261   0.92763
   D35       -3.09670  -0.00448   0.00000  -0.02058  -0.02063  -3.11733
   D36       -1.17220   0.00083   0.00000  -0.00476  -0.00469  -1.17688
   D37        3.12317   0.00073   0.00000  -0.00333  -0.00333   3.11984
   D38       -0.02221   0.00018   0.00000  -0.00591  -0.00590  -0.02811
   D39        0.01734  -0.00018   0.00000  -0.00074  -0.00074   0.01660
   D40       -3.12803  -0.00073   0.00000  -0.00332  -0.00332  -3.13135
   D41       -3.12357  -0.00097   0.00000   0.00512   0.00512  -3.11844
   D42        0.02392  -0.00061   0.00000   0.00116   0.00116   0.02508
   D43       -0.01583  -0.00016   0.00000   0.00253   0.00253  -0.01330
   D44        3.13166   0.00020   0.00000  -0.00143  -0.00143   3.13023
   D45       -0.00866   0.00030   0.00000  -0.00147  -0.00147  -0.01013
   D46        3.13146   0.00002   0.00000  -0.00102  -0.00102   3.13043
   D47        3.13666   0.00085   0.00000   0.00108   0.00109   3.13775
   D48       -0.00640   0.00057   0.00000   0.00153   0.00153  -0.00487
   D49       -0.00189  -0.00006   0.00000   0.00191   0.00191   0.00003
   D50        3.13997  -0.00012   0.00000   0.00228   0.00228  -3.14094
   D51        3.14118   0.00022   0.00000   0.00147   0.00147  -3.14054
   D52       -0.00015   0.00016   0.00000   0.00184   0.00184   0.00169
   D53        0.00342  -0.00028   0.00000  -0.00015  -0.00015   0.00328
   D54       -3.13878  -0.00008   0.00000   0.00144   0.00144  -3.13734
   D55       -3.13843  -0.00022   0.00000  -0.00051  -0.00051  -3.13895
   D56        0.00254  -0.00001   0.00000   0.00107   0.00107   0.00362
   D57        0.00558   0.00039   0.00000  -0.00210  -0.00210   0.00348
   D58        3.14134   0.00001   0.00000   0.00181   0.00182  -3.14003
   D59       -3.13540   0.00018   0.00000  -0.00368  -0.00368  -3.13908
   D60        0.00036  -0.00019   0.00000   0.00023   0.00023   0.00059
   D61        3.13871   0.00002   0.00000  -0.00780  -0.00779   3.13092
   D62       -1.07437   0.00116   0.00000  -0.00539  -0.00539  -1.07976
   D63        1.06675  -0.00098   0.00000  -0.01029  -0.01029   1.05645
         Item               Value     Threshold  Converged?
 Maximum Force            0.035530     0.000450     NO 
 RMS     Force            0.006154     0.000300     NO 
 Maximum Displacement     0.104175     0.001800     NO 
 RMS     Displacement     0.028429     0.001200     NO 
 Predicted change in Energy=-5.878591D-03
 GradGradGradGradGradGradGradGradGradGradGradGradGradGradGradGradGradGrad

                          Input orientation:                          
 ---------------------------------------------------------------------
 Center     Atomic      Atomic             Coordinates (Angstroms)
 Number     Number       Type             X           Y           Z
 ---------------------------------------------------------------------
      1          6           0       -0.764388   -0.145329    0.204190
      2          6           0       -2.107186    0.293924    0.670998
      3          8           0       -2.298314    1.180248    1.489635
      4          6           0        0.230161    0.787123    0.275807
      5          6           0       -1.106783    2.994199   -1.296225
      6          1           0       -0.974485    3.654774   -2.161058
      7          1           0       -2.061554    2.468256   -1.400425
      8          1           0       -1.145107    3.604438   -0.387714
      9          7           0       -0.017381    2.022274   -1.192725
     10          1           0        0.008482    1.483734   -2.063323
     11          1           0        0.868083    2.540160   -1.205752
     12          6           0        1.686840    0.441627    0.245724
     13          6           0        2.321236   -0.101025   -0.879907
     14          6           0        3.689125   -0.379653   -0.858666
     15          6           0        4.440854   -0.108129    0.282932
     16          6           0        3.824006    0.442589    1.404495
     17          6           0        2.455922    0.717474    1.384743
     18          1           0        1.750731   -0.316187   -1.781078
     19          1           0        4.168086   -0.810690   -1.735748
     20          1           0        5.507308   -0.325041    0.298543
     21          1           0        4.407709    0.660065    2.297010
     22          1           0        1.986940    1.149355    2.268088
     23          1           0        0.001508    1.657408    0.907865
     24         35           0       -0.561584   -1.906162   -0.422952
     25          8           0       -3.103736   -0.392683    0.060091
     26          6           0       -4.414415   -0.022363    0.471886
     27          1           0       -5.123961   -0.633086   -0.094777
     28          1           0       -4.554403   -0.219046    1.541072
     29          1           0       -4.604056    1.035116    0.254861
[...]
                     73                     74                     75
                      A                      A                      A
 Frequencies --   3159.9479              3182.3289              3189.7423
 Red. masses --      1.0864                 1.0862                 1.0886
 Frc consts  --      6.3913                 6.4811                 6.5257
 IR Inten    --      0.0000                 0.0000                 0.0000
  Atom  AN      X      Y      Z        X      Y      Z        X      Y      Z
     1   6     0.00   0.00  -0.00    -0.00   0.00  -0.00     0.00  -0.00   0.00
     2   6    -0.00  -0.00   0.00    -0.00  -0.00   0.00    -0.00   0.00  -0.00
     3   8     0.00   0.00  -0.00     0.00   0.00  -0.00     0.00  -0.00   0.00
     4   6     0.01  -0.07   0.05     0.00  -0.00   0.00    -0.00   0.00  -0.00
     5   6    -0.00  -0.00   0.00     0.00  -0.00   0.00     0.00  -0.00  -0.00
     6   1     0.00   0.00   0.00    -0.00  -0.00  -0.00     0.00   0.00   0.00
     7   1     0.00   0.00  -0.00    -0.00  -0.00  -0.00    -0.00  -0.00   0.00
     8   1    -0.00   0.00  -0.00    -0.00   0.00  -0.00    -0.00   0.00  -0.00
     9   7    -0.00   0.00  -0.00    -0.00   0.00  -0.00     0.00   0.00   0.00
    10   1     0.00  -0.00   0.00     0.00  -0.00   0.00     0.00  -0.00   0.00
    11   1    -0.00  -0.00   0.00     0.00  -0.00  -0.00    -0.00  -0.00  -0.00
    12   6    -0.00  -0.00  -0.00     0.00   0.00   0.00    -0.00  -0.00  -0.00
    13   6    -0.00   0.00   0.00     0.00   0.00   0.00     0.00   0.01   0.00
    14   6    -0.00   0.00   0.00     0.01  -0.02   0.00     0.02  -0.05   0.00
    15   6     0.00   0.00   0.00    -0.03   0.00  -0.00    -0.05   0.01  -0.01
    16   6    -0.00  -0.00   0.00     0.02   0.03  -0.00     0.00   0.00   0.00
    17   6    -0.00   0.00  -0.00     0.02  -0.06   0.01    -0.02   0.04  -0.01
    18   1     0.00   0.00  -0.00    -0.03  -0.03  -0.00    -0.06  -0.07  -0.00
    19   1     0.00  -0.00   0.00    -0.09   0.24  -0.02    -0.21   0.57  -0.05
    20   1    -0.00   0.00  -0.00     0.36  -0.06   0.04     0.57  -0.10   0.06
    21   1     0.01   0.01   0.00    -0.31  -0.38   0.00    -0.03  -0.03  -0.00
    22   1     0.02  -0.05   0.01    -0.26   0.69  -0.08     0.18  -0.49   0.06
    23   1    -0.17   0.82  -0.54    -0.01   0.04  -0.03     0.01  -0.02   0.01
    24  35     0.00   0.00  -0.00     0.00   0.00  -0.00     0.00  -0.00  -0.00
    25   8    -0.00  -0.00  -0.00    -0.00   0.00  -0.00     0.00  -0.00   0.00
    26   6     0.00   0.00  -0.00     0.00   0.00  -0.00     0.00   0.00  -0.00
    27   1    -0.00  -0.00   0.00    -0.00  -0.00   0.00    -0.00  -0.00   0.00
    28   1    -0.00   0.00   0.00     0.00  -0.00  -0.00     0.00  -0.00  -0.00
    29   1     0.00  -0.00   0.00     0.00  -0.00   0.00     0.00  -0.00   0.00
                     76                     77                     78
                      A                      A                      A
 Frequencies --   3193.9409              3200.5673              3211.1934
 Red. masses --      1.1069                 1.0936                 1.0994
 Frc consts  --      6.6529                 6.6006                 6.6792
 IR Inten    --      0.0000                 0.0000                 0.0000
  Atom  AN      X      Y      Z        X      Y      Z        X      Y      Z
     1   6     0.00   0.00   0.00    -0.00   0.00  -0.00    -0.00   0.00  -0.00
     2   6     0.00  -0.00   0.00     0.00  -0.00   0.00     0.00  -0.00   0.00
     3   8    -0.00   0.00  -0.00     0.00   0.00  -0.00    -0.00   0.00  -0.00
     4   6     0.00  -0.00   0.00     0.00  -0.00   0.00     0.00  -0.00   0.00
     5   6    -0.00  -0.00   0.00    -0.00  -0.00   0.00     0.00   0.00   0.00
     6   1     0.00   0.00   0.00     0.00   0.00   0.00    -0.00  -0.00  -0.00
     7   1     0.00  -0.00  -0.00     0.00   0.00  -0.00     0.00   0.00  -0.00
     8   1     0.00   0.00  -0.00    -0.00   0.00  -0.00     0.00  -0.00   0.00
     9   7     0.00   0.00  -0.00     0.00   0.00   0.00    -0.00  -0.00  -0.00
    10   1    -0.00  -0.00   0.00     0.00  -0.00   0.00    -0.00  -0.00  -0.00
    11   1    -0.00  -0.00   0.00    -0.00  -0.00  -0.00     0.00   0.00   0.00
    12   6     0.00   0.00  -0.00     0.00   0.00  -0.00     0.00   0.00  -0.00
    13   6    -0.00  -0.00   0.00     0.00   0.01   0.00    -0.00  -0.01  -0.00
    14   6    -0.00   0.00  -0.00     0.02  -0.05   0.00    -0.01   0.03  -0.00
    15   6    -0.00   0.00  -0.00     0.03  -0.00   0.00    -0.06   0.01  -0.01
    16   6     0.00   0.00   0.00    -0.03  -0.04  -0.00    -0.04  -0.05   0.00
    17   6     0.00  -0.00   0.00     0.01  -0.03   0.00     0.01  -0.02   0.00
    18   1    -0.00  -0.00  -0.00    -0.07  -0.08  -0.00     0.06   0.07   0.00
    19   1     0.00  -0.00   0.00    -0.22   0.61  -0.06     0.11  -0.31   0.03
    20   1     0.00  -0.00   0.00    -0.35   0.05  -0.04     0.61  -0.10   0.06
    21   1    -0.00  -0.00   0.00     0.37   0.44  -0.00     0.41   0.51  -0.00
    22   1    -0.00   0.00  -0.00    -0.11   0.30  -0.04    -0.08   0.22  -0.03
    23   1    -0.00   0.00  -0.00    -0.00   0.01  -0.01    -0.00   0.00  -0.00
    24  35    -0.00   0.00  -0.00     0.00  -0.00  -0.00    -0.00  -0.00   0.00
    25   8     0.00   0.00  -0.00    -0.00   0.00  -0.00    -0.00  -0.00   0.00
    26   6    -0.05  -0.07   0.04    -0.00  -0.00   0.00     0.00   0.00  -0.00
    27   1     0.62   0.55  -0.34     0.00   0.00  -0.00    -0.00  -0.00   0.00
    28   1    -0.01   0.28   0.16    -0.00   0.00   0.00    -0.00  -0.00  -0.00
    29   1    -0.05   0.02  -0.27    -0.00   0.00  -0.00    -0.00   0.00   0.00
                     79                     80                     81
                      A                      A                      A
 Frequencies --   3237.7157              3532.5077              3616.8691
 Red. masses --      1.0937                 1.0505                 1.0930
 Frc consts  --      6.7548                 7.7232                 8.4243
 IR Inten    --      0.0000                 0.0000                 0.0000
  Atom  AN      X      Y      Z        X      Y      Z        X      Y      Z
     1   6     0.00  -0.00  -0.00    -0.00   0.00  -0.00    -0.00  -0.00   0.00
     2   6    -0.00  -0.00   0.00     0.00  -0.00   0.00    -0.00  -0.00   0.00
     3   8     0.00   0.00   0.00    -0.00   0.00  -0.00    -0.00   0.00  -0.00
     4   6    -0.00  -0.00  -0.00     0.00   0.00   0.00    -0.00   0.00  -0.00
     5   6    -0.00   0.00  -0.00    -0.00  -0.00  -0.00    -0.00  -0.00   0.00
     6   1     0.00   0.00   0.00    -0.00   0.01   0.01     0.00   0.00  -0.00
     7   1     0.00  -0.00  -0.00    -0.00  -0.00   0.01     0.01   0.00  -0.01
     8   1     0.00  -0.00   0.00     0.00   0.01  -0.00     0.00   0.01  -0.00
     9   7    -0.00  -0.00  -0.00     0.03  -0.04  -0.02    -0.03  -0.05   0.06
    10   1    -0.00   0.00  -0.00    -0.01   0.67  -0.23    -0.01   0.67  -0.20
    11   1     0.00   0.00   0.00    -0.41  -0.08   0.56     0.41   0.05  -0.58
    12   6    -0.00   0.00  -0.00     0.00  -0.00  -0.00     0.00   0.00   0.00
    13   6    -0.06  -0.07  -0.00     0.00   0.00  -0.00     0.00   0.00  -0.00
    14   6     0.01  -0.01   0.00    -0.00   0.00  -0.00     0.00   0.00  -0.00
    15   6     0.00   0.00   0.00    -0.00  -0.00  -0.00     0.00  -0.00   0.00
    16   6     0.00   0.00  -0.00    -0.00  -0.00  -0.00    -0.00   0.00   0.00
    17   6     0.00   0.00  -0.00     0.00  -0.00   0.00    -0.00   0.00   0.00
    18   1     0.62   0.76   0.04    -0.00  -0.00  -0.00    -0.00  -0.00   0.00
    19   1    -0.06   0.15  -0.01    -0.00  -0.00  -0.00     0.00  -0.00  -0.00
    20   1    -0.03   0.00  -0.00     0.00   0.00   0.00    -0.00   0.00  -0.00
    21   1    -0.01  -0.02   0.00     0.00   0.00   0.00    -0.00  -0.00   0.00
    22   1    -0.00   0.00  -0.00    -0.00   0.00  -0.00     0.00   0.00   0.00
    23   1     0.00  -0.00   0.00     0.00   0.00  -0.00     0.00   0.00  -0.00
    24  35    -0.00   0.00   0.00    -0.00  -0.00  -0.00    -0.00   0.00  -0.00
    25   8     0.00   0.00  -0.00    -0.00  -0.00  -0.00     0.00   0.00   0.00
    26   6    -0.00   0.00   0.00     0.00   0.00   0.00     0.00  -0.00   0.00
    27   1     0.00   0.00  -0.00    -0.00  -0.00   0.00    -0.00   0.00  -0.00
    28   1     0.00  -0.00  -0.00    -0.00  -0.00  -0.00    -0.00   0.00   0.00
    29   1    -0.00   0.00  -0.00    -0.00   0.00  -0.00    -0.00   0.00  -0.00

 -------------------
 - Thermochemistry -
 -------------------
 Temperature   298.150 Kelvin.  Pressure   1.00000 Atm.
 Atom     1 has atomic number  6 and mass  12.00000
 Atom     2 has atomic number  6 and mass  12.00000
 Atom     3 has atomic number  8 and mass  15.99491
 Atom     4 has atomic number  6 and mass  12.00000
 Atom     5 has atomic number  6 and mass  12.00000
 Atom     6 has atomic number  1 and mass   1.00783
 Atom     7 has atomic number  1 and mass   1.00783
 Atom     8 has atomic number  1 and mass   1.00783
 Atom     9 has atomic number  7 and mass  14.00307
 Atom    10 has atomic number  1 and mass   1.00783
 Atom    11 has atomic number  1 and mass   1.00783
 Atom    12 has atomic number  6 and mass  12.00000
 Atom    13 has atomic number  6 and mass  12.00000
 Atom    14 has atomic number  6 and mass  12.00000
 Atom    15 has atomic number  6 and mass  12.00000
 Atom    16 has atomic number  6 and mass  12.00000
 Atom    17 has atomic number  6 and mass  12.00000
 Atom    18 has atomic number  1 and mass   1.00783
 Atom    19 has atomic number  1 and mass   1.00783
 Atom    20 has atomic number  1 and mass   1.00783
 Atom    21 has atomic number  1 and mass   1.00783
 Atom    22 has atomic number  1 and mass   1.00783
 Atom    23 has atomic number  1 and mass   1.00783
 Atom    24 has atomic number 35 and mass  78.91834
 Atom    25 has atomic number  8 and mass  15.99491
 Atom    26 has atomic number  6 and mass  12.00000
 Atom    27 has atomic number  1 and mass   1.00783
 Atom    28 has atomic number  1 and mass   1.00783
 Atom    29 has atomic number  1 and mass   1.00783
 Molecular mass:   271.02079 amu.
 Principal axes and moments of inertia in atomic units:
                           1         2         3
     Eigenvalues --  2604.502686611.417566994.09140
           X            0.99982  -0.01198   0.01481
           Y            0.00745   0.96144   0.27490
           Z           -0.01753  -0.27474   0.96136
 This molecule is an asymmetric top.
 Rotational symmetry number  1.
 Warning -- assumption of classical behavior for rotation
           may cause significant error
 Rotational temperatures (Kelvin)      0.03326     0.01310     0.01238
 Rotational constants (GHZ):           0.69293     0.27297     0.25804
    7 imaginary frequencies ignored.
 Zero-point vibrational energy     593705.4 (Joules/Mol)
                                  141.89901 (Kcal/Mol)
 Warning -- explicit consideration of  17 degrees of freedom as
           vibrations may cause significant error
 Vibrational temperatures:     44.34    76.28    88.35   129.05   158.56
          (Kelvin)            197.31   231.33   272.53   376.12   390.23
                              451.05   538.39   545.59   603.82   702.05
                              820.63   864.18   907.72   947.42  1014.92
                             1021.04  1070.18  1081.87  1138.48  1212.01
                             1227.75  1287.04  1317.14  1347.91  1385.55
                             1398.51  1433.28  1494.54  1543.18  1559.93
                             1561.72  1605.07  1611.22  1619.47  1655.41
                             1662.20  1734.69  1813.03  1828.33  1850.12
                             1877.14  1990.43  2003.82  2019.70  2032.92
                             2040.81  2054.26  2069.40  2084.31  2148.41
                             2256.44  2341.34  2372.88  2434.27  2650.50
                             4275.68  4396.49  4429.28  4503.94  4531.54
                             4546.46  4578.66  4589.33  4595.37  4604.90
                             4620.19  4658.35  5082.49  5203.87
 
 Zero-point correction=                           0.226130 (Hartree/Particle)
 Thermal correction to Energy=                    0.239204
 Thermal correction to Enthalpy=                  0.240148
 Thermal correction to Gibbs Free Energy=         0.183836
 Sum of electronic and zero-point Energies=          -3205.793511
 Sum of electronic and thermal Energies=             -3205.780437
 Sum of electronic and thermal Enthalpies=           -3205.779493
 Sum of electronic and thermal Free Energies=        -3205.835806
 
                     E (Thermal)             CV                S
                      KCal/Mol        Cal/Mol-Kelvin    Cal/Mol-Kelvin
 Total                  150.103             48.310            118.519
 Electronic               0.000              0.000              0.000
 Translational            0.889              2.981             42.690
 Rotational               0.889              2.981             33.154
 Vibrational            148.325             42.349             42.675
 Vibration     1          0.594              1.984              5.776
 Vibration     2          0.596              1.976              4.701
 Vibration     3          0.597              1.973              4.411
 Vibration     4          0.602              1.956              3.667
 Vibration     5          0.606              1.941              3.265
 Vibration     6          0.614              1.916              2.843
 Vibration     7          0.622              1.890              2.541
 Vibration     8          0.633              1.854              2.234
 Vibration     9          0.669              1.743              1.652
 Vibration    10          0.675              1.726              1.588
 Vibration    11          0.701              1.648              1.344
 Vibration    12          0.745              1.525              1.063
 Vibration    13          0.749              1.514              1.042
 Vibration    14          0.782              1.427              0.893
 Vibration    15          0.844              1.277              0.689
 Vibration    16          0.926              1.095              0.504
 Vibration    17          0.959              1.030              0.449
                       Q            Log10(Q)             Ln(Q)
 Total Bot       0.276336D-84        -84.558563       -194.703287
 Total V=0       0.284535D+20         19.454136         44.794803
 Vib (Bot)       0.401105D-99        -99.396742       -228.869456
 Vib (Bot)    1  0.671735D+01          0.827198          1.904694
 Vib (Bot)    2  0.389775D+01          0.590814          1.360400
 Vib (Bot)    3  0.336228D+01          0.526634          1.212619
 Vib (Bot)    4  0.229237D+01          0.360285          0.829587
 Vib (Bot)    5  0.185840D+01          0.269138          0.619714
 Vib (Bot)    6  0.148382D+01          0.171383          0.394623
 Vib (Bot)    7  0.125707D+01          0.099359          0.228782
 Vib (Bot)    8  0.105684D+01          0.024011          0.055288
 Vib (Bot)    9  0.742474D+00         -0.129319         -0.297767
 Vib (Bot)   10  0.712112D+00         -0.147452         -0.339521
 Vib (Bot)   11  0.601951D+00         -0.220439         -0.507579
 Vib (Bot)   12  0.485126D+00         -0.314146         -0.723347
 Vib (Bot)   13  0.477072D+00         -0.321416         -0.740088
 Vib (Bot)   14  0.418499D+00         -0.378306         -0.871082
 Vib (Bot)   15  0.340409D+00         -0.467999         -1.077607
 Vib (Bot)   16  0.269738D+00         -0.569058         -1.310303
 Vib (Bot)   17  0.248439D+00         -0.604780         -1.392558
 Vib (V=0)       0.413006D+05          4.615957         10.628633
 Vib (V=0)    1  0.723594D+01          0.859495          1.979060
 Vib (V=0)    2  0.442969D+01          0.646373          1.488330
 Vib (V=0)    3  0.389925D+01          0.590981          1.360785
 Vib (V=0)    4  0.284627D+01          0.454276          1.046009
 Vib (V=0)    5  0.242448D+01          0.384619          0.885618
 Vib (V=0)    6  0.206580D+01          0.315089          0.725518
 Vib (V=0)    7  0.185286D+01          0.267842          0.616728
 Vib (V=0)    8  0.166915D+01          0.222496          0.512317
 Vib (V=0)    9  0.139514D+01          0.144616          0.332992
 Vib (V=0)   10  0.137012D+01          0.136758          0.314896
 Vib (V=0)   11  0.128252D+01          0.108066          0.248831
 Vib (V=0)   12  0.119667D+01          0.077974          0.179541
 Vib (V=0)   13  0.119108D+01          0.075942          0.174864
 Vib (V=0)   14  0.115203D+01          0.061463          0.141524
 Vib (V=0)   15  0.110488D+01          0.043315          0.099736
 Vib (V=0)   16  0.106812D+01          0.028619          0.065899
 Vib (V=0)   17  0.105832D+01          0.024617          0.056683
 Electronic      0.100000D+01          0.000000          0.000000
 Translational   0.175371D+09          8.243958         18.982414
 Rotational      0.392845D+07          6.594221         15.183755
 ***** Axes restored to original set *****
 -------------------------------------------------------------------
 Center     Atomic                   Forces (Hartrees/Bohr)
 Number     Number              X              Y              Z
 -------------------------------------------------------------------
      1        6          -0.000101020    0.000760805   -0.000558604
      2        6           0.000465627   -0.001599935    0.001651602
      3        8          -0.001153579    0.001910758   -0.000981705
      4        6          -0.000155829   -0.000653928    0.000267609
      5        6          -0.000076680    0.000188979    0.000291450
      6        1           0.000106272   -0.000002320   -0.000090103
      7        1           0.000098002    0.000085896   -0.000032905
      8        1          -0.000058038    0.000078336   -0.000060177
      9        7           0.000743789    0.000222712   -0.001108672
     10        1          -0.000594014    0.000104084   -0.000070040
     11        1           0.000000620    0.000039583    0.000214184
     12        6           0.000541668    0.000394515    0.000996819
     13        6          -0.000079258   -0.000580705    0.000314618
     14        6          -0.000041668    0.000079068    0.000019421
     15        6          -0.000008308    0.000030919   -0.000230756
     16        6           0.000200867   -0.000229425   -0.000018757
     17        6           0.000262419    0.000376814   -0.000065182
     18        1          -0.000338459    0.000197578    0.000078782
     19        1          -0.000203671    0.000175457   -0.000149666
     20        1          -0.000008821    0.000053172   -0.000264333
     21        1           0.000182552   -0.000118378   -0.000143119
     22        1           0.000303180   -0.000148036    0.000135559
     23        1          -0.000117437   -0.000679053    0.000240577
     24       35           0.000142389   -0.000060653   -0.000215580
     25        8           0.000500295   -0.000496419    0.000356595
     26        6          -0.000329002   -0.000427424    0.000122474
     27        1           0.000149629    0.000095620   -0.000301963
     28        1          -0.000681060    0.000119063   -0.000144153
     29        1           0.000249536    0.000082921   -0.000253976
 -------------------------------------------------------------------
 Cartesian Forces:  Max     0.001910758 RMS     0.000483894


 SACRED COWS MAKE GREAT HAMBURGERS -- ROBERT REISNER
 Error termination request processed by link 9999.
 Error termination via Lnk1e in /apps/gaussian/g16/C.01/g16/l9999.exe at Tue Jan 23 05:22:19 2024.
 Job cpu time:       1 days 10 hours 41 minutes 29.3 seconds.
 Elapsed time:       0 days  5 hours 42 minutes 37.1 seconds.
 File lengths (MBytes):  RWF=      6 Int=      0 D2E=      0 Chk=      2 Scr=      1
