Unloading slurm/anatra/current
  ERROR: No such file or directory on
    '/cm/local/modulefiles/slurm/anatra/current'
environment: line 0: unalias: gv: not found
environment: line 0: unalias: sl: not found
 Entering Gaussian System, Link 0=g16
 Initial command:
 /apps/gaussian/g16/C.01/g16/l1.exe "/local/jobs/1158161/Gau-2801472.inp" -scrdir="/local/jobs/1158161/"
 Entering Link 1 = /apps/gaussian/g16/C.01/g16/l1.exe PID=   2801475.
  
 Copyright (c) 1988-2019, Gaussian, Inc.  All Rights Reserved.
  
 This is part of the Gaussian(R) 16 program.  It is based on
 the Gaussian(R) 09 system (copyright 2009, Gaussian, Inc.),
 the Gaussian(R) 03 system (copyright 2003, Gaussian, Inc.),
 the Gaussian(R) 98 system (copyright 1998, Gaussian, Inc.),
 the Gaussian(R) 94 system (copyright 1995, Gaussian, Inc.),
 the Gaussian 92(TM) system (copyright 1992, Gaussian, Inc.),
 the Gaussian 90(TM) system (copyright 1990, Gaussian, Inc.),
 the Gaussian 88(TM) system (copyright 1988, Gaussian, Inc.),
 the Gaussian 86(TM) system (copyright 1986, Carnegie Mellon
 University), and the Gaussian 82(TM) system (copyright 1983,
 Carnegie Mellon University). Gaussian is a federally registered
 trademark of Gaussian, Inc.
  
 This software contains proprietary and confidential information,
 including trade secrets, belonging to Gaussian, Inc.
  
 This software is provided under written license and may be
 used, copied, transmitted, or stored only in accord with that
 written license.
  
 The following legend is applicable only to US Government
 contracts under FAR:
  
                    RESTRICTED RIGHTS LEGEND
  
 Use, reproduction and disclosure by the US Government is
 subject to restrictions as set forth in subparagraphs (a)
 and (c) of the Commercial Computer Software - Restricted
 Rights clause in FAR 52.227-19.
  
 Gaussian, Inc.
 340 Quinnipiac St., Bldg. 40, Wallingford CT 06492
  
  
 ---------------------------------------------------------------
 Warning -- This program may not be used in any manner that
 competes with the business of Gaussian, Inc. or will provide
 assistance to any competitor of Gaussian, Inc.  The licensee
 of this program is prohibited from giving any competitor of
 Gaussian, Inc. access to this program.  By using this program,
 the user acknowledges that Gaussian, Inc. is engaged in the
 business of creating and licensing software in the field of
 computational chemistry and represents and warrants to the
 licensee that it is not a competitor of Gaussian, Inc. and that
 it will not use this program in any manner prohibited above.
 ---------------------------------------------------------------
  

 Cite this work as:
 Gaussian 16, Revision C.01,
 M. J. Frisch, G. W. Trucks, H. B. Schlegel, G. E. Scuseria, 
 M. A. Robb, J. R. Cheeseman, G. Scalmani, V. Barone, 
 G. A. Petersson, H. Nakatsuji, X. Li, M. Caricato, A. V. Marenich, 
 J. Bloino, B. G. Janesko, R. Gomperts, B. Mennucci, H. P. Hratchian, 
 J. V. Ortiz, A. F. Izmaylov, J. L. Sonnenberg, D. Williams-Young, 
 F. Ding, F. Lipparini, F. Egidi, J. Goings, B. Peng, A. Petrone, 
 T. Henderson, D. Ranasinghe, V. G. Zakrzewski, J. Gao, N. Rega, 
 G. Zheng, W. Liang, M. Hada, M. Ehara, K. Toyota, R. Fukuda, 
 J. Hasegawa, M. Ishida, T. Nakajima, Y. Honda, O. Kitao, H. Nakai, 
 T. Vreven, K. Throssell, J. A. Montgomery, Jr., J. E. Peralta, 
 F. Ogliaro, M. J. Bearpark, J. J. Heyd, E. N. Brothers, K. N. Kudin, 
 V. N. Staroverov, T. A. Keith, R. Kobayashi, J. Normand, 
 K. Raghavachari, A. P. Rendell, J. C. Burant, S. S. Iyengar, 
 J. Tomasi, M. Cossi, J. M. Millam, M. Klene, C. Adamo, R. Cammi, 
 J. W. Ochterski, R. L. Martin, K. Morokuma, O. Farkas, 
 J. B. Foresman, and D. J. Fox, Gaussian, Inc., Wallingford CT, 2019.
 
 ******************************************
 Gaussian 16:  ES64L-G16RevC.01  3-Jul-2019
                18-Jan-2024 
 ******************************************
 %nprocshared=12
 Will use up to   12 processors via shared memory.
 %mem=48GB
 ----------------------------------------------------------------------
 # external="~/scripts/MiMe -H 'pbepbe def2svp' -EF 'wb97xd def2svp' -c
  12 -m 48GB" opt=(calcall,ts,noeigen,maxcycles=50,maxstep=10,nomicro)
 ----------------------------------------------------------------------
 1/5=1,6=50,8=10,10=4,11=1,18=20,26=1,38=1/1,3;
 2/9=110,12=2,17=6,18=5,40=1/2;
 3/11=9,25=1,30=1,41=9900000,43=2,71=2,140=1/1;
 4/20=17,22=2,24=3,113=1,114=1/2;
 6/7=2,8=2,9=2,10=2,18=1/1;
 7/25=1,44=-1/16;
 1/5=1,6=50,8=10,10=4,11=1,18=20,26=1/3(3);
 2/9=110/2;
 7/8=1,9=1,25=1,44=-1/16;
 99//99;
 2/9=110/2;
 3/11=9,25=1,30=1,41=9900000,43=2,71=2,140=1/1;
 4/16=2,20=17,22=2,24=3,113=1,114=1/2;
 7/25=1,44=-1/16;
 1/5=1,6=50,8=10,10=4,11=1,18=20,26=1/3(-4);
 2/9=110/2;
 6/7=2,8=2,9=2,10=2,18=1/1;
 7/8=1,9=1,25=1,44=-1/16;
 99//99;
 ----------
 TS-898.out
 ----------
 Symbolic Z-matrix:
 Charge =  0 Multiplicity = 1
 C                    -0.46944  -0.70158  -0.3157 
 C                    -1.80325  -0.37883   0.26459 
 O                    -2.1666   -0.88981   1.32245 
 C                     0.64063  -0.22369   0.32388 
 C                     0.48216   2.80238  -0.36191 
 H                     1.0592    3.479    -0.99873 
 H                    -0.56866   2.85168  -0.65767 
 H                     0.56954   3.13654   0.67555 
 N                     0.98232   1.42813  -0.49487 
 H                     0.9747    1.21586  -1.4994 
 H                     1.99051   1.47348  -0.28996 
 Cl                    2.20424  -1.06498  -0.03906 
 C                     0.5992    0.23794   1.78923 
 H                    -0.22197   0.93682   1.97915 
 H                     0.48467  -0.62723   2.45151 
 H                     1.52984   0.74582   2.06821 
 C                    -0.50617  -1.49801  -1.58355 
 H                     0.43652  -1.45603  -2.13643 
 H                    -0.72787  -2.54679  -1.36119 
 H                    -1.27943  -1.12504  -2.26314 
 C                    -2.69529   0.55705  -0.50643 
 H                    -3.55857   0.003    -0.88378 
 H                    -3.02491   1.36267   0.15514 
 H                    -2.16599   1.00486  -1.35156 
 
 Add virtual bond connecting atoms N9         and C4         Dist= 3.54D+00.

 GradGradGradGradGradGradGradGradGradGradGradGradGradGradGradGradGradGrad
 Berny optimization.
 Initialization pass.
                           ----------------------------
                           !    Initial Parameters    !
                           ! (Angstroms and Degrees)  !
 --------------------------                            --------------------------
 ! Name  Definition              Value          Derivative Info.                !
 --------------------------------------------------------------------------------
 ! R1    R(1,2)                  1.49           calculate D2E/DX2 analytically  !
 ! R2    R(1,4)                  1.3674         calculate D2E/DX2 analytically  !
 ! R3    R(1,17)                 1.4977         calculate D2E/DX2 analytically  !
 ! R4    R(2,3)                  1.2297         calculate D2E/DX2 analytically  !
 ! R5    R(2,21)                 1.5053         calculate D2E/DX2 analytically  !
 ! R6    R(4,9)                  1.875          calculate D2E/DX2 analytically  !
 ! R7    R(4,12)                 1.8123         calculate D2E/DX2 analytically  !
 ! R8    R(4,13)                 1.5369         calculate D2E/DX2 analytically  !
 ! R9    R(5,6)                  1.0938         calculate D2E/DX2 analytically  !
 ! R10   R(5,7)                  1.0928         calculate D2E/DX2 analytically  !
 ! R11   R(5,8)                  1.0934         calculate D2E/DX2 analytically  !
 ! R12   R(5,9)                  1.4685         calculate D2E/DX2 analytically  !
 ! R13   R(9,10)                 1.0267         calculate D2E/DX2 analytically  !
 ! R14   R(9,11)                 1.0298         calculate D2E/DX2 analytically  !
 ! R15   R(13,14)                1.0949         calculate D2E/DX2 analytically  !
 ! R16   R(13,15)                1.0956         calculate D2E/DX2 analytically  !
 ! R17   R(13,16)                1.0963         calculate D2E/DX2 analytically  !
 ! R18   R(17,18)                1.0937         calculate D2E/DX2 analytically  !
 ! R19   R(17,19)                1.0948         calculate D2E/DX2 analytically  !
 ! R20   R(17,20)                1.0949         calculate D2E/DX2 analytically  !
 ! R21   R(21,22)                1.093          calculate D2E/DX2 analytically  !
 ! R22   R(21,23)                1.0933         calculate D2E/DX2 analytically  !
 ! R23   R(21,24)                1.0931         calculate D2E/DX2 analytically  !
 ! A1    A(2,1,4)              117.9612         calculate D2E/DX2 analytically  !
 ! A2    A(2,1,17)             115.0201         calculate D2E/DX2 analytically  !
 ! A3    A(4,1,17)             126.9934         calculate D2E/DX2 analytically  !
 ! A4    A(1,2,3)              120.6333         calculate D2E/DX2 analytically  !
 ! A5    A(1,2,21)             117.7536         calculate D2E/DX2 analytically  !
 ! A6    A(3,2,21)             121.5909         calculate D2E/DX2 analytically  !
 ! A7    A(1,4,9)              104.5717         calculate D2E/DX2 analytically  !
 ! A8    A(1,4,12)             116.3925         calculate D2E/DX2 analytically  !
 ! A9    A(1,4,13)             121.942          calculate D2E/DX2 analytically  !
 ! A10   A(9,4,12)              99.4555         calculate D2E/DX2 analytically  !
 ! A11   A(9,4,13)              99.0118         calculate D2E/DX2 analytically  !
 ! A12   A(12,4,13)            110.7098         calculate D2E/DX2 analytically  !
 ! A13   A(6,5,7)              108.7737         calculate D2E/DX2 analytically  !
 ! A14   A(6,5,8)              108.7359         calculate D2E/DX2 analytically  !
 ! A15   A(6,5,9)              110.2743         calculate D2E/DX2 analytically  !
 ! A16   A(7,5,8)              108.6541         calculate D2E/DX2 analytically  !
 ! A17   A(7,5,9)              110.1965         calculate D2E/DX2 analytically  !
 ! A18   A(8,5,9)              110.1625         calculate D2E/DX2 analytically  !
 ! A19   A(4,9,5)              136.2896         calculate D2E/DX2 analytically  !
 ! A20   A(4,9,10)             104.1071         calculate D2E/DX2 analytically  !
 ! A21   A(4,9,11)              97.488          calculate D2E/DX2 analytically  !
 ! A22   A(5,9,10)             106.2324         calculate D2E/DX2 analytically  !
 ! A23   A(5,9,11)             105.9157         calculate D2E/DX2 analytically  !
 ! A24   A(10,9,11)            102.1836         calculate D2E/DX2 analytically  !
 ! A25   A(4,13,14)            112.1679         calculate D2E/DX2 analytically  !
 ! A26   A(4,13,15)            109.998          calculate D2E/DX2 analytically  !
 ! A27   A(4,13,16)            111.0323         calculate D2E/DX2 analytically  !
 ! A28   A(14,13,15)           108.7118         calculate D2E/DX2 analytically  !
 ! A29   A(14,13,16)           107.2666         calculate D2E/DX2 analytically  !
 ! A30   A(15,13,16)           107.5031         calculate D2E/DX2 analytically  !
 ! A31   A(1,17,18)            112.7305         calculate D2E/DX2 analytically  !
 ! A32   A(1,17,19)            110.0265         calculate D2E/DX2 analytically  !
 ! A33   A(1,17,20)            111.1983         calculate D2E/DX2 analytically  !
 ! A34   A(18,17,19)           108.3006         calculate D2E/DX2 analytically  !
 ! A35   A(18,17,20)           106.3728         calculate D2E/DX2 analytically  !
 ! A36   A(19,17,20)           108.0213         calculate D2E/DX2 analytically  !
 ! A37   A(2,21,22)            109.2519         calculate D2E/DX2 analytically  !
 ! A38   A(2,21,23)            109.0768         calculate D2E/DX2 analytically  !
 ! A39   A(2,21,24)            111.3301         calculate D2E/DX2 analytically  !
 ! A40   A(22,21,23)           110.1396         calculate D2E/DX2 analytically  !
 ! A41   A(22,21,24)           108.8556         calculate D2E/DX2 analytically  !
 ! A42   A(23,21,24)           108.1763         calculate D2E/DX2 analytically  !
 ! D1    D(4,1,2,3)            -70.3005         calculate D2E/DX2 analytically  !
 ! D2    D(4,1,2,21)           111.3855         calculate D2E/DX2 analytically  !
 ! D3    D(17,1,2,3)           111.4016         calculate D2E/DX2 analytically  !
 ! D4    D(17,1,2,21)          -66.9123         calculate D2E/DX2 analytically  !
 ! D5    D(2,1,4,9)            -91.6361         calculate D2E/DX2 analytically  !
 ! D6    D(2,1,4,12)           159.7922         calculate D2E/DX2 analytically  !
 ! D7    D(2,1,4,13)            19.0221         calculate D2E/DX2 analytically  !
 ! D8    D(17,1,4,9)            86.4327         calculate D2E/DX2 analytically  !
 ! D9    D(17,1,4,12)          -22.1391         calculate D2E/DX2 analytically  !
 ! D10   D(17,1,4,13)         -162.9091         calculate D2E/DX2 analytically  !
 ! D11   D(2,1,17,18)          162.4272         calculate D2E/DX2 analytically  !
 ! D12   D(2,1,17,19)          -76.5718         calculate D2E/DX2 analytically  !
 ! D13   D(2,1,17,20)           43.0679         calculate D2E/DX2 analytically  !
 ! D14   D(4,1,17,18)          -15.6904         calculate D2E/DX2 analytically  !
 ! D15   D(4,1,17,19)          105.3106         calculate D2E/DX2 analytically  !
 ! D16   D(4,1,17,20)         -135.0496         calculate D2E/DX2 analytically  !
 ! D17   D(1,2,21,22)          111.7252         calculate D2E/DX2 analytically  !
 ! D18   D(1,2,21,23)         -127.832          calculate D2E/DX2 analytically  !
 ! D19   D(1,2,21,24)           -8.532          calculate D2E/DX2 analytically  !
 ! D20   D(3,2,21,22)          -66.5717         calculate D2E/DX2 analytically  !
 ! D21   D(3,2,21,23)           53.8711         calculate D2E/DX2 analytically  !
 ! D22   D(3,2,21,24)          173.1712         calculate D2E/DX2 analytically  !
 ! D23   D(1,4,9,5)             82.3572         calculate D2E/DX2 analytically  !
 ! D24   D(1,4,9,10)           -50.486          calculate D2E/DX2 analytically  !
 ! D25   D(1,4,9,11)          -155.1123         calculate D2E/DX2 analytically  !
 ! D26   D(12,4,9,5)          -157.0514         calculate D2E/DX2 analytically  !
 ! D27   D(12,4,9,10)           70.1054         calculate D2E/DX2 analytically  !
 ! D28   D(12,4,9,11)          -34.5209         calculate D2E/DX2 analytically  !
 ! D29   D(13,4,9,5)           -44.1342         calculate D2E/DX2 analytically  !
 ! D30   D(13,4,9,10)         -176.9775         calculate D2E/DX2 analytically  !
 ! D31   D(13,4,9,11)           78.3962         calculate D2E/DX2 analytically  !
 ! D32   D(1,4,13,14)          -50.0825         calculate D2E/DX2 analytically  !
 ! D33   D(1,4,13,15)           71.0434         calculate D2E/DX2 analytically  !
 ! D34   D(1,4,13,16)         -170.0859         calculate D2E/DX2 analytically  !
 ! D35   D(9,4,13,14)           63.4373         calculate D2E/DX2 analytically  !
 ! D36   D(9,4,13,15)         -175.4367         calculate D2E/DX2 analytically  !
 ! D37   D(9,4,13,16)          -56.566          calculate D2E/DX2 analytically  !
 ! D38   D(12,4,13,14)         167.1932         calculate D2E/DX2 analytically  !
 ! D39   D(12,4,13,15)         -71.6809         calculate D2E/DX2 analytically  !
 ! D40   D(12,4,13,16)          47.1898         calculate D2E/DX2 analytically  !
 ! D41   D(6,5,9,4)            174.2025         calculate D2E/DX2 analytically  !
 ! D42   D(6,5,9,10)           -53.5824         calculate D2E/DX2 analytically  !
 ! D43   D(6,5,9,11)            54.5726         calculate D2E/DX2 analytically  !
 ! D44   D(7,5,9,4)            -65.7013         calculate D2E/DX2 analytically  !
 ! D45   D(7,5,9,10)            66.5137         calculate D2E/DX2 analytically  !
 ! D46   D(7,5,9,11)           174.6688         calculate D2E/DX2 analytically  !
 ! D47   D(8,5,9,4)             54.1752         calculate D2E/DX2 analytically  !
 ! D48   D(8,5,9,10)          -173.6098         calculate D2E/DX2 analytically  !
 ! D49   D(8,5,9,11)           -65.4548         calculate D2E/DX2 analytically  !
 --------------------------------------------------------------------------------
 Trust Radius=1.00D-01 FncErr=1.00D-07 GrdErr=1.00D-07 EigMax=2.50D+02 EigMin=1.00D-04
 Number of steps in this run=     50 maximum allowed number of steps=    144.
 Search for a saddle point of order  1.
 GradGradGradGradGradGradGradGradGradGradGradGradGradGradGradGradGradGrad

                          Input orientation:                          
 ---------------------------------------------------------------------
 Center     Atomic      Atomic             Coordinates (Angstroms)
 Number     Number       Type             X           Y           Z
 ---------------------------------------------------------------------
      1          6           0       -0.469440   -0.701580   -0.315700
      2          6           0       -1.803250   -0.378830    0.264590
      3          8           0       -2.166600   -0.889810    1.322450
      4          6           0        0.640630   -0.223690    0.323880
      5          6           0        0.482160    2.802380   -0.361910
      6          1           0        1.059200    3.479000   -0.998730
      7          1           0       -0.568660    2.851680   -0.657670
      8          1           0        0.569540    3.136540    0.675550
      9          7           0        0.982320    1.428130   -0.494870
     10          1           0        0.974700    1.215860   -1.499400
     11          1           0        1.990510    1.473480   -0.289960
     12         17           0        2.204240   -1.064980   -0.039060
     13          6           0        0.599200    0.237940    1.789230
     14          1           0       -0.221970    0.936820    1.979150
     15          1           0        0.484670   -0.627230    2.451510
     16          1           0        1.529840    0.745820    2.068210
     17          6           0       -0.506170   -1.498010   -1.583550
     18          1           0        0.436520   -1.456030   -2.136430
     19          1           0       -0.727870   -2.546790   -1.361190
     20          1           0       -1.279430   -1.125040   -2.263140
     21          6           0       -2.695290    0.557050   -0.506430
     22          1           0       -3.558570    0.003000   -0.883780
     23          1           0       -3.024910    1.362670    0.155140
     24          1           0       -2.165990    1.004860   -1.351560
 ---------------------------------------------------------------------
                    Distance matrix (angstroms):
                    1          2          3          4          5
     1  C    0.000000
     2  C    1.489951   0.000000
     3  O    2.366288   1.229712   0.000000
     4  C    1.367369   2.449517   3.053096   0.000000
     5  C    3.631172   3.966825   4.846160   3.106851   0.000000
     6  H    4.503390   4.967137   5.905943   3.954037   1.093768
     7  H    3.571057   3.579242   4.524714   3.447278   1.092761
     8  H    4.097953   4.261085   4.910849   3.379330   1.093445
     9  N    2.583674   3.406066   4.311751   1.874997   1.468469
    10  H    2.676427   3.656734   4.718522   2.346968   2.013337
    11  H    3.283733   4.258074   5.046441   2.253744   2.011535
    12  Cl   2.712407   4.077129   4.581336   1.812283   4.245735
    13  C    2.540752   2.911477   3.023136   1.536903   3.349247
    14  H    2.830536   2.677890   2.747620   2.197904   3.075171
    15  H    2.928021   3.174728   2.893606   2.171170   4.435940
    16  H    3.431489   3.953147   4.110366   2.184795   3.351501
    17  C    1.497696   2.520040   3.401731   2.564631   4.578488
    18  H    2.169105   3.455695   4.365855   2.759248   4.613573
    19  H    2.136501   2.915416   3.466619   3.179473   5.574617
    20  H    2.151261   2.687124   3.701197   3.345405   4.705582
    21  C    2.564164   1.505350   2.391175   3.525242   3.893402
    22  H    3.218986   2.132064   2.757198   4.375284   4.943316
    23  H    3.318621   2.130083   2.678241   3.997649   3.826179
    24  H    2.619776   2.158268   3.277210   3.491926   3.350102
                    6          7          8          9         10
     6  H    0.000000
     7  H    1.777577   0.000000
     8  H    1.777712   1.775984   0.000000
     9  N    2.113257   2.111525   2.111619   0.000000
    10  H    2.319399   2.401328   2.929774   1.026741   0.000000
    11  H    2.322026   2.929846   2.391053   1.029802   1.600307
    12  Cl   4.783287   4.838582   4.564612   2.813618   2.974322
    13  C    4.299859   3.766013   3.105325   2.603929   3.451437
    14  H    4.119690   3.277149   2.676682   2.795080   3.689199
    15  H    5.394012   4.783233   4.162596   3.626750   4.387118
    16  H    4.134960   4.033456   2.928689   2.708266   3.641011
    17  C    5.250050   4.447579   5.266853   3.458775   3.092757
    18  H    5.102608   4.664063   5.386708   3.363182   2.799007
    19  H    6.295645   5.446445   6.175097   4.413077   4.132237
    20  H    5.316494   4.347071   5.496877   3.842001   3.338295
    21  C    4.782922   3.132213   4.325501   3.779382   3.858607
    22  H    5.780968   4.135900   5.412197   4.775136   4.732922
    23  H    4.742386   2.985126   4.041969   4.060134   4.330812
    24  H    4.080160   2.538443   4.017009   3.290126   3.151240
                   11         12         13         14         15
    11  H    0.000000
    12  Cl   2.559768   0.000000
    13  C    2.790221   2.759782   0.000000
    14  H    3.214332   3.737228   1.094908   0.000000
    15  H    3.767784   3.058020   1.095560   1.780089   0.000000
    16  H    2.510512   2.859091   1.096295   1.764441   1.767644
    17  C    4.091032   3.149490   3.951077   4.324581   4.245201
    18  H    3.795572   2.770689   4.278645   4.805969   4.662448
    19  H    4.969879   3.541336   4.409193   4.852767   4.437527
    20  H    4.619335   4.133533   4.669975   4.833892   5.058437
    21  C    4.779480   5.182163   4.028095   3.526988   4.501563
    22  H    5.771241   5.921496   4.948457   4.494584   5.279123
    23  H    5.036351   5.768467   4.131518   3.371177   4.642216
    24  H    4.315448   5.010569   4.254292   3.857133   4.914576
                   16         17         18         19         20
    16  H    0.000000
    17  C    4.745046   0.000000
    18  H    4.870574   1.093665   0.000000
    19  H    5.263014   1.094776   1.773854   0.000000
    20  H    5.491148   1.094934   1.752168   1.771752   0.000000
    21  C    4.951376   3.189938   4.064188   3.772954   2.814270
    22  H    5.929413   3.472730   4.433807   3.839559   2.893024
    23  H    4.978563   4.189342   5.017755   4.781164   3.883746
    24  H    5.041933   3.012172   3.666750   3.831775   2.480613
                   21         22         23         24
    21  C    0.000000
    22  H    1.092985   0.000000
    23  H    1.093320   1.792443   0.000000
    24  H    1.093132   1.778151   1.770852   0.000000
 Stoichiometry    C7H14ClNO
 Framework group  C1[X(C7H14ClNO)]
 Deg. of freedom    66
 Full point group                 C1      NOp   1
 Largest Abelian subgroup         C1      NOp   1
 Largest concise Abelian subgroup C1      NOp   1
                         Standard orientation:                         
 ---------------------------------------------------------------------
 Center     Atomic      Atomic             Coordinates (Angstroms)
 Number     Number       Type             X           Y           Z
 ---------------------------------------------------------------------
      1          6           0       -0.469441   -0.701580   -0.315698
      2          6           0       -1.803251   -0.378831    0.264592
      3          8           0       -2.166601   -0.889811    1.322452
      4          6           0        0.640629   -0.223689    0.323882
      5          6           0        0.482157    2.802381   -0.361908
      6          1           0        1.059196    3.479001   -0.998728
      7          1           0       -0.568663    2.851680   -0.657668
      8          1           0        0.569536    3.136541    0.675552
      9          7           0        0.982317    1.428131   -0.494868
     10          1           0        0.974698    1.215861   -1.499398
     11          1           0        1.990507    1.473482   -0.289958
     12         17           0        2.204239   -1.064978   -0.039058
     13          6           0        0.599198    0.237941    1.789232
     14          1           0       -0.221972    0.936820    1.979152
     15          1           0        0.484669   -0.627229    2.451512
     16          1           0        1.529838    0.745821    2.068212
     17          6           0       -0.506171   -1.498010   -1.583548
     18          1           0        0.436519   -1.456029   -2.136428
     19          1           0       -0.727870   -2.546790   -1.361188
     20          1           0       -1.279431   -1.125041   -2.263138
     21          6           0       -2.695292    0.557049   -0.506428
     22          1           0       -3.558572    0.002998   -0.883778
     23          1           0       -3.024912    1.362668    0.155142
     24          1           0       -2.165992    1.004859   -1.351558
 ---------------------------------------------------------------------
 Rotational constants (GHZ):           1.2552322           0.8692634           0.7181864
 Standard basis: STO-3G (5D, 7F)
 There are    68 symmetry adapted cartesian basis functions of A   symmetry.
 There are    68 symmetry adapted basis functions of A   symmetry.
    68 basis functions,   204 primitive gaussians,    68 cartesian basis functions
    44 alpha electrons       44 beta electrons
       nuclear repulsion energy       665.0561892251 Hartrees.
 NAtoms=   24 NActive=   24 NUniq=   24 SFac= 1.00D+00 NAtFMM=   60 NAOKFM=F Big=F
 Integral buffers will be    131072 words long.
 Raffenetti 1 integral format.
 Two-electron integral symmetry is turned on.
 External calculation of energy, first and second derivatives.
 Running external command "~/scripts/MiMe -H 'pbepbe def2svp' -EF 'wb97xd def2svp' -c 12 -m 48GB R"
         input file       "/local/jobs/1158161/Gau-2801475.EIn"
         output file      "/local/jobs/1158161/Gau-2801475.EOu"
         message file     "/local/jobs/1158161/Gau-2801475.EMs"
         fchk file        "/local/jobs/1158161/Gau-2801475.EFC"
         mat. el file     "/local/jobs/1158161/Gau-2801475.EUF"
 Read checkpoint file Gau-2801475_H.chk type G16
 Write formatted file Gau-2801475_H.fchk

deriv: 2

spelevel: wb97xd def2svp
gradlevel: wb97xd def2svp
hesslevel: pbepbe def2svp

runspe: False
runforce: True
runfreq: True

Running Gaussian ...

Parsing files ...
SPE file: Gau-2801475_F.out
FORCE file: Gau-2801475_F.out
HESS file: Gau-2801475_H.out

 ExternalExternalExternalExternalExternalExternalExternalExternalExternalExternal
 Output from external command:
 "~/scripts/MiMe -H 'pbepbe def2svp' -EF 'wb97xd def2svp' -c 12 -m 48GB R /local/jobs/1158161/Gau-2801475.EIn /local/jobs/1158161/Gau-2801475.EOu /local/jobs/1158161/Gau-2801475.EMs /local/jobs/1158161/Gau-2801475.EFC /local/jobs/1158161/Gau-2801475.EUF"
  
 --------------------------------------------------
 Force calculation at wb97xd def2svp
 Hessian calculation at pbepbe def2svp
 ExternalExternalExternalExternalExternalExternalExternalExternalExternalExternal

 Recovered energy= -864.686600681     dipole=      2.062100000000      5.416600000000     -2.646100000000
 Energy=    -864.686601     NIter=   0.
 Dipole moment=       2.062100       5.416600      -2.646100
 ***** Axes restored to original set *****
 -------------------------------------------------------------------
 Center     Atomic                   Forces (Hartrees/Bohr)
 Number     Number              X              Y              Z
 -------------------------------------------------------------------
      1        6          -0.002524357   -0.008794464    0.010740800
      2        6           0.008218536   -0.025620249    0.024492253
      3        8          -0.000696935    0.019945956   -0.016037902
      4        6          -0.037976309   -0.044906467    0.030617841
      5        6          -0.003202489   -0.006205890    0.004308950
      6        1           0.000214442    0.006613082   -0.002225141
      7        1          -0.004395629   -0.000448568   -0.000196767
      8        1          -0.000083615    0.000438273    0.003424103
      9        7           0.053935154    0.054643268   -0.026235811
     10        1          -0.004099176   -0.007659621    0.005286562
     11        1          -0.003564365    0.000726759   -0.002516217
     12       17          -0.001495736    0.011088421   -0.003041206
     13        6           0.007278419   -0.001336171   -0.011632435
     14        1          -0.004047133   -0.000770268   -0.001645569
     15        1          -0.002224811   -0.001599464   -0.001076458
     16        1           0.003509354    0.001445782   -0.000850574
     17        6           0.004103954    0.007620992   -0.000196375
     18        1           0.004833492   -0.001574944   -0.001419966
     19        1          -0.001216929   -0.006416838   -0.002455783
     20        1          -0.005912335    0.000026960   -0.004381063
     21        6           0.000586805    0.000100163   -0.003652801
     22        1          -0.006912666    0.000851659   -0.000298748
     23        1          -0.005032257    0.000946033    0.003406422
     24        1           0.000704584    0.000885596   -0.004414113
 -------------------------------------------------------------------
 Cartesian Forces:  Max     0.054643268 RMS     0.014005430
 FormGI is forming the generalized inverse of G from B-inverse, IUseBI=4.

 GradGradGradGradGradGradGradGradGradGradGradGradGradGradGradGradGradGrad
 Berny optimization.
 Internal  Forces:  Max     0.057379704 RMS     0.008148635
 Search for a saddle point.
 Step number   1 out of a maximum of   50
 All quantities printed in internal units (Hartrees-Bohrs-Radians)
 Swapping is turned off.
 Second derivative matrix not updated -- analytic derivatives used.
 ITU=  0
     Eigenvalues ---   -0.04984  -0.02041  -0.00785  -0.00598  -0.00517
     Eigenvalues ---   -0.00175  -0.00053   0.00052   0.00362   0.00767
     Eigenvalues ---    0.02281   0.02784   0.03518   0.03694   0.03820
     Eigenvalues ---    0.04238   0.04275   0.04612   0.04671   0.04974
     Eigenvalues ---    0.05086   0.05192   0.06773   0.07547   0.08058
     Eigenvalues ---    0.08685   0.10295   0.10403   0.10646   0.10977
     Eigenvalues ---    0.11188   0.11361   0.11835   0.12255   0.12608
     Eigenvalues ---    0.13140   0.13796   0.15429   0.15636   0.15918
     Eigenvalues ---    0.16683   0.18660   0.18720   0.20072   0.20636
     Eigenvalues ---    0.27189   0.30422   0.32493   0.32958   0.33707
     Eigenvalues ---    0.34617   0.34922   0.35037   0.35319   0.35489
     Eigenvalues ---    0.35592   0.35744   0.35790   0.35843   0.35889
     Eigenvalues ---    0.35966   0.36576   0.41610   0.42803   0.56193
     Eigenvalues ---    0.78431
 Eigenvectors required to have negative eigenvalues:
                          R6        A19       D1        D3        D2
   1                    0.46104   0.42545  -0.35039  -0.33734  -0.29004
                          D4        A21       A20       D10       D7
   1                   -0.27698  -0.20803  -0.17262  -0.11435  -0.09805
 RFO step:  Lambda0=4.751942680D-04 Lambda=-5.26230084D-02.
 Linear search not attempted -- option 19 set.
 Maximum step size (   0.100) exceeded in Quadratic search.
    -- Step size scaled by   0.140
 Iteration  1 RMS(Cart)=  0.04084026 RMS(Int)=  0.00066930
 Iteration  2 RMS(Cart)=  0.00082418 RMS(Int)=  0.00002351
 Iteration  3 RMS(Cart)=  0.00000038 RMS(Int)=  0.00002351
 Variable       Old X    -DE/DX   Delta X   Delta X   Delta X     New X
                                 (Linear)    (Quad)   (Total)
    R1        2.81560   0.00354   0.00000   0.00036   0.00036   2.81596
    R2        2.58395   0.00462   0.00000  -0.00474  -0.00474   2.57921
    R3        2.83024   0.00730   0.00000   0.00168   0.00168   2.83191
    R4        2.32382  -0.02188   0.00000  -0.00515  -0.00515   2.31867
    R5        2.84470   0.01058   0.00000   0.00435   0.00435   2.84905
    R6        3.54323   0.05738   0.00000   0.08837   0.08837   3.63160
    R7        3.42472  -0.00583   0.00000  -0.01320  -0.01320   3.41152
    R8        2.90432  -0.01530   0.00000  -0.00910  -0.00910   2.89523
    R9        2.06692   0.00550   0.00000   0.00286   0.00286   2.06979
   R10        2.06502   0.00426   0.00000   0.00176   0.00176   2.06678
   R11        2.06631   0.00338   0.00000   0.00176   0.00176   2.06807
   R12        2.77500   0.00340   0.00000  -0.00423  -0.00423   2.77078
   R13        1.94026  -0.00356   0.00000  -0.00128  -0.00128   1.93898
   R14        1.94604  -0.00396   0.00000  -0.00290  -0.00290   1.94315
   R15        2.06908   0.00226   0.00000   0.00033   0.00033   2.06941
   R16        2.07031   0.00085   0.00000   0.00088   0.00088   2.07118
   R17        2.07170   0.00343   0.00000   0.00079   0.00079   2.07249
   R18        2.06673   0.00482   0.00000   0.00061   0.00061   2.06734
   R19        2.06883   0.00589   0.00000   0.00128   0.00128   2.07010
   R20        2.06913   0.00691   0.00000   0.00209   0.00209   2.07122
   R21        2.06544   0.00513   0.00000   0.00166   0.00166   2.06710
   R22        2.06607   0.00428   0.00000   0.00148   0.00148   2.06755
   R23        2.06572   0.00412   0.00000   0.00153   0.00153   2.06725
    A1        2.05881   0.00338   0.00000  -0.00309  -0.00311   2.05571
    A2        2.00748   0.00286   0.00000   0.00497   0.00495   2.01243
    A3        2.21645  -0.00626   0.00000  -0.00219  -0.00220   2.21425
    A4        2.10545   0.01312   0.00000   0.00955   0.00953   2.11498
    A5        2.05519   0.00032   0.00000  -0.00524  -0.00525   2.04994
    A6        2.12216  -0.01342   0.00000  -0.00405  -0.00406   2.11810
    A7        1.82512   0.02299   0.00000   0.00566   0.00572   1.83084
    A8        2.03143  -0.00150   0.00000   0.00105   0.00102   2.03245
    A9        2.12829  -0.00276   0.00000   0.00931   0.00928   2.13757
   A10        1.73583  -0.01285   0.00000  -0.00459  -0.00462   1.73121
   A11        1.72808  -0.01212   0.00000  -0.01918  -0.01918   1.70890
   A12        1.93225   0.00418   0.00000   0.00055   0.00042   1.93267
   A13        1.89846  -0.00187   0.00000  -0.00277  -0.00278   1.89568
   A14        1.89780  -0.00175   0.00000  -0.00321  -0.00320   1.89459
   A15        1.92465   0.00697   0.00000   0.01361   0.01361   1.93826
   A16        1.89637   0.00011   0.00000  -0.00260  -0.00261   1.89376
   A17        1.92329  -0.00181   0.00000  -0.00166  -0.00168   1.92162
   A18        1.92270  -0.00176   0.00000  -0.00362  -0.00363   1.91907
   A19        2.37870  -0.01980   0.00000  -0.02192  -0.02192   2.35678
   A20        1.81701  -0.00103   0.00000   0.00540   0.00543   1.82244
   A21        1.70149   0.00842   0.00000   0.00023   0.00023   1.70172
   A22        1.85410   0.01330   0.00000   0.00992   0.00990   1.86400
   A23        1.84858   0.00376   0.00000   0.00882   0.00874   1.85732
   A24        1.78344  -0.00159   0.00000   0.00222   0.00216   1.78561
   A25        1.95770  -0.00345   0.00000  -0.00092  -0.00093   1.95677
   A26        1.91983  -0.00194   0.00000  -0.00056  -0.00056   1.91927
   A27        1.93788  -0.00088   0.00000  -0.00148  -0.00148   1.93640
   A28        1.89738   0.00114   0.00000  -0.00149  -0.00149   1.89589
   A29        1.87215   0.00307   0.00000   0.00330   0.00330   1.87545
   A30        1.87628   0.00245   0.00000   0.00132   0.00132   1.87760
   A31        1.96752  -0.00096   0.00000  -0.00414  -0.00413   1.96338
   A32        1.92033   0.00447   0.00000   0.00165   0.00165   1.92197
   A33        1.94078   0.00157   0.00000   0.00215   0.00215   1.94293
   A34        1.89020  -0.00266   0.00000  -0.00047  -0.00047   1.88974
   A35        1.85656   0.00060   0.00000   0.00275   0.00275   1.85931
   A36        1.88533  -0.00339   0.00000  -0.00195  -0.00195   1.88338
   A37        1.90681   0.00361   0.00000   0.00190   0.00190   1.90870
   A38        1.90375  -0.00070   0.00000  -0.00119  -0.00119   1.90255
   A39        1.94308   0.00185   0.00000   0.00222   0.00222   1.94529
   A40        1.92230  -0.00465   0.00000  -0.00441  -0.00441   1.91789
   A41        1.89989  -0.00157   0.00000   0.00023   0.00022   1.90011
   A42        1.88803   0.00132   0.00000   0.00114   0.00114   1.88918
    D1       -1.22698   0.00588   0.00000   0.02869   0.02870  -1.19827
    D2        1.94404   0.00491   0.00000   0.01876   0.01872   1.96277
    D3        1.94433   0.00648   0.00000   0.03892   0.03895   1.98328
    D4       -1.16784   0.00551   0.00000   0.02899   0.02897  -1.13887
    D5       -1.59935  -0.00043   0.00000   0.03381   0.03379  -1.56556
    D6        2.78890   0.00161   0.00000   0.03539   0.03538   2.82428
    D7        0.33200   0.00015   0.00000   0.01825   0.01824   0.35024
    D8        1.50853  -0.00091   0.00000   0.02233   0.02234   1.53088
    D9       -0.38640   0.00113   0.00000   0.02392   0.02393  -0.36247
   D10       -2.84330  -0.00033   0.00000   0.00677   0.00679  -2.83651
   D11        2.83489   0.00054   0.00000   0.00750   0.00749   2.84238
   D12       -1.33643  -0.00035   0.00000   0.00527   0.00526  -1.33117
   D13        0.75168  -0.00066   0.00000   0.00529   0.00529   0.75696
   D14       -0.27385   0.00099   0.00000   0.01882   0.01882  -0.25502
   D15        1.83802   0.00011   0.00000   0.01659   0.01660   1.85461
   D16       -2.35706  -0.00021   0.00000   0.01661   0.01662  -2.34044
   D17        1.94997   0.00278   0.00000   0.02553   0.02551   1.97548
   D18       -2.23109  -0.00113   0.00000   0.02057   0.02056  -2.21053
   D19       -0.14891   0.00120   0.00000   0.02259   0.02257  -0.12634
   D20       -1.16190   0.00132   0.00000   0.01525   0.01527  -1.14663
   D21        0.94023  -0.00259   0.00000   0.01030   0.01032   0.95054
   D22        3.02241  -0.00026   0.00000   0.01232   0.01233   3.03474
   D23        1.43741  -0.00069   0.00000  -0.00423  -0.00424   1.43316
   D24       -0.88115   0.00103   0.00000  -0.00380  -0.00381  -0.88496
   D25       -2.70722   0.00044   0.00000  -0.00729  -0.00726  -2.71448
   D26       -2.74106   0.00052   0.00000  -0.00296  -0.00301  -2.74407
   D27        1.22357   0.00224   0.00000  -0.00253  -0.00258   1.22099
   D28       -0.60250   0.00164   0.00000  -0.00602  -0.00603  -0.60853
   D29       -0.77029  -0.00125   0.00000  -0.00826  -0.00825  -0.77854
   D30       -3.08884   0.00047   0.00000  -0.00783  -0.00782  -3.09666
   D31        1.36827  -0.00013   0.00000  -0.01132  -0.01127   1.35701
   D32       -0.87411  -0.00516   0.00000   0.00955   0.00958  -0.86453
   D33        1.23994  -0.00737   0.00000   0.00665   0.00668   1.24662
   D34       -2.96856  -0.00612   0.00000   0.00700   0.00703  -2.96153
   D35        1.10719   0.01349   0.00000   0.00645   0.00642   1.11361
   D36       -3.06195   0.01128   0.00000   0.00355   0.00353  -3.05842
   D37       -0.98726   0.01253   0.00000   0.00390   0.00387  -0.98339
   D38        2.91807  -0.00476   0.00000  -0.00667  -0.00667   2.91140
   D39       -1.25107  -0.00697   0.00000  -0.00957  -0.00957  -1.26064
   D40        0.82362  -0.00572   0.00000  -0.00922  -0.00922   0.81440
   D41        3.04041   0.00282   0.00000  -0.00974  -0.00975   3.03066
   D42       -0.93519  -0.00349   0.00000  -0.01187  -0.01191  -0.94710
   D43        0.95247   0.00150   0.00000  -0.00194  -0.00190   0.95057
   D44       -1.14670   0.00379   0.00000  -0.00554  -0.00555  -1.15225
   D45        1.16088  -0.00252   0.00000  -0.00767  -0.00771   1.15318
   D46        3.04855   0.00247   0.00000   0.00226   0.00230   3.05084
   D47        0.94553   0.00167   0.00000  -0.01213  -0.01213   0.93341
   D48       -3.03006  -0.00464   0.00000  -0.01425  -0.01428  -3.04435
   D49       -1.14240   0.00035   0.00000  -0.00432  -0.00428  -1.14668
         Item               Value     Threshold  Converged?
 Maximum Force            0.057380     0.000450     NO 
 RMS     Force            0.008149     0.000300     NO 
 Maximum Displacement     0.138384     0.001800     NO 
 RMS     Displacement     0.040855     0.001200     NO 
 Predicted change in Energy=-7.800318D-03
 GradGradGradGradGradGradGradGradGradGradGradGradGradGradGradGradGradGrad

                          Input orientation:                          
 ---------------------------------------------------------------------
 Center     Atomic      Atomic             Coordinates (Angstroms)
 Number     Number       Type             X           Y           Z
 ---------------------------------------------------------------------
      1          6           0       -0.474912   -0.718435   -0.309579
      2          6           0       -1.803036   -0.362889    0.265049
      3          8           0       -2.170269   -0.816581    1.344309
      4          6           0        0.638742   -0.244769    0.321496
      5          6           0        0.469185    2.817570   -0.329324
      6          1           0        1.030169    3.532258   -0.941015
      7          1           0       -0.583873    2.858834   -0.621781
      8          1           0        0.550330    3.118199    0.719819
      9          7           0        0.986978    1.456640   -0.501366
     10          1           0        0.976251    1.260365   -1.508423
     11          1           0        1.993841    1.500837   -0.297381
     12         17           0        2.195117   -1.074889   -0.062822
     13          6           0        0.620591    0.225810    1.779412
     14          1           0       -0.198277    0.925665    1.976555
     15          1           0        0.514190   -0.635139    2.449272
     16          1           0        1.557219    0.733796    2.039141
     17          6           0       -0.518281   -1.528002   -1.569925
     18          1           0        0.432497   -1.511619   -2.110819
     19          1           0       -0.764746   -2.570309   -1.340001
     20          1           0       -1.277616   -1.146969   -2.262405
     21          6           0       -2.686730    0.553862   -0.542210
     22          1           0       -3.570902    0.003463   -0.876630
     23          1           0       -2.989038    1.399188    0.083165
     24          1           0       -2.162049    0.946353   -1.418209
 ---------------------------------------------------------------------
                    Distance matrix (angstroms):
                    1          2          3          4          5
     1  C    0.000000
     2  C    1.490143   0.000000
     3  O    2.370488   1.226987   0.000000
     4  C    1.364859   2.445285   3.043626   0.000000
     5  C    3.659924   3.953681   4.793206   3.135321   0.000000
     6  H    4.553281   4.965260   5.863267   4.001634   1.095283
     7  H    3.592520   3.557011   4.459914   3.466542   1.093694
     8  H    4.102504   4.226478   4.824327   3.387629   1.094378
     9  N    2.627709   3.417931   4.306072   1.921760   1.466233
    10  H    2.731072   3.674860   4.727830   2.393313   2.017989
    11  H    3.319647   4.266857   5.040374   2.294872   2.014791
    12  Cl   2.704995   4.074269   4.593836   1.805298   4.266275
    13  C    2.540789   2.917847   3.010780   1.532088   3.344684
    14  H    2.829488   2.676729   2.706272   2.193111   3.056450
    15  H    2.931982   3.196011   2.908640   2.166872   4.432136
    16  H    3.428559   3.954925   4.096416   2.179792   3.336999
    17  C    1.498584   2.524919   3.424608   2.561809   4.625817
    18  H    2.167255   3.458603   4.381252   2.750201   4.681555
    19  H    2.138974   2.920092   3.500939   3.184100   5.619012
    20  H    2.154416   2.697939   3.730197   3.341099   4.744016
    21  C    2.562225   1.507652   2.388263   3.527402   3.889665
    22  H    3.229217   2.136117   2.750784   4.383861   4.953893
    23  H    3.310499   2.131806   2.677778   3.990010   3.760487
    24  H    2.616680   2.162490   3.277119   3.505678   3.407421
                    6          7          8          9         10
     6  H    0.000000
     7  H    1.777791   0.000000
     8  H    1.777655   1.775831   0.000000
     9  N    2.122109   2.109081   2.107779   0.000000
    10  H    2.342297   2.403170   2.932238   1.026062   0.000000
    11  H    2.338718   2.931553   2.394635   1.028269   1.599981
    12  Cl   4.832611   4.848649   4.571634   2.839113   3.004797
    13  C    4.301287   3.761553   3.081166   2.617466   3.465063
    14  H    4.100685   3.261468   2.635716   2.797652   3.692779
    15  H    5.396988   4.779640   4.132779   3.647648   4.412459
    16  H    4.121954   4.022508   2.905136   2.702195   3.633182
    17  C    5.329114   4.488609   5.288860   3.509375   3.164238
    18  H    5.212135   4.727696   5.427855   3.421747   2.888330
    19  H    6.373557   5.479430   6.191236   4.470813   4.211117
    20  H    5.382110   4.383992   5.516040   3.874071   3.382849
    21  C    4.779667   3.121095   4.318228   3.783226   3.853588
    22  H    5.798827   4.140101   5.406920   4.798626   4.759787
    23  H    4.664006   2.900402   3.985906   4.019163   4.275037
    24  H    4.135803   2.604327   4.079837   3.319241   3.155260
                   11         12         13         14         15
    11  H    0.000000
    12  Cl   2.594203   0.000000
    13  C    2.797244   2.750414   0.000000
    14  H    3.210449   3.726876   1.095083   0.000000
    15  H    3.780987   3.054425   1.096024   1.779658   0.000000
    16  H    2.497664   2.845435   1.096713   1.767058   1.769209
    17  C    4.135697   3.136750   3.948538   4.324397   4.244662
    18  H    3.847238   2.737125   4.264732   4.800506   4.644278
    19  H    5.027036   3.553626   4.412276   4.852038   4.442877
    20  H    4.644849   4.111355   4.671616   4.840410   5.066798
    21  C    4.781677   5.168662   4.054124   3.560170   4.539667
    22  H    5.791720   5.922170   4.967153   4.512840   5.306356
    23  H    4.998422   5.746114   4.157341   3.405510   4.691434
    24  H    4.339945   4.990730   4.299657   3.921894   4.961933
                   16         17         18         19         20
    16  H    0.000000
    17  C    4.738016   0.000000
    18  H    4.850676   1.093989   0.000000
    19  H    5.265665   1.095452   1.774366   0.000000
    20  H    5.484238   1.096040   1.755117   1.771937   0.000000
    21  C    4.970598   3.176873   4.056639   3.753790   2.799553
    22  H    5.944134   3.484901   4.454874   3.835822   2.915995
    23  H    4.993700   4.172024   4.999326   4.767576   3.861810
    24  H    5.082460   2.974462   3.640468   3.784902   2.424229
                   21         22         23         24
    21  C    0.000000
    22  H    1.093864   0.000000
    23  H    1.094102   1.791039   0.000000
    24  H    1.093944   1.779668   1.772877   0.000000
 Stoichiometry    C7H14ClNO
 Framework group  C1[X(C7H14ClNO)]
 Deg. of freedom    66
 Full point group                 C1      NOp   1
 Largest Abelian subgroup         C1      NOp   1
 Largest concise Abelian subgroup C1      NOp   1
                         Standard orientation:                         
 ---------------------------------------------------------------------
 Center     Atomic      Atomic             Coordinates (Angstroms)
 Number     Number       Type             X           Y           Z
 ---------------------------------------------------------------------
      1          6           0       -0.462803   -0.734806   -0.290455
      2          6           0       -1.795537   -0.386162    0.277693
      3          8           0       -2.155285   -0.821421    1.367018
      4          6           0        0.644299   -0.231253    0.328900
      5          6           0        0.429563    2.813306   -0.388586
      6          1           0        0.979587    3.522531   -1.016374
      7          1           0       -0.624209    2.832802   -0.680736
      8          1           0        0.507111    3.137982    0.653639
      9          7           0        0.967034    1.456627   -0.531369
     10          1           0        0.958405    1.238216   -1.533879
     11          1           0        1.973300    1.519951   -0.329489
     12         17           0        2.212331   -1.046814   -0.038847
     13          6           0        0.620393    0.270817    1.776189
     14          1           0       -0.208453    0.962810    1.958858
     15          1           0        0.527081   -0.576720    2.464841
     16          1           0        1.549704    0.797966    2.023727
     17          6           0       -0.495313   -1.572319   -1.532738
     18          1           0        0.454712   -1.553925   -2.074889
     19          1           0       -0.726361   -2.612824   -1.279796
     20          1           0       -1.260657   -1.217647   -2.232567
     21          6           0       -2.693134    0.499717   -0.548475
     22          1           0       -3.569433   -0.070702   -0.869815
     23          1           0       -3.007272    1.354035    0.058581
     24          1           0       -2.174907    0.880541   -1.433419
 ---------------------------------------------------------------------
 Rotational constants (GHZ):           1.2463921           0.8704476           0.7164836
 Standard basis: STO-3G (5D, 7F)
 There are    68 symmetry adapted cartesian basis functions of A   symmetry.
 There are    68 symmetry adapted basis functions of A   symmetry.
    68 basis functions,   204 primitive gaussians,    68 cartesian basis functions
    44 alpha electrons       44 beta electrons
       nuclear repulsion energy       664.2906960797 Hartrees.
 NAtoms=   24 NActive=   24 NUniq=   24 SFac= 1.00D+00 NAtFMM=   60 NAOKFM=F Big=F
 Integral buffers will be    131072 words long.
 Raffenetti 1 integral format.
 Two-electron integral symmetry is turned on.
 External calculation of energy, first and second derivatives.
 Running external command "~/scripts/MiMe -H 'pbepbe def2svp' -EF 'wb97xd def2svp' -c 12 -m 48GB R"
         input file       "/local/jobs/1158161/Gau-2801475.EIn"
         output file      "/local/jobs/1158161/Gau-2801475.EOu"
         message file     "/local/jobs/1158161/Gau-2801475.EMs"
         fchk file        "/local/jobs/1158161/Gau-2801475.EFC"
         mat. el file     "/local/jobs/1158161/Gau-2801475.EUF"
 Read checkpoint file Gau-2801475_H.chk type G16
 Write formatted file Gau-2801475_H.fchk

deriv: 2

spelevel: wb97xd def2svp
gradlevel: wb97xd def2svp
hesslevel: pbepbe def2svp

runspe: False
runforce: True
runfreq: True

Running Gaussian ...

Parsing files ...
SPE file: Gau-2801475_F.out
FORCE file: Gau-2801475_F.out
HESS file: Gau-2801475_H.out

 ExternalExternalExternalExternalExternalExternalExternalExternalExternalExternal
 Output from external command:
 "~/scripts/MiMe -H 'pbepbe def2svp' -EF 'wb97xd def2svp' -c 12 -m 48GB R /local/jobs/1158161/Gau-2801475.EIn /local/jobs/1158161/Gau-2801475.EOu /local/jobs/1158161/Gau-2801475.EMs /local/jobs/1158161/Gau-2801475.EFC /local/jobs/1158161/Gau-2801475.EUF"
  
 --------------------------------------------------
 Force calculation at wb97xd def2svp
 Hessian calculation at pbepbe def2svp
 ExternalExternalExternalExternalExternalExternalExternalExternalExternalExternal

 Recovered energy= -864.694267691     dipole=      1.825400000000      5.005300000000     -2.770800000000
 Energy=    -864.694268     NIter=   0.
 Dipole moment=       1.825400       5.005300      -2.770800
 ***** Axes restored to original set *****
 -------------------------------------------------------------------
 Center     Atomic                   Forces (Hartrees/Bohr)
 Number     Number              X              Y              Z
 -------------------------------------------------------------------
      1        6          -0.000694901   -0.007588736    0.010052952
      2        6           0.005995240   -0.020175204    0.021708245
      3        8           0.000179810    0.016484611   -0.014740469
      4        6          -0.034266867   -0.046736491    0.029734582
      5        6          -0.002268345   -0.005666533    0.003324226
      6        1           0.000055073    0.005926055   -0.001831132
      7        1          -0.003940270   -0.000426440   -0.000080987
      8        1          -0.000208849    0.000394501    0.002983754
      9        7           0.047402118    0.053109747   -0.025042324
     10        1          -0.004012448   -0.007077856    0.004589573
     11        1          -0.003093820    0.000383674   -0.001820622
     12       17          -0.001092499    0.010572411   -0.003162992
     13        6           0.006534508   -0.000512109   -0.010538992
     14        1          -0.003651324   -0.000823106   -0.001329175
     15        1          -0.002014714   -0.001410070   -0.000931117
     16        1           0.002971945    0.001300257   -0.000777754
     17        6           0.003657104    0.007246572   -0.000678331
     18        1           0.004177687   -0.001549060   -0.001041003
     19        1          -0.001168859   -0.005646582   -0.002021061
     20        1          -0.005156922   -0.000010202   -0.003761436
     21        6           0.000691952   -0.000398314   -0.003819169
     22        1          -0.006146388    0.000983579   -0.000120487
     23        1          -0.004430470    0.000915332    0.003173129
     24        1           0.000481240    0.000703964   -0.003869406
 -------------------------------------------------------------------
 Cartesian Forces:  Max     0.053109747 RMS     0.013063999
 FormGI is forming the generalized inverse of G from B-inverse, IUseBI=4.

 GradGradGradGradGradGradGradGradGradGradGradGradGradGradGradGradGradGrad
 Berny optimization.
 Internal  Forces:  Max     0.055100669 RMS     0.007372510
 Search for a saddle point.
 Step number   2 out of a maximum of   50
 All quantities printed in internal units (Hartrees-Bohrs-Radians)
 Swapping is turned off.
 Second derivative matrix not updated -- analytic derivatives used.
 ITU=  0  0
     Eigenvalues ---   -0.04289  -0.01599  -0.00776  -0.00569  -0.00521
     Eigenvalues ---   -0.00184  -0.00040   0.00078   0.00412   0.00744
     Eigenvalues ---    0.02126   0.02791   0.03350   0.03705   0.03830
     Eigenvalues ---    0.04228   0.04277   0.04616   0.04658   0.04970
     Eigenvalues ---    0.05030   0.05128   0.06698   0.07379   0.08034
     Eigenvalues ---    0.08691   0.10269   0.10484   0.10628   0.10961
     Eigenvalues ---    0.11196   0.11388   0.11813   0.12325   0.12582
     Eigenvalues ---    0.13160   0.13661   0.15432   0.15541   0.16233
     Eigenvalues ---    0.16536   0.18487   0.19001   0.20494   0.20786
     Eigenvalues ---    0.27807   0.30180   0.32504   0.32918   0.33713
     Eigenvalues ---    0.34490   0.34808   0.34862   0.35270   0.35395
     Eigenvalues ---    0.35543   0.35595   0.35615   0.35681   0.35738
     Eigenvalues ---    0.35805   0.36540   0.42124   0.43016   0.56777
     Eigenvalues ---    0.79775
 Eigenvectors required to have negative eigenvalues:
                          A19       R6        D1        D3        D2
   1                   -0.40446  -0.38136   0.37914   0.37411   0.31259
                          D4        A21       A20       D10       D7
   1                    0.30756   0.19603   0.16906   0.13471   0.12704
 RFO step:  Lambda0=2.387513000D-04 Lambda=-4.76034021D-02.
 Linear search not attempted -- option 19 set.
 Maximum step size (   0.100) exceeded in Quadratic search.
    -- Step size scaled by   0.129
 Iteration  1 RMS(Cart)=  0.03870005 RMS(Int)=  0.00051566
 Iteration  2 RMS(Cart)=  0.00067088 RMS(Int)=  0.00002213
 Iteration  3 RMS(Cart)=  0.00000024 RMS(Int)=  0.00002212
 Variable       Old X    -DE/DX   Delta X   Delta X   Delta X     New X
                                 (Linear)    (Quad)   (Total)
    R1        2.81596   0.00342   0.00000   0.00123   0.00123   2.81719
    R2        2.57921   0.00285   0.00000  -0.00521  -0.00521   2.57400
    R3        2.83191   0.00624   0.00000   0.00112   0.00112   2.83303
    R4        2.31867  -0.01911   0.00000  -0.00453  -0.00453   2.31414
    R5        2.84905   0.00933   0.00000   0.00330   0.00330   2.85235
    R6        3.63160   0.05510   0.00000   0.09223   0.09223   3.72383
    R7        3.41152  -0.00513   0.00000  -0.01149  -0.01149   3.40003
    R8        2.89523  -0.01341   0.00000  -0.00818  -0.00818   2.88705
    R9        2.06979   0.00492   0.00000   0.00263   0.00263   2.07241
   R10        2.06678   0.00380   0.00000   0.00145   0.00145   2.06823
   R11        2.06807   0.00295   0.00000   0.00161   0.00161   2.06969
   R12        2.77078   0.00298   0.00000  -0.00275  -0.00275   2.76803
   R13        1.93898  -0.00311   0.00000  -0.00109  -0.00109   1.93788
   R14        1.94315  -0.00337   0.00000  -0.00236  -0.00236   1.94078
   R15        2.06941   0.00196   0.00000   0.00016   0.00016   2.06957
   R16        2.07118   0.00073   0.00000   0.00096   0.00096   2.07215
   R17        2.07249   0.00296   0.00000   0.00056   0.00056   2.07304
   R18        2.06734   0.00412   0.00000   0.00039   0.00039   2.06773
   R19        2.07010   0.00521   0.00000   0.00102   0.00102   2.07112
   R20        2.07122   0.00595   0.00000   0.00152   0.00152   2.07274
   R21        2.06710   0.00451   0.00000   0.00129   0.00129   2.06839
   R22        2.06755   0.00374   0.00000   0.00118   0.00118   2.06873
   R23        2.06725   0.00358   0.00000   0.00111   0.00111   2.06837
    A1        2.05571   0.00338   0.00000  -0.00314  -0.00316   2.05255
    A2        2.01243   0.00214   0.00000   0.00377   0.00374   2.01617
    A3        2.21425  -0.00554   0.00000  -0.00111  -0.00113   2.21312
    A4        2.11498   0.01029   0.00000   0.00782   0.00781   2.12279
    A5        2.04994   0.00105   0.00000  -0.00498  -0.00499   2.04494
    A6        2.11810  -0.01132   0.00000  -0.00268  -0.00269   2.11541
    A7        1.83084   0.01922   0.00000   0.00208   0.00216   1.83300
    A8        2.03245  -0.00101   0.00000   0.00148   0.00143   2.03388
    A9        2.13757  -0.00181   0.00000   0.01046   0.01039   2.14797
   A10        1.73121  -0.01171   0.00000  -0.00336  -0.00339   1.72782
   A11        1.70890  -0.01036   0.00000  -0.01929  -0.01927   1.68964
   A12        1.93267   0.00340   0.00000   0.00038   0.00025   1.93292
   A13        1.89568  -0.00165   0.00000  -0.00264  -0.00265   1.89302
   A14        1.89459  -0.00158   0.00000  -0.00316  -0.00316   1.89143
   A15        1.93826   0.00610   0.00000   0.01214   0.01213   1.95038
   A16        1.89376  -0.00005   0.00000  -0.00290  -0.00291   1.89085
   A17        1.92162  -0.00160   0.00000  -0.00085  -0.00086   1.92076
   A18        1.91907  -0.00134   0.00000  -0.00294  -0.00295   1.91612
   A19        2.35678  -0.01621   0.00000  -0.01013  -0.01013   2.34665
   A20        1.82244  -0.00151   0.00000   0.00314   0.00316   1.82561
   A21        1.70172   0.00685   0.00000  -0.00559  -0.00560   1.69611
   A22        1.86400   0.01131   0.00000   0.00648   0.00648   1.87048
   A23        1.85732   0.00321   0.00000   0.00605   0.00599   1.86331
   A24        1.78561  -0.00118   0.00000   0.00181   0.00179   1.78740
   A25        1.95677  -0.00303   0.00000  -0.00067  -0.00067   1.95610
   A26        1.91927  -0.00178   0.00000  -0.00050  -0.00050   1.91877
   A27        1.93640  -0.00064   0.00000  -0.00122  -0.00122   1.93518
   A28        1.89589   0.00095   0.00000  -0.00103  -0.00103   1.89486
   A29        1.87545   0.00267   0.00000   0.00297   0.00297   1.87842
   A30        1.87760   0.00216   0.00000   0.00056   0.00056   1.87815
   A31        1.96338  -0.00085   0.00000  -0.00354  -0.00354   1.95985
   A32        1.92197   0.00377   0.00000   0.00067   0.00067   1.92264
   A33        1.94293   0.00139   0.00000   0.00179   0.00179   1.94472
   A34        1.88974  -0.00230   0.00000  -0.00006  -0.00006   1.88968
   A35        1.85931   0.00064   0.00000   0.00270   0.00270   1.86200
   A36        1.88338  -0.00297   0.00000  -0.00151  -0.00151   1.88187
   A37        1.90870   0.00326   0.00000   0.00146   0.00146   1.91016
   A38        1.90255  -0.00093   0.00000  -0.00109  -0.00109   1.90146
   A39        1.94529   0.00190   0.00000   0.00191   0.00190   1.94720
   A40        1.91789  -0.00416   0.00000  -0.00362  -0.00362   1.91427
   A41        1.90011  -0.00140   0.00000   0.00030   0.00029   1.90041
   A42        1.88918   0.00120   0.00000   0.00095   0.00095   1.89012
    D1       -1.19827   0.00509   0.00000   0.02065   0.02066  -1.17761
    D2        1.96277   0.00425   0.00000   0.01127   0.01125   1.97402
    D3        1.98328   0.00588   0.00000   0.03257   0.03260   2.01587
    D4       -1.13887   0.00504   0.00000   0.02320   0.02319  -1.11568
    D5       -1.56556  -0.00047   0.00000   0.03838   0.03837  -1.52719
    D6        2.82428   0.00228   0.00000   0.04049   0.04048   2.86476
    D7        0.35024   0.00007   0.00000   0.02043   0.02041   0.37065
    D8        1.53088  -0.00114   0.00000   0.02502   0.02503   1.55591
    D9       -0.36247   0.00162   0.00000   0.02713   0.02714  -0.33532
   D10       -2.83651  -0.00060   0.00000   0.00706   0.00707  -2.82944
   D11        2.84238   0.00044   0.00000   0.00494   0.00493   2.84731
   D12       -1.33117  -0.00043   0.00000   0.00295   0.00294  -1.32823
   D13        0.75696  -0.00077   0.00000   0.00266   0.00265   0.75961
   D14       -0.25502   0.00105   0.00000   0.01817   0.01818  -0.23685
   D15        1.85461   0.00018   0.00000   0.01618   0.01619   1.87080
   D16       -2.34044  -0.00015   0.00000   0.01589   0.01590  -2.32454
   D17        1.97548   0.00245   0.00000   0.02190   0.02189   1.99737
   D18       -2.21053  -0.00122   0.00000   0.01770   0.01769  -2.19284
   D19       -0.12634   0.00083   0.00000   0.01934   0.01933  -0.10701
   D20       -1.14663   0.00136   0.00000   0.01238   0.01239  -1.13423
   D21        0.95054  -0.00232   0.00000   0.00819   0.00820   0.95874
   D22        3.03474  -0.00026   0.00000   0.00983   0.00984   3.04458
   D23        1.43316  -0.00053   0.00000   0.00113   0.00114   1.43430
   D24       -0.88496   0.00106   0.00000  -0.00329  -0.00329  -0.88825
   D25       -2.71448   0.00055   0.00000  -0.00416  -0.00412  -2.71860
   D26       -2.74407   0.00026   0.00000   0.00211   0.00207  -2.74201
   D27        1.22099   0.00185   0.00000  -0.00232  -0.00236   1.21863
   D28       -0.60853   0.00135   0.00000  -0.00319  -0.00319  -0.61172
   D29       -0.77854  -0.00118   0.00000  -0.00274  -0.00274  -0.78128
   D30       -3.09666   0.00041   0.00000  -0.00716  -0.00716  -3.10382
   D31        1.35701  -0.00010   0.00000  -0.00803  -0.00800   1.34901
   D32       -0.86453  -0.00382   0.00000   0.01716   0.01719  -0.84734
   D33        1.24662  -0.00587   0.00000   0.01507   0.01510   1.26172
   D34       -2.96153  -0.00473   0.00000   0.01468   0.01471  -2.94682
   D35        1.11361   0.01182   0.00000   0.00970   0.00968   1.12329
   D36       -3.05842   0.00976   0.00000   0.00761   0.00758  -3.05084
   D37       -0.98339   0.01091   0.00000   0.00722   0.00719  -0.97620
   D38        2.91140  -0.00457   0.00000  -0.00200  -0.00200   2.90939
   D39       -1.26064  -0.00662   0.00000  -0.00410  -0.00410  -1.26474
   D40        0.81440  -0.00547   0.00000  -0.00448  -0.00449   0.80991
   D41        3.03066   0.00262   0.00000  -0.01314  -0.01315   3.01750
   D42       -0.94710  -0.00322   0.00000  -0.00987  -0.00989  -0.95699
   D43        0.95057   0.00147   0.00000  -0.00263  -0.00261   0.94796
   D44       -1.15225   0.00345   0.00000  -0.00913  -0.00913  -1.16138
   D45        1.15318  -0.00239   0.00000  -0.00585  -0.00587   1.14731
   D46        3.05084   0.00230   0.00000   0.00139   0.00142   3.05226
   D47        0.93341   0.00155   0.00000  -0.01507  -0.01508   0.91833
   D48       -3.04435  -0.00429   0.00000  -0.01180  -0.01182  -3.05616
   D49       -1.14668   0.00040   0.00000  -0.00456  -0.00453  -1.15121
         Item               Value     Threshold  Converged?
 Maximum Force            0.055101     0.000450     NO 
 RMS     Force            0.007373     0.000300     NO 
 Maximum Displacement     0.127518     0.001800     NO 
 RMS     Displacement     0.038773     0.001200     NO 
 Predicted change in Energy=-6.761097D-03
 GradGradGradGradGradGradGradGradGradGradGradGradGradGradGradGradGradGrad

                          Input orientation:                          
 ---------------------------------------------------------------------
 Center     Atomic      Atomic             Coordinates (Angstroms)
 Number     Number       Type             X           Y           Z
 ---------------------------------------------------------------------
      1          6           0       -0.480000   -0.738457   -0.302569
      2          6           0       -1.803093   -0.349438    0.263606
      3          8           0       -2.176483   -0.751725    1.358302
      4          6           0        0.636098   -0.268643    0.321069
      5          6           0        0.456151    2.838142   -0.301096
      6          1           0        1.005512    3.581511   -0.891263
      7          1           0       -0.598903    2.877591   -0.589453
      8          1           0        0.534668    3.110718    0.756765
      9          7           0        0.982376    1.486480   -0.505225
     10          1           0        0.966705    1.304701   -1.514348
     11          1           0        1.988645    1.526883   -0.303834
     12         17           0        2.187768   -1.082839   -0.087079
     13          6           0        0.641313    0.210001    1.771905
     14          1           0       -0.179808    0.904394    1.979208
     15          1           0        0.552432   -0.647919    2.449000
     16          1           0        1.580093    0.725070    2.010275
     17          6           0       -0.530051   -1.560375   -1.555354
     18          1           0        0.427600   -1.569046   -2.084593
     19          1           0       -0.800532   -2.595475   -1.317443
     20          1           0       -1.275669   -1.171981   -2.259823
     21          6           0       -2.673489    0.553537   -0.576230
     22          1           0       -3.576521    0.012825   -0.876553
     23          1           0       -2.949550    1.432087    0.015685
     24          1           0       -2.149882    0.895198   -1.474621
 ---------------------------------------------------------------------
                    Distance matrix (angstroms):
                    1          2          3          4          5
     1  C    0.000000
     2  C    1.490793   0.000000
     3  O    2.374179   1.224588   0.000000
     4  C    1.362102   2.441205   3.036417   0.000000
     5  C    3.697085   3.947625   4.750948   3.173576   0.000000
     6  H    4.606021   4.967328   5.827741   4.053382   1.096673
     7  H    3.629359   3.548451   4.410719   3.500438   1.094461
     8  H    4.119209   4.204880   4.757168   3.408842   1.095231
     9  N    2.670197   3.423526   4.296590   1.970565   1.464777
    10  H    2.781340   3.683623   4.728703   2.439973   2.020913
    11  H    3.350518   4.268471   5.030212   2.333196   2.016914
    12  Cl   2.698522   4.072815   4.609278   1.799217   4.291665
    13  C    2.541723   2.926270   3.005986   1.527761   3.352423
    14  H    2.827646   2.674031   2.667388   2.188868   3.056732
    15  H    2.940280   3.227001   2.940641   2.163086   4.441275
    16  H    3.425660   3.956182   4.088747   2.175319   3.327274
    17  C    1.499175   2.528956   3.442971   2.559187   4.678965
    18  H    2.165461   3.460848   4.393494   2.742577   4.754470
    19  H    2.140380   2.923957   3.528777   3.187910   5.668898
    20  H    2.156821   2.706002   3.752188   3.336446   4.787160
    21  C    2.560378   1.509396   2.386030   3.526257   3.884555
    22  H    3.237642   2.139216   2.745765   4.388585   4.957420
    23  H    3.303214   2.132994   2.677553   3.980278   3.698127
    24  H    2.613626   2.165828   3.276967   3.512935   3.455952
                    6          7          8          9         10
     6  H    0.000000
     7  H    1.777847   0.000000
     8  H    1.777452   1.775284   0.000000
     9  N    2.130426   2.107778   2.105044   0.000000
    10  H    2.360849   2.404276   2.933651   1.025484   0.000000
    11  H    2.352258   2.932813   2.397384   1.027019   1.599710
    12  Cl   4.878586   4.868565   4.585928   2.868661   3.037834
    13  C    4.311866   3.772292   3.075068   2.632688   3.479038
    14  H    4.100188   3.266063   2.621586   2.803909   3.698604
    15  H    5.408393   4.794475   4.122054   3.669872   4.437620
    16  H    4.111973   4.017457   2.890591   2.695321   3.624250
    17  C    5.407214   4.542384   5.319646   3.559990   3.232742
    18  H    5.318482   4.802263   5.475853   3.484023   2.978965
    19  H    6.449696   5.524950   6.216569   4.527782   4.286405
    20  H    5.447241   4.432515   5.542439   3.904458   3.423145
    21  C    4.775241   3.115335   4.313737   3.773695   3.833448
    22  H    5.807819   4.141922   5.400606   4.805526   4.766196
    23  H    4.591851   2.825104   3.937864   3.966654   4.206457
    24  H    4.184866   2.668135   4.134540   3.331724   3.143626
                   11         12         13         14         15
    11  H    0.000000
    12  Cl   2.626268   0.000000
    13  C    2.803244   2.742039   0.000000
    14  H    3.209667   3.718071   1.095169   0.000000
    15  H    3.790853   3.048799   1.096533   1.779482   0.000000
    16  H    2.482926   2.834908   1.097008   1.769286   1.770217
    17  C    4.176278   3.125766   3.946768   4.323296   4.247257
    18  H    3.897787   2.706409   4.252441   4.795970   4.627907
    19  H    5.079444   3.568165   4.415165   4.847916   4.450795
    20  H    4.665352   4.089518   4.673278   4.845784   5.078347
    21  C    4.770440   5.152554   4.076722   3.587730   4.582802
    22  H    5.795813   5.920369   4.984308   4.526359   5.342671
    23  H    4.949428   5.720791   4.179964   3.435892   4.744610
    24  H    4.347088   4.965190   4.335919   3.976205   5.007845
                   16         17         18         19         20
    16  H    0.000000
    17  C    4.731774   0.000000
    18  H    4.833131   1.094195   0.000000
    19  H    5.269451   1.095990   1.774932   0.000000
    20  H    5.476123   1.096847   1.757694   1.772052   0.000000
    21  C    4.981204   3.165697   4.049354   3.738133   2.786719
    22  H    5.952457   3.495241   4.471538   3.834544   2.934471
    23  H    4.999593   4.156558   4.982279   4.755709   3.842003
    24  H    5.107461   2.942823   3.617731   3.745697   2.377818
                   21         22         23         24
    21  C    0.000000
    22  H    1.094545   0.000000
    23  H    1.094726   1.789829   0.000000
    24  H    1.094533   1.780888   1.774466   0.000000
 Stoichiometry    C7H14ClNO
 Framework group  C1[X(C7H14ClNO)]
 Deg. of freedom    66
 Full point group                 C1      NOp   1
 Largest Abelian subgroup         C1      NOp   1
 Largest concise Abelian subgroup C1      NOp   1
                         Standard orientation:                         
 ---------------------------------------------------------------------
 Center     Atomic      Atomic             Coordinates (Angstroms)
 Number     Number       Type             X           Y           Z
 ---------------------------------------------------------------------
      1          6           0       -0.454579   -0.768813   -0.265303
      2          6           0       -1.787596   -0.396411    0.288635
      3          8           0       -2.147165   -0.765335    1.399590
      4          6           0        0.648255   -0.241888    0.335888
      5          6           0        0.375964    2.830891   -0.409410
      6          1           0        0.902237    3.565832   -1.030371
      7          1           0       -0.680273    2.827811   -0.696113
      8          1           0        0.448194    3.147775    0.636485
      9          7           0        0.941378    1.488154   -0.560861
     10          1           0        0.929378    1.265749   -1.561865
     11          1           0        1.946358    1.566077   -0.364107
     12         17           0        2.222520   -1.025916   -0.043810
     13          6           0        0.641809    0.294390    1.766418
     14          1           0       -0.199035    0.972146    1.948142
     15          1           0        0.579331   -0.537979    2.477504
     16          1           0        1.565429    0.845895    1.981346
     17          6           0       -0.482522   -1.641330   -1.484096
     18          1           0        0.474085   -1.643091   -2.015287
     19          1           0       -0.722042   -2.673564   -1.204245
     20          1           0       -1.240416   -1.303476   -2.201400
     21          6           0       -2.685576    0.446313   -0.584134
     22          1           0       -3.572812   -0.132233   -0.860042
     23          1           0       -2.986372    1.339378   -0.027015
     24          1           0       -2.173745    0.766949   -1.496945
 ---------------------------------------------------------------------
 Rotational constants (GHZ):           1.2351168           0.8723057           0.7138464
 Standard basis: STO-3G (5D, 7F)
 There are    68 symmetry adapted cartesian basis functions of A   symmetry.
 There are    68 symmetry adapted basis functions of A   symmetry.
    68 basis functions,   204 primitive gaussians,    68 cartesian basis functions
    44 alpha electrons       44 beta electrons
       nuclear repulsion energy       663.3633532822 Hartrees.
 NAtoms=   24 NActive=   24 NUniq=   24 SFac= 1.00D+00 NAtFMM=   60 NAOKFM=F Big=F
 Integral buffers will be    131072 words long.
 Raffenetti 1 integral format.
 Two-electron integral symmetry is turned on.
 External calculation of energy, first and second derivatives.
 Running external command "~/scripts/MiMe -H 'pbepbe def2svp' -EF 'wb97xd def2svp' -c 12 -m 48GB R"
         input file       "/local/jobs/1158161/Gau-2801475.EIn"
         output file      "/local/jobs/1158161/Gau-2801475.EOu"
         message file     "/local/jobs/1158161/Gau-2801475.EMs"
         fchk file        "/local/jobs/1158161/Gau-2801475.EFC"
         mat. el file     "/local/jobs/1158161/Gau-2801475.EUF"
 Read checkpoint file Gau-2801475_H.chk type G16
 Write formatted file Gau-2801475_H.fchk

deriv: 2

spelevel: wb97xd def2svp
gradlevel: wb97xd def2svp
hesslevel: pbepbe def2svp

runspe: False
runforce: True
runfreq: True

Running Gaussian ...

Parsing files ...
SPE file: Gau-2801475_F.out
FORCE file: Gau-2801475_F.out
HESS file: Gau-2801475_H.out

 ExternalExternalExternalExternalExternalExternalExternalExternalExternalExternal
 Output from external command:
 "~/scripts/MiMe -H 'pbepbe def2svp' -EF 'wb97xd def2svp' -c 12 -m 48GB R /local/jobs/1158161/Gau-2801475.EIn /local/jobs/1158161/Gau-2801475.EOu /local/jobs/1158161/Gau-2801475.EMs /local/jobs/1158161/Gau-2801475.EFC /local/jobs/1158161/Gau-2801475.EUF"
  
 --------------------------------------------------
 Force calculation at wb97xd def2svp
 Hessian calculation at pbepbe def2svp
 ExternalExternalExternalExternalExternalExternalExternalExternalExternalExternal

 Recovered energy= -864.700928656     dipole=      1.580600000000      4.599100000000     -2.848000000000
 Energy=    -864.700929     NIter=   0.
 Dipole moment=       1.580600       4.599100      -2.848000
 ***** Axes restored to original set *****
 -------------------------------------------------------------------
 Center     Atomic                   Forces (Hartrees/Bohr)
 Number     Number              X              Y              Z
 -------------------------------------------------------------------
      1        6           0.000689564   -0.006416281    0.009343086
      2        6           0.004217516   -0.015863305    0.019293941
      3        8           0.000861057    0.013575974   -0.013537425
      4        6          -0.030641743   -0.048120339    0.028845336
      5        6          -0.001432470   -0.005113107    0.002661043
      6        1          -0.000018839    0.005317272   -0.001535752
      7        1          -0.003545047   -0.000390887   -0.000023227
      8        1          -0.000314375    0.000372061    0.002618403
      9        7           0.041378247    0.051567763   -0.023945632
     10        1          -0.003842711   -0.006552758    0.004034457
     11        1          -0.002706816    0.000063450   -0.001301566
     12       17          -0.000715614    0.010073475   -0.003178735
     13        6           0.005764009    0.000345180   -0.009688479
     14        1          -0.003308559   -0.000868686   -0.001078992
     15        1          -0.001827552   -0.001272539   -0.000831620
     16        1           0.002518075    0.001188885   -0.000699379
     17        6           0.003355471    0.006822796   -0.001014208
     18        1           0.003585985   -0.001531459   -0.000766587
     19        1          -0.001127822   -0.005013307   -0.001665017
     20        1          -0.004531616   -0.000051191   -0.003254136
     21        6           0.000801814   -0.000699280   -0.003832772
     22        1          -0.005487855    0.001068022   -0.000025352
     23        1          -0.003969879    0.000876951    0.002970337
     24        1           0.000299157    0.000621309   -0.003387726
 -------------------------------------------------------------------
 Cartesian Forces:  Max     0.051567763 RMS     0.012261259
 FormGI is forming the generalized inverse of G from B-inverse, IUseBI=4.

 GradGradGradGradGradGradGradGradGradGradGradGradGradGradGradGradGradGrad
 Berny optimization.
 Internal  Forces:  Max     0.052837703 RMS     0.006728321
 Search for a saddle point.
 Step number   3 out of a maximum of   50
 All quantities printed in internal units (Hartrees-Bohrs-Radians)
 Swapping is turned off.
 Second derivative matrix not updated -- analytic derivatives used.
 ITU=  0  0  0
     Eigenvalues ---   -0.03880  -0.01305  -0.00761  -0.00546  -0.00524
     Eigenvalues ---   -0.00201  -0.00011   0.00076   0.00459   0.00694
     Eigenvalues ---    0.01945   0.02785   0.03205   0.03710   0.03836
     Eigenvalues ---    0.04215   0.04289   0.04605   0.04645   0.04840
     Eigenvalues ---    0.04978   0.05081   0.06638   0.07255   0.07986
     Eigenvalues ---    0.08785   0.10251   0.10549   0.10598   0.10837
     Eigenvalues ---    0.11198   0.11391   0.11787   0.12323   0.12575
     Eigenvalues ---    0.13177   0.13550   0.15327   0.15473   0.16383
     Eigenvalues ---    0.16547   0.18314   0.19296   0.20453   0.21384
     Eigenvalues ---    0.28372   0.29965   0.32483   0.32904   0.33601
     Eigenvalues ---    0.34406   0.34670   0.34790   0.35223   0.35282
     Eigenvalues ---    0.35416   0.35484   0.35550   0.35562   0.35665
     Eigenvalues ---    0.35705   0.36535   0.42540   0.43195   0.57457
     Eigenvalues ---    0.80975
 Eigenvectors required to have negative eigenvalues:
                          D1        D3        A19       D2        D4
   1                   -0.39858  -0.39646   0.38432  -0.32971  -0.32759
                          R6        A21       A20       D10       D7
   1                    0.31524  -0.18134  -0.17052  -0.14883  -0.14391
 RFO step:  Lambda0=1.296806798D-04 Lambda=-4.32389010D-02.
[...]
    21   6    -0.01   0.00  -0.04     0.00  -0.00  -0.00    -0.00  -0.00  -0.00
    22   1    -0.03   0.03  -0.08    -0.00   0.00   0.00    -0.01   0.07   0.04
    23   1     0.12   0.03   0.16     0.00   0.00   0.00     0.03   0.00  -0.03
    24   1    -0.07  -0.09  -0.11    -0.00   0.00  -0.00     0.01  -0.04   0.04
                     55                     56                     57
                      A                      A                      A
 Frequencies --   3051.5801              3056.4477              3085.1868
 Red. masses --      1.0399                 1.0388                 1.0852
 Frc consts  --      5.7056                 5.7174                 6.0859
 IR Inten    --      0.0000                 0.0000                 0.0000
  Atom  AN      X      Y      Z        X      Y      Z        X      Y      Z
     1   6    -0.00  -0.00  -0.00     0.00   0.00   0.00     0.00   0.00   0.00
     2   6     0.00   0.00   0.00    -0.00  -0.00   0.00    -0.00  -0.00  -0.00
     3   8    -0.00  -0.00   0.00     0.00   0.00  -0.00     0.00   0.00   0.00
     4   6     0.00   0.00   0.00    -0.00  -0.00   0.00    -0.00  -0.00  -0.00
     5   6    -0.00   0.00  -0.00     0.00   0.00   0.00    -0.05  -0.06  -0.02
     6   1     0.00  -0.00  -0.00    -0.00   0.00   0.00    -0.00   0.35   0.08
     7   1     0.00   0.00   0.00    -0.00  -0.00  -0.00     0.18   0.05   0.58
     8   1     0.00   0.00  -0.00    -0.00  -0.00   0.00     0.46   0.32  -0.42
     9   7     0.00   0.00   0.00    -0.00   0.00  -0.00     0.00   0.00   0.00
    10   1    -0.00  -0.00   0.00    -0.00  -0.00  -0.00    -0.01  -0.01   0.01
    11   1    -0.00  -0.00   0.00    -0.00  -0.00   0.00    -0.00  -0.00  -0.01
    12  17    -0.00  -0.00   0.00    -0.00   0.00   0.00     0.00  -0.00  -0.00
    13   6     0.00  -0.00   0.00    -0.02   0.00  -0.05    -0.00   0.00  -0.00
    14   1     0.00   0.00  -0.00    -0.37  -0.05   0.15     0.00  -0.00   0.00
    15   1    -0.00   0.00  -0.00     0.43  -0.49   0.29     0.00  -0.00   0.00
    16   1    -0.00  -0.00  -0.00     0.20   0.52   0.11     0.00   0.00   0.00
    17   6    -0.00   0.00  -0.01     0.00   0.00  -0.00    -0.00   0.00  -0.00
    18   1    -0.04  -0.01   0.01    -0.01  -0.00   0.00    -0.00  -0.00   0.00
    19   1     0.01   0.04   0.01     0.00   0.01   0.00    -0.00  -0.00  -0.00
    20   1     0.06  -0.06   0.04     0.00  -0.00   0.00     0.00  -0.00   0.00
    21   6    -0.02  -0.03  -0.03    -0.00  -0.00  -0.00     0.00   0.00  -0.00
    22   1    -0.15   0.68   0.36    -0.00   0.00   0.00     0.00  -0.00  -0.00
    23   1     0.34   0.04  -0.27     0.00   0.00  -0.00    -0.00   0.00   0.00
    24   1     0.08  -0.32   0.30     0.00  -0.00   0.00    -0.00  -0.00   0.00
                     58                     59                     60
                      A                      A                      A
 Frequencies --   3127.4561              3133.0250              3139.2158
 Red. masses --      1.0971                 1.1038                 1.0998
 Frc consts  --      6.3222                 6.3834                 6.3857
 IR Inten    --      0.0000                 0.0000                 0.0000
  Atom  AN      X      Y      Z        X      Y      Z        X      Y      Z
     1   6     0.00   0.00   0.00    -0.00  -0.00  -0.00    -0.00   0.00  -0.00
     2   6    -0.00  -0.00   0.00    -0.00   0.00  -0.00    -0.00  -0.00   0.00
     3   8     0.00   0.00  -0.00     0.00  -0.00   0.00     0.00   0.00  -0.00
     4   6    -0.00  -0.00   0.00     0.00   0.00  -0.00     0.00  -0.00   0.00
     5   6     0.00   0.00  -0.00     0.02   0.02  -0.09    -0.00  -0.00  -0.00
     6   1     0.00  -0.00  -0.00     0.00   0.03  -0.01    -0.00   0.00  -0.00
     7   1     0.00   0.00   0.01     0.24   0.08   0.70     0.00   0.00   0.00
     8   1    -0.00  -0.00   0.00    -0.44  -0.31   0.38     0.00   0.00  -0.00
     9   7    -0.00  -0.00   0.00    -0.00  -0.00   0.00     0.00   0.00  -0.00
    10   1     0.00   0.00  -0.00     0.01   0.01  -0.01    -0.00  -0.00  -0.00
    11   1     0.00  -0.00  -0.00    -0.00  -0.01  -0.01    -0.00  -0.00   0.00
    12  17     0.00   0.00   0.00    -0.00  -0.00  -0.00     0.00   0.00   0.00
    13   6     0.00  -0.00   0.00     0.00   0.00  -0.00     0.03  -0.09   0.00
    14   1    -0.00  -0.00   0.00    -0.00  -0.00   0.00    -0.24  -0.05   0.11
    15   1    -0.01   0.01  -0.01     0.00  -0.00   0.00    -0.41   0.46  -0.29
    16   1     0.01   0.01   0.00    -0.00  -0.00  -0.00     0.26   0.61   0.14
    17   6     0.03  -0.08  -0.01    -0.00   0.00   0.00     0.00   0.00   0.00
    18   1    -0.24  -0.07   0.09     0.00   0.00  -0.00    -0.00   0.00   0.00
    19   1     0.22   0.71   0.23    -0.00  -0.01  -0.00    -0.01  -0.02  -0.01
    20   1    -0.36   0.36  -0.25     0.00  -0.00   0.00     0.01  -0.01   0.00
    21   6    -0.00   0.00   0.00    -0.00   0.00   0.00    -0.00   0.00  -0.00
    22   1     0.00  -0.01  -0.01     0.00  -0.00  -0.00     0.00  -0.00  -0.00
    23   1     0.02   0.01  -0.02     0.00   0.00  -0.00     0.00   0.00  -0.00
    24   1     0.00  -0.02   0.02     0.00  -0.00   0.00     0.00  -0.00   0.00
                     61                     62                     63
                      A                      A                      A
 Frequencies --   3154.0019              3178.7986              3192.8264
 Red. masses --      1.0958                 1.1013                 1.1029
 Frc consts  --      6.4223                 6.5569                 6.6242
 IR Inten    --      0.0000                 0.0000                 0.0000
  Atom  AN      X      Y      Z        X      Y      Z        X      Y      Z
     1   6     0.00  -0.00   0.00    -0.00  -0.00  -0.00     0.00  -0.00   0.00
     2   6    -0.00  -0.00  -0.00    -0.00   0.00  -0.00     0.00   0.00  -0.00
     3   8    -0.00  -0.00   0.00     0.00   0.00   0.00    -0.00  -0.00   0.00
     4   6    -0.00  -0.00  -0.00    -0.00  -0.00   0.00    -0.00  -0.00   0.00
     5   6    -0.00   0.00  -0.00    -0.00  -0.00  -0.00     0.00  -0.00  -0.00
     6   1     0.00  -0.00  -0.00     0.00   0.00   0.00    -0.00   0.00   0.00
     7   1     0.00   0.00   0.01     0.00  -0.00   0.00    -0.00   0.00  -0.00
     8   1    -0.00  -0.00   0.00     0.00   0.00  -0.00    -0.00  -0.00   0.00
     9   7    -0.00  -0.00  -0.00     0.00   0.00   0.00    -0.00   0.00   0.00
    10   1     0.00  -0.00  -0.00     0.00   0.00  -0.00     0.00   0.00  -0.00
    11   1    -0.00  -0.00  -0.00    -0.00   0.00   0.00     0.00  -0.00  -0.00
    12  17     0.00   0.00  -0.00    -0.00  -0.00  -0.00     0.00   0.00  -0.00
    13   6     0.00  -0.00  -0.00     0.00  -0.00  -0.00    -0.08  -0.04   0.02
    14   1    -0.00  -0.00   0.00    -0.01  -0.00   0.01     0.79   0.10  -0.35
    15   1    -0.00   0.00  -0.00    -0.00   0.00  -0.00     0.05  -0.09   0.05
    16   1     0.00   0.00   0.00     0.00   0.00   0.00     0.16   0.42   0.09
    17   6     0.00  -0.00  -0.00    -0.08  -0.04   0.01    -0.00  -0.00   0.00
    18   1    -0.00  -0.00   0.00     0.83   0.17  -0.30     0.01   0.00  -0.00
    19   1     0.01   0.03   0.01     0.10   0.37   0.12     0.00   0.01   0.00
    20   1    -0.02   0.02  -0.01     0.09  -0.11   0.07     0.00  -0.00   0.00
    21   6     0.05  -0.07  -0.02    -0.00  -0.00   0.00     0.00   0.00  -0.01
    22   1    -0.10   0.52   0.28    -0.00   0.00   0.00     0.00   0.00  -0.00
    23   1    -0.44  -0.08   0.34     0.02   0.00  -0.01    -0.04  -0.01   0.03
    24   1    -0.10   0.38  -0.39    -0.00   0.00  -0.01     0.01  -0.03   0.03
                     64                     65                     66
                      A                      A                      A
 Frequencies --   3194.7195              3532.6817              3614.1964
 Red. masses --      1.1064                 1.0510                 1.0927
 Frc consts  --      6.6529                 7.7283                 8.4097
 IR Inten    --      0.0000                 0.0000                 0.0000
  Atom  AN      X      Y      Z        X      Y      Z        X      Y      Z
     1   6     0.00   0.00   0.00    -0.00   0.00  -0.00     0.00  -0.00  -0.00
     2   6    -0.00  -0.00   0.00     0.00  -0.00   0.00    -0.00   0.00  -0.00
     3   8     0.00   0.00  -0.00    -0.00   0.00  -0.00    -0.00  -0.00   0.00
     4   6    -0.00  -0.00   0.00     0.00   0.00   0.00    -0.00  -0.00   0.00
     5   6    -0.00  -0.00  -0.00     0.00  -0.00  -0.00     0.00   0.00  -0.00
     6   1     0.00  -0.00   0.00     0.00   0.01   0.00    -0.00   0.00   0.00
     7   1     0.00   0.00   0.00     0.00   0.00   0.01     0.00   0.00   0.01
     8   1     0.00   0.00  -0.00     0.01   0.01  -0.01    -0.01  -0.01   0.01
     9   7     0.00  -0.00  -0.00    -0.05  -0.02  -0.01     0.01   0.01  -0.08
    10   1    -0.00   0.00   0.00     0.47   0.24  -0.50    -0.45  -0.25   0.45
    11   1    -0.00  -0.00  -0.00     0.25   0.08   0.63     0.29   0.12   0.66
    12  17     0.00   0.00  -0.00    -0.00  -0.00  -0.00     0.00   0.00  -0.00
    13   6    -0.01  -0.00   0.00    -0.00  -0.00   0.00    -0.00   0.00   0.00
    14   1     0.06   0.01  -0.03     0.00   0.00  -0.00     0.00   0.00  -0.00
    15   1     0.00  -0.01   0.00    -0.00   0.00  -0.00     0.00  -0.00  -0.00
    16   1     0.01   0.03   0.01    -0.00  -0.00   0.00    -0.00  -0.00  -0.00
    17   6     0.00   0.00   0.00    -0.00   0.00  -0.00     0.00  -0.00   0.00
    18   1    -0.02  -0.00   0.00    -0.00   0.00   0.00     0.00  -0.00  -0.00
    19   1    -0.00  -0.01  -0.00     0.00  -0.00   0.00    -0.00   0.00  -0.00
    20   1    -0.01   0.01  -0.00     0.00  -0.00   0.00    -0.00   0.00  -0.00
    21   6    -0.03  -0.05   0.07     0.00  -0.00   0.00     0.00   0.00  -0.00
    22   1    -0.01   0.00   0.01     0.00   0.00   0.00    -0.00   0.00   0.00
    23   1     0.56   0.08  -0.42    -0.00   0.00  -0.00    -0.00  -0.00   0.00
    24   1    -0.14   0.49  -0.48    -0.00   0.00  -0.00     0.00   0.00  -0.00

 -------------------
 - Thermochemistry -
 -------------------
 Temperature   298.150 Kelvin.  Pressure   1.00000 Atm.
 Atom     1 has atomic number  6 and mass  12.00000
 Atom     2 has atomic number  6 and mass  12.00000
 Atom     3 has atomic number  8 and mass  15.99491
 Atom     4 has atomic number  6 and mass  12.00000
 Atom     5 has atomic number  6 and mass  12.00000
 Atom     6 has atomic number  1 and mass   1.00783
 Atom     7 has atomic number  1 and mass   1.00783
 Atom     8 has atomic number  1 and mass   1.00783
 Atom     9 has atomic number  7 and mass  14.00307
 Atom    10 has atomic number  1 and mass   1.00783
 Atom    11 has atomic number  1 and mass   1.00783
 Atom    12 has atomic number 17 and mass  34.96885
 Atom    13 has atomic number  6 and mass  12.00000
 Atom    14 has atomic number  1 and mass   1.00783
 Atom    15 has atomic number  1 and mass   1.00783
 Atom    16 has atomic number  1 and mass   1.00783
 Atom    17 has atomic number  6 and mass  12.00000
 Atom    18 has atomic number  1 and mass   1.00783
 Atom    19 has atomic number  1 and mass   1.00783
 Atom    20 has atomic number  1 and mass   1.00783
 Atom    21 has atomic number  6 and mass  12.00000
 Atom    22 has atomic number  1 and mass   1.00783
 Atom    23 has atomic number  1 and mass   1.00783
 Atom    24 has atomic number  1 and mass   1.00783
 Molecular mass:   163.07639 amu.
 Principal axes and moments of inertia in atomic units:
                           1         2         3
     Eigenvalues --  1563.532552593.242842954.22935
           X            0.99767  -0.06298   0.02615
           Y            0.06004   0.99307   0.10101
           Z           -0.03233  -0.09921   0.99454
 This molecule is an asymmetric top.
 Rotational symmetry number  1.
 Warning -- assumption of classical behavior for rotation
           may cause significant error
 Rotational temperatures (Kelvin)      0.05540     0.03340     0.02932
 Rotational constants (GHZ):           1.15427     0.69594     0.61090
    8 imaginary frequencies ignored.
 Zero-point vibrational energy     511660.9 (Joules/Mol)
                                  122.28989 (Kcal/Mol)
 Warning -- explicit consideration of  13 degrees of freedom as
           vibrations may cause significant error
 Vibrational temperatures:     82.72   136.86   164.49   171.92   319.52
          (Kelvin)            340.77   424.92   500.41   523.70   602.22
                              668.45   784.09   830.93   895.07  1052.54
                             1078.63  1297.69  1307.99  1338.38  1353.05
                             1397.28  1420.27  1460.70  1556.75  1585.78
                             1608.60  1624.53  1784.16  1818.72  1858.16
                             1894.11  1898.88  1953.96  1956.96  1982.70
                             1989.17  1995.70  2015.71  2020.79  2030.85
                             2065.14  2255.06  2412.52  2615.14  4288.80
                             4376.98  4390.54  4397.55  4438.90  4499.71
                             4507.72  4516.63  4537.91  4573.58  4593.77
                             4596.49  5082.74  5200.02
 
 Zero-point correction=                           0.194881 (Hartree/Particle)
 Thermal correction to Energy=                    0.204651
 Thermal correction to Enthalpy=                  0.205595
 Thermal correction to Gibbs Free Energy=         0.158587
 Sum of electronic and zero-point Energies=           -864.568755
 Sum of electronic and thermal Energies=              -864.558985
 Sum of electronic and thermal Enthalpies=            -864.558041
 Sum of electronic and thermal Free Energies=         -864.605049
 
                     E (Thermal)             CV                S
                      KCal/Mol        Cal/Mol-Kelvin    Cal/Mol-Kelvin
 Total                  128.421             35.678             98.938
 Electronic               0.000              0.000              0.000
 Translational            0.889              2.981             41.176
 Rotational               0.889              2.981             30.861
 Vibrational            126.643             29.716             26.901
 Vibration     1          0.596              1.975              4.541
 Vibration     2          0.603              1.953              3.552
 Vibration     3          0.607              1.938              3.194
 Vibration     4          0.609              1.933              3.109
 Vibration     5          0.648              1.807              1.942
 Vibration     6          0.656              1.784              1.826
 Vibration     7          0.690              1.682              1.443
 Vibration     8          0.725              1.580              1.176
 Vibration     9          0.738              1.546              1.105
 Vibration    10          0.781              1.430              0.897
 Vibration    11          0.822              1.329              0.753
 Vibration    12          0.900              1.151              0.555
 Vibration    13          0.934              1.080              0.490
                       Q            Log10(Q)             Ln(Q)
 Total Bot       0.113532D-72        -72.944880       -167.961794
 Total V=0       0.494582D+17         16.694238         38.439904
 Vib (Bot)       0.111953D-86        -86.950964       -200.211993
 Vib (Bot)    1  0.359288D+01          0.555443          1.278954
 Vib (Bot)    2  0.215950D+01          0.334352          0.769875
 Vib (Bot)    3  0.178981D+01          0.252806          0.582107
 Vib (Bot)    4  0.171046D+01          0.233113          0.536763
 Vib (Bot)    5  0.889916D+00         -0.050651         -0.116628
 Vib (Bot)    6  0.829058D+00         -0.081415         -0.187465
 Vib (Bot)    7  0.645619D+00         -0.190023         -0.437545
 Vib (Bot)    8  0.531229D+00         -0.274718         -0.632563
 Vib (Bot)    9  0.502213D+00         -0.299112         -0.688730
 Vib (Bot)   10  0.419963D+00         -0.376789         -0.867589
 Vib (Bot)   11  0.364704D+00         -0.438060         -1.008670
 Vib (Bot)   12  0.289353D+00         -0.538572         -1.240108
 Vib (Bot)   13  0.264506D+00         -0.577564         -1.329890
 Vib (V=0)       0.487703D+03          2.688155          6.189706
 Vib (V=0)    1  0.412751D+01          0.615688          1.417673
 Vib (V=0)    2  0.271662D+01          0.434029          0.999390
 Vib (V=0)    3  0.235833D+01          0.372605          0.857956
 Vib (V=0)    4  0.228204D+01          0.358324          0.825071
 Vib (V=0)    5  0.152076D+01          0.182061          0.419210
 Vib (V=0)    6  0.146816D+01          0.166774          0.384011
 Vib (V=0)    7  0.131659D+01          0.119452          0.275048
 Vib (V=0)    8  0.122952D+01          0.089737          0.206626
 Vib (V=0)    9  0.120867D+01          0.082309          0.189524
 Vib (V=0)   10  0.115297D+01          0.061818          0.142340
 Vib (V=0)   11  0.111888D+01          0.048782          0.112326
 Vib (V=0)   12  0.107769D+01          0.032494          0.074819
 Vib (V=0)   13  0.106565D+01          0.027616          0.063588
 Electronic      0.100000D+01          0.000000          0.000000
 Translational   0.818541D+08          7.913041         18.220449
 Rotational      0.123892D+07          6.093043         14.029749
 ***** Axes restored to original set *****
 -------------------------------------------------------------------
 Center     Atomic                   Forces (Hartrees/Bohr)
 Number     Number              X              Y              Z
 -------------------------------------------------------------------
      1        6          -0.000610209   -0.000106045    0.000819878
      2        6           0.000152974    0.000199601   -0.000024982
      3        8           0.000082554    0.000281402   -0.000094846
      4        6           0.000209890   -0.000366837    0.000476726
      5        6           0.000347741    0.000097700    0.000209620
      6        1          -0.000010368   -0.000002264   -0.000268042
      7        1          -0.000313833    0.000035656    0.000094747
      8        1           0.000191455    0.000014643    0.000268306
      9        7           0.000057973   -0.000244312   -0.001464275
     10        1           0.000633403    0.000266349    0.000428522
     11        1          -0.000997733    0.000108646    0.000415934
     12       17          -0.000471873   -0.000361903   -0.000470375
     13        6           0.000713800   -0.000047289   -0.000026560
     14        1          -0.000190426   -0.000106021   -0.000021429
     15        1           0.000096248    0.000002279    0.000020630
     16        1          -0.000081179    0.000178419    0.000029491
     17        6           0.000295362    0.000499809   -0.000176070
     18        1           0.000049271    0.000031241    0.000028460
     19        1           0.000076451   -0.000094836   -0.000007805
     20        1           0.000010826   -0.000094000   -0.000070621
     21        6          -0.000250233   -0.000299044    0.000057093
     22        1           0.000121009    0.000016702   -0.000333555
     23        1          -0.000151168   -0.000162128    0.000025625
     24        1           0.000038066    0.000152232    0.000083529
 -------------------------------------------------------------------
 Cartesian Forces:  Max     0.001464275 RMS     0.000334913


 WHERE THERE IS MUCH DESIRE TO LEARN, THERE OF NECESSITY WILL BE
 MUCH ARGUING, MUCH WRITING, MANY OPINIONS; FOR OPINION IN GOOD MEN
 IS BUT KNOWLEDGE IN THE MAKING. -- JOHN MILTON.
 Error termination request processed by link 9999.
 Error termination via Lnk1e in /apps/gaussian/g16/C.01/g16/l9999.exe at Thu Jan 18 15:50:11 2024.
 Job cpu time:       0 days 19 hours  1 minutes 41.6 seconds.
 Elapsed time:       0 days  3 hours 12 minutes 29.6 seconds.
 File lengths (MBytes):  RWF=      6 Int=      0 D2E=      0 Chk=      2 Scr=      1
