Unloading slurm/anatra/current
  ERROR: No such file or directory on
    '/cm/local/modulefiles/slurm/anatra/current'
environment: line 0: unalias: gv: not found
environment: line 0: unalias: sl: not found
 Entering Gaussian System, Link 0=g16
 Initial command:
 /apps/gaussian/g16/C.01/g16/l1.exe "/local/jobs/1150744/Gau-707397.inp" -scrdir="/local/jobs/1150744/"
 Entering Link 1 = /apps/gaussian/g16/C.01/g16/l1.exe PID=    707400.
  
 Copyright (c) 1988-2019, Gaussian, Inc.  All Rights Reserved.
  
 This is part of the Gaussian(R) 16 program.  It is based on
 the Gaussian(R) 09 system (copyright 2009, Gaussian, Inc.),
 the Gaussian(R) 03 system (copyright 2003, Gaussian, Inc.),
 the Gaussian(R) 98 system (copyright 1998, Gaussian, Inc.),
 the Gaussian(R) 94 system (copyright 1995, Gaussian, Inc.),
 the Gaussian 92(TM) system (copyright 1992, Gaussian, Inc.),
 the Gaussian 90(TM) system (copyright 1990, Gaussian, Inc.),
 the Gaussian 88(TM) system (copyright 1988, Gaussian, Inc.),
 the Gaussian 86(TM) system (copyright 1986, Carnegie Mellon
 University), and the Gaussian 82(TM) system (copyright 1983,
 Carnegie Mellon University). Gaussian is a federally registered
 trademark of Gaussian, Inc.
  
 This software contains proprietary and confidential information,
 including trade secrets, belonging to Gaussian, Inc.
  
 This software is provided under written license and may be
 used, copied, transmitted, or stored only in accord with that
 written license.
  
 The following legend is applicable only to US Government
 contracts under FAR:
  
                    RESTRICTED RIGHTS LEGEND
  
 Use, reproduction and disclosure by the US Government is
 subject to restrictions as set forth in subparagraphs (a)
 and (c) of the Commercial Computer Software - Restricted
 Rights clause in FAR 52.227-19.
  
 Gaussian, Inc.
 340 Quinnipiac St., Bldg. 40, Wallingford CT 06492
  
  
 ---------------------------------------------------------------
 Warning -- This program may not be used in any manner that
 competes with the business of Gaussian, Inc. or will provide
 assistance to any competitor of Gaussian, Inc.  The licensee
 of this program is prohibited from giving any competitor of
 Gaussian, Inc. access to this program.  By using this program,
 the user acknowledges that Gaussian, Inc. is engaged in the
 business of creating and licensing software in the field of
 computational chemistry and represents and warrants to the
 licensee that it is not a competitor of Gaussian, Inc. and that
 it will not use this program in any manner prohibited above.
 ---------------------------------------------------------------
  

 Cite this work as:
 Gaussian 16, Revision C.01,
 M. J. Frisch, G. W. Trucks, H. B. Schlegel, G. E. Scuseria, 
 M. A. Robb, J. R. Cheeseman, G. Scalmani, V. Barone, 
 G. A. Petersson, H. Nakatsuji, X. Li, M. Caricato, A. V. Marenich, 
 J. Bloino, B. G. Janesko, R. Gomperts, B. Mennucci, H. P. Hratchian, 
 J. V. Ortiz, A. F. Izmaylov, J. L. Sonnenberg, D. Williams-Young, 
 F. Ding, F. Lipparini, F. Egidi, J. Goings, B. Peng, A. Petrone, 
 T. Henderson, D. Ranasinghe, V. G. Zakrzewski, J. Gao, N. Rega, 
 G. Zheng, W. Liang, M. Hada, M. Ehara, K. Toyota, R. Fukuda, 
 J. Hasegawa, M. Ishida, T. Nakajima, Y. Honda, O. Kitao, H. Nakai, 
 T. Vreven, K. Throssell, J. A. Montgomery, Jr., J. E. Peralta, 
 F. Ogliaro, M. J. Bearpark, J. J. Heyd, E. N. Brothers, K. N. Kudin, 
 V. N. Staroverov, T. A. Keith, R. Kobayashi, J. Normand, 
 K. Raghavachari, A. P. Rendell, J. C. Burant, S. S. Iyengar, 
 J. Tomasi, M. Cossi, J. M. Millam, M. Klene, C. Adamo, R. Cammi, 
 J. W. Ochterski, R. L. Martin, K. Morokuma, O. Farkas, 
 J. B. Foresman, and D. J. Fox, Gaussian, Inc., Wallingford CT, 2019.
 
 ******************************************
 Gaussian 16:  ES64L-G16RevC.01  3-Jul-2019
                18-Dec-2023 
 ******************************************
 %chk=BPA_TS_2_opt_dft.chk
 %nprocshared=12
 Will use up to   12 processors via shared memory.
 %mem=48GB
 ----------------------------------------------------------------------
 # wb97xd def2svp scrf=(iefpcm,solvent=toluene) opt=(calcfc,ts,noeigen,
 maxcycles=50,maxstep=10)
 ----------------------------------------------------------------------
 1/5=1,6=50,8=10,10=4,11=1,18=20,26=3,38=1/1,3;
 2/9=110,12=2,17=6,18=5,40=1/2;
 3/5=43,7=101,11=2,25=1,30=1,70=2201,71=2,72=13,74=-58,140=1/1,2,3;
 4//1;
 5/5=2,38=5,53=13/2;
 8/6=4,10=90,11=11/1;
 11/6=1,8=1,9=11,15=111,16=1/1,2,10;
 10/6=1,13=1/2;
 6/7=2,8=2,9=2,10=2,28=1/1;
 7/10=1,25=1/1,2,3,16;
 1/5=1,6=50,8=10,10=4,11=1,18=20,26=3/3(2);
 2/9=110/2;
 99//99;
 2/9=110/2;
 3/5=43,7=101,11=2,25=1,30=1,70=2205,71=1,72=13,74=-58/1,2,3;
 4/5=5,16=3,69=1/1;
 5/5=2,38=5,53=13/2;
 7//1,2,3,16;
 1/5=1,6=50,8=10,11=1,18=20,26=3/3(-5);
 2/9=110/2;
 6/7=2,8=2,9=2,10=2,19=2,28=1/1;
 99/9=1/99;
 ----------
 Structure2
 ----------
 Symbolic Z-matrix:
 Charge =  0 Multiplicity = 1
 C                    -2.2927    0.8207   -2.4987 
 C                    -1.3555    0.042    -3.299 
 C                    -0.7559   -2.1064   -4.5631 
 C                    -2.5339   -3.7484   -2.1654 
 O                    -0.0915    0.4744   -3.4509 
 H                     0.232    -1.6622   -4.6802 
 H                    -1.1485   -2.3006   -5.5614 
 H                    -0.6083   -3.0655   -4.0694 
 O                    -1.7156   -4.67     -2.1019 
 O                    -3.8305   -3.8559   -2.5333 
 C                    -4.3716   -5.126    -2.8659 
 H                    -5.4227   -5.0231   -3.136 
 H                    -3.8445   -5.5683   -3.7128 
 H                    -4.3042   -5.814    -2.0215 
 Si                    0.4526    1.9414   -4.0654 
 C                    -0.9951    3.0875   -4.4332 
 H                    -0.6624    3.9898   -4.9433 
 H                    -1.7283    2.5953   -5.0708 
 H                    -1.5044    3.3946   -3.522 
 C                     1.5346    2.7104   -2.7398 
 H                     2.4433    2.1309   -2.5871 
 H                     1.0071    2.7464   -1.7892 
 H                     1.8249    3.7258   -3.0042 
 C                     1.4567    1.5883   -5.6653 
 C                     0.5384    1.0051   -6.7612 
 H                     1.0904    0.7801   -7.6749 
 H                     0.0636    0.0795   -6.434 
 H                    -0.2586    1.6999   -7.0293 
 C                     2.0893    2.8894   -6.2061 
 H                     1.3309    3.6348   -6.4491 
 H                     2.6649    2.7099   -7.1155 
 H                     2.7682    3.338    -5.4795 
 C                     2.5911    0.579    -5.387 
 H                     3.1728    0.3675   -6.2856 
 H                     3.2857    0.9518   -4.6333 
 H                     2.1968   -0.3719   -5.0287 
 C                    -2.154    -2.263    -1.8394 
 C                    -1.7111   -1.1809   -3.7981 
 C                    -3.579     0.4615   -2.2488 
 O                    -2.9961   -1.4556   -1.3686 
 H                    -1.0723   -2.1219   -1.7922 
 C                    -4.4682    1.2005   -1.2647 
 H                    -1.903     1.6842   -1.9799 
 H                    -2.7615   -1.4501   -3.9014 
 C                     1.744    -3.7404   -1.4459 
 C                     2.529    -3.0325   -2.3496 
 C                     2.6283   -1.6509   -2.2593 
 C                     1.9476   -0.9582   -1.2627 
 H                     1.6552   -4.8144   -1.5316 
 H                     3.0587   -3.5583   -3.1313 
 H                     3.2357   -1.1092   -2.9695 
 H                     2.025     0.1179   -1.2257 
 C                     1.0395   -3.0617   -0.4202 
 C                     1.1444   -1.6422   -0.304 
 C                     0.425    -0.971     0.7426 
 C                    -0.4485   -1.7149    1.5601 
 C                    -0.5447   -3.11      1.4428 
 C                     0.2124   -3.7679    0.4751 
 O                    -1.2169   -1.0599    2.4886 
 H                     0.1404   -4.842     0.3769 
 C                     0.7948    3.3237    1.0114 
 C                    -0.4472    2.7426    0.7692 
 C                    -0.5753    1.3468    0.7825 
 C                     0.5551    0.5179    0.9266 
 H                     0.887     4.4003    1.019 
 O                    -1.806     0.7719    0.5885 
 C                     1.8228    1.1127    1.2434 
 C                     1.9343    2.5365    1.2757 
 C                     3.1849    3.1384    1.5649 
 C                     4.3014    2.3525    1.8317 
 C                     4.2036    0.9673    1.8205 
 C                     2.9901    0.3479    1.5353 
 H                     3.2656    4.2158    1.585 
 H                     5.2491    2.8205    2.0572 
 H                     5.0748    0.3661    2.0389 
 H                     2.9341   -0.7308    1.5416 
 C                    -3.1694   -5.4148    3.9306 
 C                    -3.1607   -5.6226    2.5539 
 C                    -2.3078   -4.8713    1.7492 
 C                    -1.4582   -3.909     2.3113 
 C                    -1.481    -3.7144    3.6978 
 C                    -2.3331   -4.4621    4.5063 
 H                    -3.8349   -5.9913    4.5569 
 H                    -3.817    -6.3575    2.1113 
 H                    -2.3167   -5.0318    0.6808 
 H                    -0.8398   -2.9712    4.1505 
 H                    -2.3484   -4.2962    5.5737 
 P                    -2.3535   -0.0807    1.8603 
 O                    -3.0478    0.7442    2.8816 
 O                    -3.341    -1.1225    1.1331 
 H                    -3.2788   -1.0491    0.1531 
 C                    -3.7754    5.2792   -0.1196 
 C                    -3.7982    4.4907    1.0282 
 C                    -2.7126    3.6701    1.3221 
 C                    -1.6039    3.6279    0.4717 
 C                    -1.5888    4.4359   -0.6707 
 C                    -2.673     5.257    -0.9705 
 H                    -4.6197    5.9132   -0.3495 
 H                    -4.6523    4.5089    1.6899 
 H                    -2.7338    3.0675    2.2179 
 H                    -0.7382    4.4165   -1.3359 
 H                    -2.6605    5.8706   -1.8596 
 H                    -4.1059   -0.3016   -2.8139 
 H                    -5.3369    1.615    -1.7754 
 H                    -4.8169    0.5274   -0.4816 
 H                    -3.9376    2.0228   -0.7829 
 
 Add virtual bond connecting atoms H91        and O40        Dist= 3.02D+00.
 Add virtual bond connecting atoms C38        and C37        Dist= 4.31D+00.
 Add virtual bond connecting atoms C38        and H41        Dist= 4.36D+00.
 Add virtual bond connecting atoms C39        and O40        Dist= 4.14D+00.
 Add virtual bond connecting atoms H44        and C37        Dist= 4.34D+00.
 Add virtual bond connecting atoms H103       and O40        Dist= 4.08D+00.

 GradGradGradGradGradGradGradGradGradGradGradGradGradGradGradGradGradGrad
 Berny optimization.
 Initialization pass.
                           ----------------------------
                           !    Initial Parameters    !
                           ! (Angstroms and Degrees)  !
 --------------------------                            --------------------------
 ! Name  Definition              Value          Derivative Info.                !
 --------------------------------------------------------------------------------
 ! R1    R(1,2)                  1.4578         calculate D2E/DX2 analytically  !
 ! R2    R(1,39)                 1.3587         calculate D2E/DX2 analytically  !
 ! R3    R(1,43)                 1.0801         calculate D2E/DX2 analytically  !
 ! R4    R(2,5)                  1.3445         calculate D2E/DX2 analytically  !
 ! R5    R(2,38)                 1.3679         calculate D2E/DX2 analytically  !
 ! R6    R(3,6)                  1.0895         calculate D2E/DX2 analytically  !
 ! R7    R(3,7)                  1.0902         calculate D2E/DX2 analytically  !
 ! R8    R(3,8)                  1.0888         calculate D2E/DX2 analytically  !
 ! R9    R(3,38)                 1.5343         calculate D2E/DX2 analytically  !
 ! R10   R(4,9)                  1.2341         calculate D2E/DX2 analytically  !
 ! R11   R(4,10)                 1.3521         calculate D2E/DX2 analytically  !
 ! R12   R(4,37)                 1.5675         calculate D2E/DX2 analytically  !
 ! R13   R(5,15)                 1.681          calculate D2E/DX2 analytically  !
 ! R14   R(10,11)                1.4201         calculate D2E/DX2 analytically  !
 ! R15   R(11,12)                1.0901         calculate D2E/DX2 analytically  !
 ! R16   R(11,13)                1.0912         calculate D2E/DX2 analytically  !
 ! R17   R(11,14)                1.0913         calculate D2E/DX2 analytically  !
 ! R18   R(15,16)                1.8827         calculate D2E/DX2 analytically  !
 ! R19   R(15,20)                1.876          calculate D2E/DX2 analytically  !
 ! R20   R(15,24)                1.9216         calculate D2E/DX2 analytically  !
 ! R21   R(16,17)                1.0886         calculate D2E/DX2 analytically  !
 ! R22   R(16,18)                1.0892         calculate D2E/DX2 analytically  !
 ! R23   R(16,19)                1.0881         calculate D2E/DX2 analytically  !
 ! R24   R(20,21)                1.0885         calculate D2E/DX2 analytically  !
 ! R25   R(20,22)                1.0877         calculate D2E/DX2 analytically  !
 ! R26   R(20,23)                1.0887         calculate D2E/DX2 analytically  !
 ! R27   R(24,25)                1.5441         calculate D2E/DX2 analytically  !
 ! R28   R(24,29)                1.5445         calculate D2E/DX2 analytically  !
 ! R29   R(24,33)                1.5437         calculate D2E/DX2 analytically  !
 ! R30   R(25,26)                1.091          calculate D2E/DX2 analytically  !
 ! R31   R(25,27)                1.0905         calculate D2E/DX2 analytically  !
 ! R32   R(25,28)                1.0908         calculate D2E/DX2 analytically  !
 ! R33   R(29,30)                1.0908         calculate D2E/DX2 analytically  !
 ! R34   R(29,31)                1.0911         calculate D2E/DX2 analytically  !
 ! R35   R(29,32)                1.0909         calculate D2E/DX2 analytically  !
 ! R36   R(33,34)                1.0911         calculate D2E/DX2 analytically  !
 ! R37   R(33,35)                1.0906         calculate D2E/DX2 analytically  !
 ! R38   R(33,36)                1.09           calculate D2E/DX2 analytically  !
 ! R39   R(37,38)                2.2811         calculate D2E/DX2 analytically  !
 ! R40   R(37,40)                1.258          calculate D2E/DX2 analytically  !
 ! R41   R(37,41)                1.0919         calculate D2E/DX2 analytically  !
 ! R42   R(37,44)                2.2982         calculate D2E/DX2 analytically  !
 ! R43   R(38,41)                2.3059         calculate D2E/DX2 analytically  !
 ! R44   R(38,44)                1.0893         calculate D2E/DX2 analytically  !
 ! R45   R(39,40)                2.1886         calculate D2E/DX2 analytically  !
 ! R46   R(39,42)                1.5183         calculate D2E/DX2 analytically  !
 ! R47   R(39,103)               1.0859         calculate D2E/DX2 analytically  !
 ! R48   R(40,91)                1.6002         calculate D2E/DX2 analytically  !
 ! R49   R(40,103)               2.1569         calculate D2E/DX2 analytically  !
 ! R50   R(42,104)               1.0896         calculate D2E/DX2 analytically  !
 ! R51   R(42,105)               1.0899         calculate D2E/DX2 analytically  !
 ! R52   R(42,106)               1.0908         calculate D2E/DX2 analytically  !
 ! R53   R(45,46)                1.3907         calculate D2E/DX2 analytically  !
 ! R54   R(45,49)                1.0811         calculate D2E/DX2 analytically  !
 ! R55   R(45,53)                1.4174         calculate D2E/DX2 analytically  !
 ! R56   R(46,47)                1.3881         calculate D2E/DX2 analytically  !
 ! R57   R(46,50)                1.0808         calculate D2E/DX2 analytically  !
 ! R58   R(47,48)                1.3915         calculate D2E/DX2 analytically  !
 ! R59   R(47,51)                1.0802         calculate D2E/DX2 analytically  !
 ! R60   R(48,52)                1.0795         calculate D2E/DX2 analytically  !
 ! R61   R(48,54)                1.4255         calculate D2E/DX2 analytically  !
 ! R62   R(53,54)                1.4281         calculate D2E/DX2 analytically  !
 ! R63   R(53,58)                1.4087         calculate D2E/DX2 analytically  !
 ! R64   R(54,55)                1.4365         calculate D2E/DX2 analytically  !
 ! R65   R(55,56)                1.4088         calculate D2E/DX2 analytically  !
 ! R66   R(55,64)                1.5059         calculate D2E/DX2 analytically  !
 ! R67   R(56,57)                1.4033         calculate D2E/DX2 analytically  !
 ! R68   R(56,59)                1.3717         calculate D2E/DX2 analytically  !
 ! R69   R(57,58)                1.3937         calculate D2E/DX2 analytically  !
 ! R70   R(57,80)                1.4924         calculate D2E/DX2 analytically  !
 ! R71   R(58,60)                1.081          calculate D2E/DX2 analytically  !
 ! R72   R(59,88)                1.6265         calculate D2E/DX2 analytically  !
 ! R73   R(61,62)                1.3924         calculate D2E/DX2 analytically  !
 ! R74   R(61,65)                1.0806         calculate D2E/DX2 analytically  !
 ! R75   R(61,68)                1.41           calculate D2E/DX2 analytically  !
 ! R76   R(62,63)                1.4017         calculate D2E/DX2 analytically  !
 ! R77   R(62,95)                1.4867         calculate D2E/DX2 analytically  !
 ! R78   R(63,64)                1.4091         calculate D2E/DX2 analytically  !
 ! R79   R(63,66)                1.3721         calculate D2E/DX2 analytically  !
 ! R80   R(64,67)                1.4357         calculate D2E/DX2 analytically  !
 ! R81   R(66,88)                1.6261         calculate D2E/DX2 analytically  !
 ! R82   R(67,68)                1.4285         calculate D2E/DX2 analytically  !
 ! R83   R(67,72)                1.4257         calculate D2E/DX2 analytically  !
 ! R84   R(68,69)                1.4177         calculate D2E/DX2 analytically  !
 ! R85   R(69,70)                1.3912         calculate D2E/DX2 analytically  !
 ! R86   R(69,73)                1.0806         calculate D2E/DX2 analytically  !
 ! R87   R(70,71)                1.3887         calculate D2E/DX2 analytically  !
 ! R88   R(70,74)                1.0807         calculate D2E/DX2 analytically  !
 ! R89   R(71,72)                1.392          calculate D2E/DX2 analytically  !
 ! R90   R(71,75)                1.0808         calculate D2E/DX2 analytically  !
 ! R91   R(72,76)                1.0802         calculate D2E/DX2 analytically  !
 ! R92   R(77,78)                1.3923         calculate D2E/DX2 analytically  !
 ! R93   R(77,82)                1.3923         calculate D2E/DX2 analytically  !
 ! R94   R(77,83)                1.0805         calculate D2E/DX2 analytically  !
 ! R95   R(78,79)                1.3926         calculate D2E/DX2 analytically  !
 ! R96   R(78,84)                1.0801         calculate D2E/DX2 analytically  !
 ! R97   R(79,80)                1.4014         calculate D2E/DX2 analytically  !
 ! R98   R(79,85)                1.0804         calculate D2E/DX2 analytically  !
 ! R99   R(80,81)                1.4003         calculate D2E/DX2 analytically  !
 ! R100  R(81,82)                1.3924         calculate D2E/DX2 analytically  !
 ! R101  R(81,86)                1.0809         calculate D2E/DX2 analytically  !
 ! R102  R(82,87)                1.0803         calculate D2E/DX2 analytically  !
 ! R103  R(88,89)                1.4851         calculate D2E/DX2 analytically  !
 ! R104  R(88,90)                1.6091         calculate D2E/DX2 analytically  !
 ! R105  R(90,91)                0.9847         calculate D2E/DX2 analytically  !
 ! R106  R(92,93)                1.3927         calculate D2E/DX2 analytically  !
 ! R107  R(92,97)                1.3928         calculate D2E/DX2 analytically  !
 ! R108  R(92,98)                1.0806         calculate D2E/DX2 analytically  !
 ! R109  R(93,94)                1.3922         calculate D2E/DX2 analytically  !
 ! R110  R(93,99)                1.0806         calculate D2E/DX2 analytically  !
 ! R111  R(94,95)                1.3979         calculate D2E/DX2 analytically  !
 ! R112  R(94,100)               1.0798         calculate D2E/DX2 analytically  !
 ! R113  R(95,96)                1.3993         calculate D2E/DX2 analytically  !
 ! R114  R(96,97)                1.3927         calculate D2E/DX2 analytically  !
 ! R115  R(96,101)               1.08           calculate D2E/DX2 analytically  !
 ! R116  R(97,102)               1.0804         calculate D2E/DX2 analytically  !
 ! A1    A(2,1,39)             124.6377         calculate D2E/DX2 analytically  !
 ! A2    A(2,1,43)             117.3076         calculate D2E/DX2 analytically  !
 ! A3    A(39,1,43)            117.683          calculate D2E/DX2 analytically  !
 ! A4    A(1,2,5)              119.6445         calculate D2E/DX2 analytically  !
 ! A5    A(1,2,38)             120.7125         calculate D2E/DX2 analytically  !
 ! A6    A(5,2,38)             119.3864         calculate D2E/DX2 analytically  !
 ! A7    A(6,3,7)              107.5031         calculate D2E/DX2 analytically  !
 ! A8    A(6,3,8)              106.5572         calculate D2E/DX2 analytically  !
 ! A9    A(6,3,38)             111.849          calculate D2E/DX2 analytically  !
 ! A10   A(7,3,8)              107.8869         calculate D2E/DX2 analytically  !
 ! A11   A(7,3,38)             109.8664         calculate D2E/DX2 analytically  !
 ! A12   A(8,3,38)             112.934          calculate D2E/DX2 analytically  !
 ! A13   A(9,4,10)             126.1926         calculate D2E/DX2 analytically  !
 ! A14   A(9,4,37)             122.4299         calculate D2E/DX2 analytically  !
 ! A15   A(10,4,37)            111.3679         calculate D2E/DX2 analytically  !
 ! A16   A(2,5,15)             128.7742         calculate D2E/DX2 analytically  !
 ! A17   A(4,10,11)            120.0167         calculate D2E/DX2 analytically  !
 ! A18   A(10,11,12)           109.9384         calculate D2E/DX2 analytically  !
 ! A19   A(10,11,13)           111.1156         calculate D2E/DX2 analytically  !
 ! A20   A(10,11,14)           111.0457         calculate D2E/DX2 analytically  !
 ! A21   A(12,11,13)           108.1629         calculate D2E/DX2 analytically  !
 ! A22   A(12,11,14)           108.1062         calculate D2E/DX2 analytically  !
 ! A23   A(13,11,14)           108.3705         calculate D2E/DX2 analytically  !
 ! A24   A(5,15,16)            110.7184         calculate D2E/DX2 analytically  !
 ! A25   A(5,15,20)            106.6253         calculate D2E/DX2 analytically  !
 ! A26   A(5,15,24)            108.2479         calculate D2E/DX2 analytically  !
 ! A27   A(16,15,20)           109.3903         calculate D2E/DX2 analytically  !
 ! A28   A(16,15,24)           110.5487         calculate D2E/DX2 analytically  !
 ! A29   A(20,15,24)           111.2393         calculate D2E/DX2 analytically  !
 ! A30   A(15,16,17)           111.168          calculate D2E/DX2 analytically  !
 ! A31   A(15,16,18)           110.9089         calculate D2E/DX2 analytically  !
 ! A32   A(15,16,19)           111.5999         calculate D2E/DX2 analytically  !
 ! A33   A(17,16,18)           107.8174         calculate D2E/DX2 analytically  !
 ! A34   A(17,16,19)           107.5488         calculate D2E/DX2 analytically  !
 ! A35   A(18,16,19)           107.618          calculate D2E/DX2 analytically  !
 ! A36   A(15,20,21)           111.2465         calculate D2E/DX2 analytically  !
 ! A37   A(15,20,22)           110.5724         calculate D2E/DX2 analytically  !
 ! A38   A(15,20,23)           111.3776         calculate D2E/DX2 analytically  !
 ! A39   A(21,20,22)           107.4492         calculate D2E/DX2 analytically  !
 ! A40   A(21,20,23)           107.9392         calculate D2E/DX2 analytically  !
 ! A41   A(22,20,23)           108.1007         calculate D2E/DX2 analytically  !
 ! A42   A(15,24,25)           110.4596         calculate D2E/DX2 analytically  !
 ! A43   A(15,24,29)           110.5331         calculate D2E/DX2 analytically  !
 ! A44   A(15,24,33)           110.7339         calculate D2E/DX2 analytically  !
 ! A45   A(25,24,29)           108.2544         calculate D2E/DX2 analytically  !
 ! A46   A(25,24,33)           108.5438         calculate D2E/DX2 analytically  !
 ! A47   A(29,24,33)           108.2354         calculate D2E/DX2 analytically  !
 ! A48   A(24,25,26)           111.8014         calculate D2E/DX2 analytically  !
 ! A49   A(24,25,27)           111.503          calculate D2E/DX2 analytically  !
 ! A50   A(24,25,28)           111.616          calculate D2E/DX2 analytically  !
 ! A51   A(26,25,27)           107.2498         calculate D2E/DX2 analytically  !
 ! A52   A(26,25,28)           107.1706         calculate D2E/DX2 analytically  !
 ! A53   A(27,25,28)           107.2333         calculate D2E/DX2 analytically  !
 ! A54   A(24,29,30)           111.6473         calculate D2E/DX2 analytically  !
 ! A55   A(24,29,31)           111.6732         calculate D2E/DX2 analytically  !
 ! A56   A(24,29,32)           111.5977         calculate D2E/DX2 analytically  !
 ! A57   A(30,29,31)           107.0691         calculate D2E/DX2 analytically  !
 ! A58   A(30,29,32)           107.4609         calculate D2E/DX2 analytically  !
 ! A59   A(31,29,32)           107.126          calculate D2E/DX2 analytically  !
 ! A60   A(24,33,34)           111.7172         calculate D2E/DX2 analytically  !
 ! A61   A(24,33,35)           111.6606         calculate D2E/DX2 analytically  !
 ! A62   A(24,33,36)           111.335          calculate D2E/DX2 analytically  !
 ! A63   A(34,33,35)           107.2083         calculate D2E/DX2 analytically  !
 ! A64   A(34,33,36)           107.1256         calculate D2E/DX2 analytically  !
 ! A65   A(35,33,36)           107.543          calculate D2E/DX2 analytically  !
 ! A66   A(4,37,38)            108.5422         calculate D2E/DX2 analytically  !
 ! A67   A(4,37,40)            121.5862         calculate D2E/DX2 analytically  !
 ! A68   A(4,37,41)            111.8113         calculate D2E/DX2 analytically  !
 ! A69   A(4,37,44)             94.8485         calculate D2E/DX2 analytically  !
 ! A70   A(38,37,40)            98.4446         calculate D2E/DX2 analytically  !
 ! A71   A(40,37,41)           124.3339         calculate D2E/DX2 analytically  !
 ! A72   A(40,37,44)            86.0906         calculate D2E/DX2 analytically  !
 ! A73   A(41,37,44)           104.7705         calculate D2E/DX2 analytically  !
 ! A74   A(2,38,3)             124.0108         calculate D2E/DX2 analytically  !
 ! A75   A(2,38,37)             99.2806         calculate D2E/DX2 analytically  !
 ! A76   A(2,38,41)             88.5911         calculate D2E/DX2 analytically  !
 ! A77   A(2,38,44)            120.4143         calculate D2E/DX2 analytically  !
 ! A78   A(3,38,37)            105.2392         calculate D2E/DX2 analytically  !
 ! A79   A(3,38,41)             90.8654         calculate D2E/DX2 analytically  !
 ! A80   A(3,38,44)            113.8275         calculate D2E/DX2 analytically  !
 ! A81   A(41,38,44)           104.4059         calculate D2E/DX2 analytically  !
 ! A82   A(1,39,40)             93.0613         calculate D2E/DX2 analytically  !
 ! A83   A(1,39,42)            123.0237         calculate D2E/DX2 analytically  !
 ! A84   A(1,39,103)           123.3266         calculate D2E/DX2 analytically  !
 ! A85   A(40,39,42)           108.7634         calculate D2E/DX2 analytically  !
 ! A86   A(42,39,103)          113.2754         calculate D2E/DX2 analytically  !
 ! A87   A(37,40,39)           126.1538         calculate D2E/DX2 analytically  !
 ! A88   A(37,40,91)           129.5796         calculate D2E/DX2 analytically  !
 ! A89   A(37,40,103)          115.914          calculate D2E/DX2 analytically  !
 ! A90   A(39,40,91)            96.4811         calculate D2E/DX2 analytically  !
 ! A91   A(91,40,103)          114.2291         calculate D2E/DX2 analytically  !
 ! A92   A(39,42,104)          110.3821         calculate D2E/DX2 analytically  !
 ! A93   A(39,42,105)          110.6392         calculate D2E/DX2 analytically  !
 ! A94   A(39,42,106)          111.6124         calculate D2E/DX2 analytically  !
 ! A95   A(104,42,105)         108.4587         calculate D2E/DX2 analytically  !
 ! A96   A(104,42,106)         107.9423         calculate D2E/DX2 analytically  !
 ! A97   A(105,42,106)         107.6877         calculate D2E/DX2 analytically  !
 ! A98   A(46,45,49)           120.0366         calculate D2E/DX2 analytically  !
 ! A99   A(46,45,53)           120.4685         calculate D2E/DX2 analytically  !
 ! A100  A(49,45,53)           119.4882         calculate D2E/DX2 analytically  !
 ! A101  A(45,46,47)           120.3147         calculate D2E/DX2 analytically  !
 ! A102  A(45,46,50)           119.9341         calculate D2E/DX2 analytically  !
 ! A103  A(47,46,50)           119.7494         calculate D2E/DX2 analytically  !
 ! A104  A(46,47,48)           120.4679         calculate D2E/DX2 analytically  !
 ! A105  A(46,47,51)           119.7755         calculate D2E/DX2 analytically  !
 ! A106  A(48,47,51)           119.7563         calculate D2E/DX2 analytically  !
 ! A107  A(47,48,52)           119.0578         calculate D2E/DX2 analytically  !
 ! A108  A(47,48,54)           121.2263         calculate D2E/DX2 analytically  !
 ! A109  A(52,48,54)           119.7131         calculate D2E/DX2 analytically  !
 ! A110  A(45,53,54)           119.889          calculate D2E/DX2 analytically  !
 ! A111  A(45,53,58)           120.7776         calculate D2E/DX2 analytically  !
 ! A112  A(54,53,58)           119.3218         calculate D2E/DX2 analytically  !
 ! A113  A(48,54,53)           117.6197         calculate D2E/DX2 analytically  !
 ! A114  A(48,54,55)           123.2286         calculate D2E/DX2 analytically  !
 ! A115  A(53,54,55)           119.1397         calculate D2E/DX2 analytically  !
 ! A116  A(54,55,56)           119.1163         calculate D2E/DX2 analytically  !
 ! A117  A(54,55,64)           120.5145         calculate D2E/DX2 analytically  !
 ! A118  A(56,55,64)           120.3153         calculate D2E/DX2 analytically  !
 ! A119  A(55,56,57)           121.2616         calculate D2E/DX2 analytically  !
 ! A120  A(55,56,59)           119.2078         calculate D2E/DX2 analytically  !
 ! A121  A(57,56,59)           119.5306         calculate D2E/DX2 analytically  !
 ! A122  A(56,57,58)           119.3455         calculate D2E/DX2 analytically  !
 ! A123  A(56,57,80)           121.7065         calculate D2E/DX2 analytically  !
 ! A124  A(58,57,80)           118.9374         calculate D2E/DX2 analytically  !
 ! A125  A(53,58,57)           121.5733         calculate D2E/DX2 analytically  !
 ! A126  A(53,58,60)           118.6528         calculate D2E/DX2 analytically  !
 ! A127  A(57,58,60)           119.7312         calculate D2E/DX2 analytically  !
 ! A128  A(56,59,88)           114.6739         calculate D2E/DX2 analytically  !
 ! A129  A(62,61,65)           119.5459         calculate D2E/DX2 analytically  !
 ! A130  A(62,61,68)           121.3636         calculate D2E/DX2 analytically  !
 ! A131  A(65,61,68)           119.0771         calculate D2E/DX2 analytically  !
 ! A132  A(61,62,63)           119.6975         calculate D2E/DX2 analytically  !
 ! A133  A(61,62,95)           118.7034         calculate D2E/DX2 analytically  !
 ! A134  A(63,62,95)           121.5851         calculate D2E/DX2 analytically  !
 ! A135  A(62,63,64)           120.8911         calculate D2E/DX2 analytically  !
 ! A136  A(62,63,66)           119.8568         calculate D2E/DX2 analytically  !
 ! A137  A(64,63,66)           119.1768         calculate D2E/DX2 analytically  !
 ! A138  A(55,64,63)           119.9874         calculate D2E/DX2 analytically  !
 ! A139  A(55,64,67)           120.8558         calculate D2E/DX2 analytically  !
 ! A140  A(63,64,67)           119.1563         calculate D2E/DX2 analytically  !
 ! A141  A(63,66,88)           114.2735         calculate D2E/DX2 analytically  !
 ! A142  A(64,67,68)           119.1327         calculate D2E/DX2 analytically  !
 ! A143  A(64,67,72)           123.0844         calculate D2E/DX2 analytically  !
 ! A144  A(68,67,72)           117.7826         calculate D2E/DX2 analytically  !
 ! A145  A(61,68,67)           119.2845         calculate D2E/DX2 analytically  !
 ! A146  A(61,68,69)           120.9383         calculate D2E/DX2 analytically  !
 ! A147  A(67,68,69)           119.7764         calculate D2E/DX2 analytically  !
 ! A148  A(68,69,70)           120.4798         calculate D2E/DX2 analytically  !
 ! A149  A(68,69,73)           119.5359         calculate D2E/DX2 analytically  !
 ! A150  A(70,69,73)           119.9826         calculate D2E/DX2 analytically  !
 ! A151  A(69,70,71)           120.3596         calculate D2E/DX2 analytically  !
 ! A152  A(69,70,74)           119.9433         calculate D2E/DX2 analytically  !
 ! A153  A(71,70,74)           119.6951         calculate D2E/DX2 analytically  !
 ! A154  A(70,71,72)           120.4583         calculate D2E/DX2 analytically  !
 ! A155  A(70,71,75)           119.7659         calculate D2E/DX2 analytically  !
 ! A156  A(72,71,75)           119.7753         calculate D2E/DX2 analytically  !
 ! A157  A(67,72,71)           121.1321         calculate D2E/DX2 analytically  !
 ! A158  A(67,72,76)           119.633          calculate D2E/DX2 analytically  !
 ! A159  A(71,72,76)           119.2339         calculate D2E/DX2 analytically  !
 ! A160  A(78,77,82)           120.4791         calculate D2E/DX2 analytically  !
 ! A161  A(78,77,83)           119.8249         calculate D2E/DX2 analytically  !
 ! A162  A(82,77,83)           119.6944         calculate D2E/DX2 analytically  !
 ! A163  A(77,78,79)           119.6469         calculate D2E/DX2 analytically  !
 ! A164  A(77,78,84)           120.1928         calculate D2E/DX2 analytically  !
 ! A165  A(79,78,84)           120.1588         calculate D2E/DX2 analytically  !
 ! A166  A(78,79,80)           120.6629         calculate D2E/DX2 analytically  !
 ! A167  A(78,79,85)           119.0917         calculate D2E/DX2 analytically  !
 ! A168  A(80,79,85)           120.2419         calculate D2E/DX2 analytically  !
 ! A169  A(57,80,79)           120.3528         calculate D2E/DX2 analytically  !
 ! A170  A(57,80,81)           120.7836         calculate D2E/DX2 analytically  !
 ! A171  A(79,80,81)           118.8636         calculate D2E/DX2 analytically  !
 ! A172  A(80,81,82)           120.6821         calculate D2E/DX2 analytically  !
 ! A173  A(80,81,86)           120.0381         calculate D2E/DX2 analytically  !
 ! A174  A(82,81,86)           119.2772         calculate D2E/DX2 analytically  !
 ! A175  A(77,82,81)           119.6653         calculate D2E/DX2 analytically  !
 ! A176  A(77,82,87)           120.3392         calculate D2E/DX2 analytically  !
 ! A177  A(81,82,87)           119.9939         calculate D2E/DX2 analytically  !
 ! A178  A(59,88,66)           112.4889         calculate D2E/DX2 analytically  !
 ! A179  A(59,88,89)           113.2936         calculate D2E/DX2 analytically  !
 ! A180  A(59,88,90)           102.3361         calculate D2E/DX2 analytically  !
 ! A181  A(66,88,89)           113.8305         calculate D2E/DX2 analytically  !
 ! A182  A(66,88,90)           101.1065         calculate D2E/DX2 analytically  !
 ! A183  A(89,88,90)           112.5501         calculate D2E/DX2 analytically  !
 ! A184  A(88,90,91)           111.2682         calculate D2E/DX2 analytically  !
 ! A185  A(40,91,90)           159.8179         calculate D2E/DX2 analytically  !
 ! A186  A(93,92,97)           120.4929         calculate D2E/DX2 analytically  !
 ! A187  A(93,92,98)           119.6516         calculate D2E/DX2 analytically  !
 ! A188  A(97,92,98)           119.8555         calculate D2E/DX2 analytically  !
 ! A189  A(92,93,94)           119.6639         calculate D2E/DX2 analytically  !
 ! A190  A(92,93,99)           120.5351         calculate D2E/DX2 analytically  !
 ! A191  A(94,93,99)           119.8007         calculate D2E/DX2 analytically  !
 ! A192  A(93,94,95)           120.5178         calculate D2E/DX2 analytically  !
 ! A193  A(93,94,100)          119.2578         calculate D2E/DX2 analytically  !
 ! A194  A(95,94,100)          120.224          calculate D2E/DX2 analytically  !
 ! A195  A(62,95,94)           120.8848         calculate D2E/DX2 analytically  !
 ! A196  A(62,95,96)           119.9215         calculate D2E/DX2 analytically  !
 ! A197  A(94,95,96)           119.1934         calculate D2E/DX2 analytically  !
 ! A198  A(95,96,97)           120.5154         calculate D2E/DX2 analytically  !
 ! A199  A(95,96,101)          120.0635         calculate D2E/DX2 analytically  !
 ! A200  A(97,96,101)          119.4156         calculate D2E/DX2 analytically  !
 ! A201  A(92,97,96)           119.6087         calculate D2E/DX2 analytically  !
 ! A202  A(92,97,102)          120.1915         calculate D2E/DX2 analytically  !
 ! A203  A(96,97,102)          120.1994         calculate D2E/DX2 analytically  !
 ! D1    D(39,1,2,5)          -178.1285         calculate D2E/DX2 analytically  !
 ! D2    D(39,1,2,38)           -3.9828         calculate D2E/DX2 analytically  !
 ! D3    D(43,1,2,5)            -5.3087         calculate D2E/DX2 analytically  !
 ! D4    D(43,1,2,38)          168.837          calculate D2E/DX2 analytically  !
 ! D5    D(2,1,39,40)           56.898          calculate D2E/DX2 analytically  !
 ! D6    D(2,1,39,42)          171.6663         calculate D2E/DX2 analytically  !
 ! D7    D(2,1,39,103)         -15.8328         calculate D2E/DX2 analytically  !
 ! D8    D(43,1,39,40)        -115.8972         calculate D2E/DX2 analytically  !
 ! D9    D(43,1,39,42)          -1.1289         calculate D2E/DX2 analytically  !
 ! D10   D(43,1,39,103)        171.3721         calculate D2E/DX2 analytically  !
 ! D11   D(1,2,5,15)           -57.1902         calculate D2E/DX2 analytically  !
 ! D12   D(38,2,5,15)          128.586          calculate D2E/DX2 analytically  !
 ! D13   D(1,2,38,3)          -175.4942         calculate D2E/DX2 analytically  !
 ! D14   D(1,2,38,37)          -59.9273         calculate D2E/DX2 analytically  !
 ! D15   D(1,2,38,41)          -85.4008         calculate D2E/DX2 analytically  !
 ! D16   D(1,2,38,44)           20.5098         calculate D2E/DX2 analytically  !
 ! D17   D(5,2,38,3)            -1.3336         calculate D2E/DX2 analytically  !
 ! D18   D(5,2,38,37)          114.2333         calculate D2E/DX2 analytically  !
 ! D19   D(5,2,38,41)           88.7598         calculate D2E/DX2 analytically  !
 ! D20   D(5,2,38,44)         -165.3296         calculate D2E/DX2 analytically  !
 ! D21   D(6,3,38,2)            -1.3048         calculate D2E/DX2 analytically  !
 ! D22   D(6,3,38,37)         -113.9778         calculate D2E/DX2 analytically  !
 ! D23   D(6,3,38,41)          -90.189          calculate D2E/DX2 analytically  !
 ! D24   D(6,3,38,44)          163.63           calculate D2E/DX2 analytically  !
 ! D25   D(7,3,38,2)          -120.6071         calculate D2E/DX2 analytically  !
 ! D26   D(7,3,38,37)          126.7199         calculate D2E/DX2 analytically  !
 ! D27   D(7,3,38,41)          150.5087         calculate D2E/DX2 analytically  !
 ! D28   D(7,3,38,44)           44.3277         calculate D2E/DX2 analytically  !
 ! D29   D(8,3,38,2)           118.8961         calculate D2E/DX2 analytically  !
 ! D30   D(8,3,38,37)            6.2231         calculate D2E/DX2 analytically  !
 ! D31   D(8,3,38,41)           30.0119         calculate D2E/DX2 analytically  !
 ! D32   D(8,3,38,44)          -76.1691         calculate D2E/DX2 analytically  !
 ! D33   D(9,4,10,11)            1.3239         calculate D2E/DX2 analytically  !
 ! D34   D(37,4,10,11)        -179.7855         calculate D2E/DX2 analytically  !
 ! D35   D(9,4,37,38)           97.1176         calculate D2E/DX2 analytically  !
 ! D36   D(9,4,37,40)         -150.048          calculate D2E/DX2 analytically  !
 ! D37   D(9,4,37,41)           13.5345         calculate D2E/DX2 analytically  !
 ! D38   D(9,4,37,44)          121.566          calculate D2E/DX2 analytically  !
 ! D39   D(10,4,37,38)         -81.8217         calculate D2E/DX2 analytically  !
 ! D40   D(10,4,37,40)          31.0126         calculate D2E/DX2 analytically  !
 ! D41   D(10,4,37,41)        -165.4048         calculate D2E/DX2 analytically  !
 ! D42   D(10,4,37,44)         -57.3733         calculate D2E/DX2 analytically  !
 ! D43   D(2,5,15,16)            4.845          calculate D2E/DX2 analytically  !
 ! D44   D(2,5,15,20)          123.7516         calculate D2E/DX2 analytically  !
 ! D45   D(2,5,15,24)         -116.4772         calculate D2E/DX2 analytically  !
 ! D46   D(4,10,11,12)         179.9804         calculate D2E/DX2 analytically  !
 ! D47   D(4,10,11,13)         -60.3134         calculate D2E/DX2 analytically  !
 ! D48   D(4,10,11,14)          60.3895         calculate D2E/DX2 analytically  !
 ! D49   D(5,15,16,17)        -173.0548         calculate D2E/DX2 analytically  !
 ! D50   D(5,15,16,18)         -53.1081         calculate D2E/DX2 analytically  !
 ! D51   D(5,15,16,19)          66.8744         calculate D2E/DX2 analytically  !
 ! D52   D(20,15,16,17)         69.7248         calculate D2E/DX2 analytically  !
 ! D53   D(20,15,16,18)       -170.3285         calculate D2E/DX2 analytically  !
 ! D54   D(20,15,16,19)        -50.346          calculate D2E/DX2 analytically  !
 ! D55   D(24,15,16,17)        -53.1004         calculate D2E/DX2 analytically  !
 ! D56   D(24,15,16,18)         66.8462         calculate D2E/DX2 analytically  !
 ! D57   D(24,15,16,19)       -173.1713         calculate D2E/DX2 analytically  !
 ! D58   D(5,15,20,21)          66.9715         calculate D2E/DX2 analytically  !
 ! D59   D(5,15,20,22)         -52.341          calculate D2E/DX2 analytically  !
 ! D60   D(5,15,20,23)        -172.5587         calculate D2E/DX2 analytically  !
 ! D61   D(16,15,20,21)       -173.2593         calculate D2E/DX2 analytically  !
 ! D62   D(16,15,20,22)         67.4282         calculate D2E/DX2 analytically  !
 ! D63   D(16,15,20,23)        -52.7896         calculate D2E/DX2 analytically  !
 ! D64   D(24,15,20,21)        -50.846          calculate D2E/DX2 analytically  !
 ! D65   D(24,15,20,22)       -170.1585         calculate D2E/DX2 analytically  !
 ! D66   D(24,15,20,23)         69.6237         calculate D2E/DX2 analytically  !
 ! D67   D(5,15,24,25)          65.2796         calculate D2E/DX2 analytically  !
 ! D68   D(5,15,24,29)        -174.9356         calculate D2E/DX2 analytically  !
 ! D69   D(5,15,24,33)         -54.9971         calculate D2E/DX2 analytically  !
 ! D70   D(16,15,24,25)        -56.1475         calculate D2E/DX2 analytically  !
 ! D71   D(16,15,24,29)         63.6373         calculate D2E/DX2 analytically  !
 ! D72   D(16,15,24,33)       -176.4242         calculate D2E/DX2 analytically  !
 ! D73   D(20,15,24,25)       -177.8892         calculate D2E/DX2 analytically  !
 ! D74   D(20,15,24,29)        -58.1045         calculate D2E/DX2 analytically  !
 ! D75   D(20,15,24,33)         61.8341         calculate D2E/DX2 analytically  !
 ! D76   D(15,24,25,26)       -179.0176         calculate D2E/DX2 analytically  !
 ! D77   D(15,24,25,27)        -58.9606         calculate D2E/DX2 analytically  !
 ! D78   D(15,24,25,28)         60.9484         calculate D2E/DX2 analytically  !
 ! D79   D(29,24,25,26)         59.8339         calculate D2E/DX2 analytically  !
 ! D80   D(29,24,25,27)        179.8909         calculate D2E/DX2 analytically  !
 ! D81   D(29,24,25,28)        -60.2001         calculate D2E/DX2 analytically  !
 ! D82   D(33,24,25,26)        -57.4365         calculate D2E/DX2 analytically  !
 ! D83   D(33,24,25,27)         62.6205         calculate D2E/DX2 analytically  !
 ! D84   D(33,24,25,28)       -177.4704         calculate D2E/DX2 analytically  !
 ! D85   D(15,24,29,30)        -60.1846         calculate D2E/DX2 analytically  !
 ! D86   D(15,24,29,31)        179.9777         calculate D2E/DX2 analytically  !
 ! D87   D(15,24,29,32)         60.1014         calculate D2E/DX2 analytically  !
 ! D88   D(25,24,29,30)         60.9184         calculate D2E/DX2 analytically  !
 ! D89   D(25,24,29,31)        -58.9192         calculate D2E/DX2 analytically  !
 ! D90   D(25,24,29,32)       -178.7955         calculate D2E/DX2 analytically  !
 ! D91   D(33,24,29,30)        178.3868         calculate D2E/DX2 analytically  !
 ! D92   D(33,24,29,31)         58.5492         calculate D2E/DX2 analytically  !
 ! D93   D(33,24,29,32)        -61.3271         calculate D2E/DX2 analytically  !
 ! D94   D(15,24,33,34)       -179.9433         calculate D2E/DX2 analytically  !
 ! D95   D(15,24,33,35)        -59.8883         calculate D2E/DX2 analytically  !
 ! D96   D(15,24,33,36)         60.3307         calculate D2E/DX2 analytically  !
 ! D97   D(25,24,33,34)         58.6438         calculate D2E/DX2 analytically  !
 ! D98   D(25,24,33,35)        178.6987         calculate D2E/DX2 analytically  !
 ! D99   D(25,24,33,36)        -61.0822         calculate D2E/DX2 analytically  !
 ! D100  D(29,24,33,34)        -58.6387         calculate D2E/DX2 analytically  !
 ! D101  D(29,24,33,35)         61.4162         calculate D2E/DX2 analytically  !
 ! D102  D(29,24,33,36)       -178.3648         calculate D2E/DX2 analytically  !
 ! D103  D(4,37,38,2)         -177.5369         calculate D2E/DX2 analytically  !
 ! D104  D(4,37,38,3)          -48.3434         calculate D2E/DX2 analytically  !
 ! D105  D(40,37,38,2)          54.9957         calculate D2E/DX2 analytically  !
 ! D106  D(40,37,38,3)        -175.8108         calculate D2E/DX2 analytically  !
 ! D107  D(4,37,40,39)        -122.8291         calculate D2E/DX2 analytically  !
 ! D108  D(4,37,40,91)          95.4143         calculate D2E/DX2 analytically  !
 ! D109  D(4,37,40,103)        -91.0499         calculate D2E/DX2 analytically  !
 ! D110  D(38,37,40,39)         -4.8801         calculate D2E/DX2 analytically  !
 ! D111  D(38,37,40,91)       -146.6368         calculate D2E/DX2 analytically  !
 ! D112  D(38,37,40,103)        26.8991         calculate D2E/DX2 analytically  !
 ! D113  D(41,37,40,39)         75.6989         calculate D2E/DX2 analytically  !
 ! D114  D(41,37,40,91)        -66.0578         calculate D2E/DX2 analytically  !
 ! D115  D(41,37,40,103)       107.4781         calculate D2E/DX2 analytically  !
 ! D116  D(44,37,40,39)        -29.5366         calculate D2E/DX2 analytically  !
 ! D117  D(44,37,40,91)       -171.2932         calculate D2E/DX2 analytically  !
 ! D118  D(44,37,40,103)         2.2426         calculate D2E/DX2 analytically  !
 ! D119  D(1,39,40,37)         -45.5756         calculate D2E/DX2 analytically  !
 ! D120  D(1,39,40,91)         105.7287         calculate D2E/DX2 analytically  !
 ! D121  D(42,39,40,37)       -172.0572         calculate D2E/DX2 analytically  !
 ! D122  D(42,39,40,91)        -20.753          calculate D2E/DX2 analytically  !
 ! D123  D(1,39,42,104)        118.7632         calculate D2E/DX2 analytically  !
 ! D124  D(1,39,42,105)       -121.1788         calculate D2E/DX2 analytically  !
 ! D125  D(1,39,42,106)         -1.282          calculate D2E/DX2 analytically  !
 ! D126  D(40,39,42,104)      -134.4937         calculate D2E/DX2 analytically  !
 ! D127  D(40,39,42,105)       -14.4356         calculate D2E/DX2 analytically  !
 ! D128  D(40,39,42,106)       105.4612         calculate D2E/DX2 analytically  !
 ! D129  D(103,39,42,104)      -54.4192         calculate D2E/DX2 analytically  !
 ! D130  D(103,39,42,105)       65.6388         calculate D2E/DX2 analytically  !
 ! D131  D(103,39,42,106)     -174.4644         calculate D2E/DX2 analytically  !
 ! D132  D(37,40,91,90)        -29.6263         calculate D2E/DX2 analytically  !
 ! D133  D(39,40,91,90)       -179.4263         calculate D2E/DX2 analytically  !
 ! D134  D(103,40,91,90)       156.7492         calculate D2E/DX2 analytically  !
 ! D135  D(49,45,46,47)        178.8625         calculate D2E/DX2 analytically  !
 ! D136  D(49,45,46,50)         -0.6539         calculate D2E/DX2 analytically  !
 ! D137  D(53,45,46,47)         -0.1878         calculate D2E/DX2 analytically  !
 ! D138  D(53,45,46,50)       -179.7042         calculate D2E/DX2 analytically  !
 ! D139  D(46,45,53,54)         -0.5762         calculate D2E/DX2 analytically  !
 ! D140  D(46,45,53,58)        178.179          calculate D2E/DX2 analytically  !
 ! D141  D(49,45,53,54)       -179.6318         calculate D2E/DX2 analytically  !
 ! D142  D(49,45,53,58)         -0.8766         calculate D2E/DX2 analytically  !
 ! D143  D(45,46,47,48)          0.1762         calculate D2E/DX2 analytically  !
 ! D144  D(45,46,47,51)       -179.6281         calculate D2E/DX2 analytically  !
 ! D145  D(50,46,47,48)        179.6935         calculate D2E/DX2 analytically  !
 ! D146  D(50,46,47,51)         -0.1109         calculate D2E/DX2 analytically  !
 ! D147  D(46,47,48,52)       -178.7758         calculate D2E/DX2 analytically  !
 ! D148  D(46,47,48,54)          0.61           calculate D2E/DX2 analytically  !
 ! D149  D(51,47,48,52)          1.0286         calculate D2E/DX2 analytically  !
 ! D150  D(51,47,48,54)       -179.5856         calculate D2E/DX2 analytically  !
 ! D151  D(47,48,54,53)         -1.335          calculate D2E/DX2 analytically  !
 ! D152  D(47,48,54,55)        179.9382         calculate D2E/DX2 analytically  !
 ! D153  D(52,48,54,53)        178.0468         calculate D2E/DX2 analytically  !
 ! D154  D(52,48,54,55)         -0.68           calculate D2E/DX2 analytically  !
 ! D155  D(45,53,54,48)          1.305          calculate D2E/DX2 analytically  !
 ! D156  D(45,53,54,55)       -179.9144         calculate D2E/DX2 analytically  !
 ! D157  D(58,53,54,48)       -177.4684         calculate D2E/DX2 analytically  !
 ! D158  D(58,53,54,55)          1.3123         calculate D2E/DX2 analytically  !
 ! D159  D(45,53,58,57)       -176.4268         calculate D2E/DX2 analytically  !
 ! D160  D(45,53,58,60)          1.1922         calculate D2E/DX2 analytically  !
 ! D161  D(54,53,58,57)          2.3354         calculate D2E/DX2 analytically  !
 ! D162  D(54,53,58,60)        179.9544         calculate D2E/DX2 analytically  !
 ! D163  D(48,54,55,56)        173.6785         calculate D2E/DX2 analytically  !
 ! D164  D(48,54,55,64)         -3.6601         calculate D2E/DX2 analytically  !
 ! D165  D(53,54,55,56)         -5.0299         calculate D2E/DX2 analytically  !
 ! D166  D(53,54,55,64)        177.6315         calculate D2E/DX2 analytically  !
 ! D167  D(54,55,56,57)          5.2948         calculate D2E/DX2 analytically  !
 ! D168  D(54,55,56,59)       -174.7905         calculate D2E/DX2 analytically  !
 ! D169  D(64,55,56,57)       -177.3612         calculate D2E/DX2 analytically  !
 ! D170  D(64,55,56,59)          2.5535         calculate D2E/DX2 analytically  !
 ! D171  D(54,55,64,63)        117.8274         calculate D2E/DX2 analytically  !
 ! D172  D(54,55,64,67)        -61.906          calculate D2E/DX2 analytically  !
 ! D173  D(56,55,64,63)        -59.4792         calculate D2E/DX2 analytically  !
 ! D174  D(56,55,64,67)        120.7874         calculate D2E/DX2 analytically  !
 ! D175  D(55,56,57,58)         -1.7117         calculate D2E/DX2 analytically  !
 ! D176  D(55,56,57,80)        179.4828         calculate D2E/DX2 analytically  !
 ! D177  D(59,56,57,58)        178.3739         calculate D2E/DX2 analytically  !
 ! D178  D(59,56,57,80)         -0.4316         calculate D2E/DX2 analytically  !
 ! D179  D(55,56,59,88)         66.7983         calculate D2E/DX2 analytically  !
 ! D180  D(57,56,59,88)       -113.2855         calculate D2E/DX2 analytically  !
 ! D181  D(56,57,58,53)         -2.1841         calculate D2E/DX2 analytically  !
 ! D182  D(56,57,58,60)       -179.7779         calculate D2E/DX2 analytically  !
 ! D183  D(80,57,58,53)        176.6548         calculate D2E/DX2 analytically  !
 ! D184  D(80,57,58,60)         -0.939          calculate D2E/DX2 analytically  !
 ! D185  D(56,57,80,79)        132.0988         calculate D2E/DX2 analytically  !
 ! D186  D(56,57,80,81)        -48.0282         calculate D2E/DX2 analytically  !
 ! D187  D(58,57,80,79)        -46.7115         calculate D2E/DX2 analytically  !
 ! D188  D(58,57,80,81)        133.1615         calculate D2E/DX2 analytically  !
 ! D189  D(56,59,88,66)        -41.6528         calculate D2E/DX2 analytically  !
 ! D190  D(56,59,88,89)       -172.5216         calculate D2E/DX2 analytically  !
 ! D191  D(56,59,88,90)         66.0423         calculate D2E/DX2 analytically  !
 ! D192  D(65,61,62,63)       -178.8527         calculate D2E/DX2 analytically  !
 ! D193  D(65,61,62,95)          2.4828         calculate D2E/DX2 analytically  !
 ! D194  D(68,61,62,63)         -0.198          calculate D2E/DX2 analytically  !
 ! D195  D(68,61,62,95)       -178.8626         calculate D2E/DX2 analytically  !
 ! D196  D(62,61,68,67)          2.4424         calculate D2E/DX2 analytically  !
 ! D197  D(62,61,68,69)       -177.8859         calculate D2E/DX2 analytically  !
 ! D198  D(65,61,68,67)       -178.8968         calculate D2E/DX2 analytically  !
 ! D199  D(65,61,68,69)          0.7749         calculate D2E/DX2 analytically  !
 ! D200  D(61,62,63,64)         -5.3514         calculate D2E/DX2 analytically  !
 ! D201  D(61,62,63,66)        177.8311         calculate D2E/DX2 analytically  !
 ! D202  D(95,62,63,64)        173.2736         calculate D2E/DX2 analytically  !
 ! D203  D(95,62,63,66)         -3.544          calculate D2E/DX2 analytically  !
 ! D204  D(61,62,95,94)       -117.0629         calculate D2E/DX2 analytically  !
 ! D205  D(61,62,95,96)         62.7431         calculate D2E/DX2 analytically  !
 ! D206  D(63,62,95,94)         64.2989         calculate D2E/DX2 analytically  !
 ! D207  D(63,62,95,96)       -115.8951         calculate D2E/DX2 analytically  !
 ! D208  D(62,63,64,55)       -171.2846         calculate D2E/DX2 analytically  !
 ! D209  D(62,63,64,67)          8.4533         calculate D2E/DX2 analytically  !
 ! D210  D(66,63,64,55)          5.5542         calculate D2E/DX2 analytically  !
 ! D211  D(66,63,64,67)       -174.7079         calculate D2E/DX2 analytically  !
 ! D212  D(62,63,66,88)       -116.7334         calculate D2E/DX2 analytically  !
 ! D213  D(64,63,66,88)         66.3944         calculate D2E/DX2 analytically  !
 ! D214  D(55,64,67,68)        173.6696         calculate D2E/DX2 analytically  !
 ! D215  D(55,64,67,72)         -6.5369         calculate D2E/DX2 analytically  !
 ! D216  D(63,64,67,68)         -6.066          calculate D2E/DX2 analytically  !
 ! D217  D(63,64,67,72)        173.7276         calculate D2E/DX2 analytically  !
 ! D218  D(63,66,88,59)        -45.8765         calculate D2E/DX2 analytically  !
 ! D219  D(63,66,88,89)         84.7204         calculate D2E/DX2 analytically  !
 ! D220  D(63,66,88,90)       -154.3528         calculate D2E/DX2 analytically  !
 ! D221  D(64,67,68,61)          0.7319         calculate D2E/DX2 analytically  !
 ! D222  D(64,67,68,69)       -178.9436         calculate D2E/DX2 analytically  !
 ! D223  D(72,67,68,61)       -179.0725         calculate D2E/DX2 analytically  !
 ! D224  D(72,67,68,69)          1.2519         calculate D2E/DX2 analytically  !
 ! D225  D(64,67,72,71)        179.158          calculate D2E/DX2 analytically  !
 ! D226  D(64,67,72,76)         -1.1926         calculate D2E/DX2 analytically  !
 ! D227  D(68,67,72,71)         -1.0458         calculate D2E/DX2 analytically  !
 ! D228  D(68,67,72,76)        178.6036         calculate D2E/DX2 analytically  !
 ! D229  D(61,68,69,70)        179.6356         calculate D2E/DX2 analytically  !
 ! D230  D(61,68,69,73)          0.1219         calculate D2E/DX2 analytically  !
 ! D231  D(67,68,69,70)         -0.6943         calculate D2E/DX2 analytically  !
 ! D232  D(67,68,69,73)        179.792          calculate D2E/DX2 analytically  !
 ! D233  D(68,69,70,71)         -0.1261         calculate D2E/DX2 analytically  !
 ! D234  D(68,69,70,74)       -179.6174         calculate D2E/DX2 analytically  !
 ! D235  D(73,69,70,71)        179.3854         calculate D2E/DX2 analytically  !
 ! D236  D(73,69,70,74)         -0.1059         calculate D2E/DX2 analytically  !
 ! D237  D(69,70,71,72)          0.3513         calculate D2E/DX2 analytically  !
 ! D238  D(69,70,71,75)       -179.3863         calculate D2E/DX2 analytically  !
 ! D239  D(74,70,71,72)        179.8439         calculate D2E/DX2 analytically  !
 ! D240  D(74,70,71,75)          0.1062         calculate D2E/DX2 analytically  !
 ! D241  D(70,71,72,67)          0.2534         calculate D2E/DX2 analytically  !
 ! D242  D(70,71,72,76)       -179.3975         calculate D2E/DX2 analytically  !
 ! D243  D(75,71,72,67)        179.991          calculate D2E/DX2 analytically  !
 ! D244  D(75,71,72,76)          0.3402         calculate D2E/DX2 analytically  !
 ! D245  D(82,77,78,79)          0.038          calculate D2E/DX2 analytically  !
 ! D246  D(82,77,78,84)       -179.52           calculate D2E/DX2 analytically  !
 ! D247  D(83,77,78,79)        179.5777         calculate D2E/DX2 analytically  !
 ! D248  D(83,77,78,84)          0.0197         calculate D2E/DX2 analytically  !
 ! D249  D(78,77,82,81)         -0.1094         calculate D2E/DX2 analytically  !
 ! D250  D(78,77,82,87)        179.4214         calculate D2E/DX2 analytically  !
 ! D251  D(83,77,82,81)       -179.6497         calculate D2E/DX2 analytically  !
 ! D252  D(83,77,82,87)         -0.119          calculate D2E/DX2 analytically  !
 ! D253  D(77,78,79,80)          0.0263         calculate D2E/DX2 analytically  !
 ! D254  D(77,78,79,85)       -179.2906         calculate D2E/DX2 analytically  !
 ! D255  D(84,78,79,80)        179.5845         calculate D2E/DX2 analytically  !
 ! D256  D(84,78,79,85)          0.2676         calculate D2E/DX2 analytically  !
 ! D257  D(78,79,80,57)        179.8569         calculate D2E/DX2 analytically  !
 ! D258  D(78,79,80,81)         -0.0185         calculate D2E/DX2 analytically  !
 ! D259  D(85,79,80,57)         -0.834          calculate D2E/DX2 analytically  !
 ! D260  D(85,79,80,81)        179.2905         calculate D2E/DX2 analytically  !
 ! D261  D(57,80,81,82)       -179.9286         calculate D2E/DX2 analytically  !
 ! D262  D(57,80,81,86)          0.654          calculate D2E/DX2 analytically  !
 ! D263  D(79,80,81,82)         -0.0537         calculate D2E/DX2 analytically  !
 ! D264  D(79,80,81,86)       -179.4711         calculate D2E/DX2 analytically  !
 ! D265  D(80,81,82,77)          0.1174         calculate D2E/DX2 analytically  !
 ! D266  D(80,81,82,87)       -179.415          calculate D2E/DX2 analytically  !
 ! D267  D(86,81,82,77)        179.5392         calculate D2E/DX2 analytically  !
 ! D268  D(86,81,82,87)          0.0068         calculate D2E/DX2 analytically  !
 ! D269  D(59,88,90,91)       -109.7535         calculate D2E/DX2 analytically  !
 ! D270  D(66,88,90,91)          6.4749         calculate D2E/DX2 analytically  !
 ! D271  D(89,88,90,91)        128.3012         calculate D2E/DX2 analytically  !
 ! D272  D(88,90,91,40)        116.8734         calculate D2E/DX2 analytically  !
 ! D273  D(97,92,93,94)         -0.305          calculate D2E/DX2 analytically  !
 ! D274  D(97,92,93,99)        179.8755         calculate D2E/DX2 analytically  !
 ! D275  D(98,92,93,94)        179.7674         calculate D2E/DX2 analytically  !
 ! D276  D(98,92,93,99)         -0.0521         calculate D2E/DX2 analytically  !
 ! D277  D(93,92,97,96)          0.2047         calculate D2E/DX2 analytically  !
 ! D278  D(93,92,97,102)       179.997          calculate D2E/DX2 analytically  !
 ! D279  D(98,92,97,96)       -179.8678         calculate D2E/DX2 analytically  !
 ! D280  D(98,92,97,102)        -0.0756         calculate D2E/DX2 analytically  !
 ! D281  D(92,93,94,95)         -0.2648         calculate D2E/DX2 analytically  !
 ! D282  D(92,93,94,100)       179.5092         calculate D2E/DX2 analytically  !
 ! D283  D(99,93,94,95)        179.556          calculate D2E/DX2 analytically  !
 ! D284  D(99,93,94,100)        -0.67           calculate D2E/DX2 analytically  !
 ! D285  D(93,94,95,62)       -179.2713         calculate D2E/DX2 analytically  !
 ! D286  D(93,94,95,96)          0.9213         calculate D2E/DX2 analytically  !
 ! D287  D(100,94,95,62)         0.9569         calculate D2E/DX2 analytically  !
 ! D288  D(100,94,95,96)      -178.8505         calculate D2E/DX2 analytically  !
 ! D289  D(62,95,96,97)        179.1682         calculate D2E/DX2 analytically  !
 ! D290  D(62,95,96,101)         0.0176         calculate D2E/DX2 analytically  !
 ! D291  D(94,95,96,97)         -1.0226         calculate D2E/DX2 analytically  !
 ! D292  D(94,95,96,101)       179.8269         calculate D2E/DX2 analytically  !
 ! D293  D(95,96,97,92)          0.4658         calculate D2E/DX2 analytically  !
 ! D294  D(95,96,97,102)      -179.3263         calculate D2E/DX2 analytically  !
 ! D295  D(101,96,97,92)       179.6218         calculate D2E/DX2 analytically  !
 ! D296  D(101,96,97,102)       -0.1704         calculate D2E/DX2 analytically  !
 --------------------------------------------------------------------------------
 Trust Radius=1.00D-01 FncErr=1.00D-07 GrdErr=1.00D-06 EigMax=2.50D+02 EigMin=1.00D-04
 Number of steps in this run=     50 maximum allowed number of steps=    636.
 Search for a saddle point of order  1.
 GradGradGradGradGradGradGradGradGradGradGradGradGradGradGradGradGradGrad

 Stoichiometry    C47H49O8PSi
 Framework group  C1[X(C47H49O8PSi)]
 Deg. of freedom   312
 Full point group                 C1      NOp   1
 Largest Abelian subgroup         C1      NOp   1
 Largest concise Abelian subgroup C1      NOp   1
                         Standard orientation:                         
 ---------------------------------------------------------------------
 Center     Atomic      Atomic             Coordinates (Angstroms)
 Number     Number       Type             X           Y           Z
 ---------------------------------------------------------------------
      1          6           0       -1.233624    0.696034   -2.176146
      2          6           0       -1.387790    1.862771   -1.315824
      3          6           0       -0.632563    4.197550   -0.573172
      4          6           0        2.534260    3.149551   -1.265517
      5          8           0       -2.224975    1.808346   -0.265158
      6          1           0       -1.367492    4.090110    0.223890
      7          1           0       -0.899224    5.084895   -1.147596
      8          1           0        0.324215    4.387356   -0.089490
      9          8           0        3.002556    3.704465   -0.267638
     10          8           0        2.848415    3.422261   -2.551990
     11          6           0        3.821262    4.412546   -2.851106
     12          1           0        3.945573    4.497379   -3.930784
     13          1           0        3.520553    5.388095   -2.465642
     14          1           0        4.788973    4.154815   -2.417509
     15         14           0       -3.868606    1.456423   -0.245896
     16          6           0       -4.465490    0.968596   -1.963572
     17          1           0       -5.548154    0.857498   -1.986667
     18          1           0       -4.192208    1.723995   -2.699144
     19          1           0       -4.031804    0.023832   -2.285007
     20          6           0       -4.093911    0.009051    0.926132
     21          1           0       -3.869371    0.293898    1.952444
     22          1           0       -3.424616   -0.806059    0.659988
     23          1           0       -5.114586   -0.368685    0.898633
     24          6           0       -4.809542    3.011064    0.378851
     25          6           0       -4.655636    4.174611   -0.624576
     26          1           0       -5.167933    5.075029   -0.282557
     27          1           0       -3.607802    4.436310   -0.775532
     28          1           0       -5.069145    3.920208   -1.601368
     29          6           0       -6.315120    2.705455    0.538054
     30          1           0       -6.766591    2.403262   -0.407829
     31          1           0       -6.867847    3.576753    0.892844
     32          1           0       -6.488070    1.901538    1.254923
     33          6           0       -4.261936    3.467817    1.747977
     34          1           0       -4.786240    4.350053    2.118589
     35          1           0       -4.367145    2.688681    2.503881
     36          1           0       -3.204557    3.725135    1.686337
     37          6           0        1.446511    2.025028   -1.169282
     38          6           0       -0.604321    2.969920   -1.493123
     39          6           0       -0.391459    0.626936   -3.240113
     40          8           0        1.366413    1.110398   -2.029350
     41          1           0        1.002727    1.974065   -0.172953
     42          6           0       -0.122207   -0.659597   -4.000104
     43          1           0       -1.742016   -0.209429   -1.878950
     44          1           0       -0.103463    3.144417   -2.444528
     45          6           0        1.492931    2.851948    2.935107
     46          6           0        0.192681    3.201203    3.283520
     47          6           0       -0.850797    2.308510    3.080823
     48          6           0       -0.608845    1.053439    2.530683
     49          1           0        2.299474    3.557504    3.077877
     50          1           0       -0.009136    4.174866    3.707022
     51          1           0       -1.858240    2.591112    3.349060
     52          1           0       -1.439864    0.384751    2.364510
     53          6           0        1.769512    1.580463    2.373108
     54          6           0        0.709278    0.644772    2.173422
     55          6           0        1.008038   -0.639888    1.604380
     56          6           0        2.318257   -0.904604    1.159465
     57          6           0        3.356265    0.017930    1.361427
     58          6           0        3.077923    1.234124    1.982614
     59          8           0        2.581128   -2.088513    0.518503
     60          1           0        3.872084    1.950825    2.138072
     61          6           0       -2.262548   -3.401303    1.028789
     62          6           0       -1.534510   -2.941805   -0.065617
     63          6           0       -0.413774   -2.125207    0.139229
     64          6           0       -0.076713   -1.669592    1.429364
     65          1           0       -3.114999   -4.045847    0.869052
     66          8           0        0.332133   -1.707154   -0.933908
     67          6           0       -0.782986   -2.195151    2.563463
     68          6           0       -1.894677   -3.066007    2.347973
     69          6           0       -2.615800   -3.574910    3.457441
     70          6           0       -2.239872   -3.243901    4.755326
     71          6           0       -1.150809   -2.412097    4.980079
     72          6           0       -0.426467   -1.893468    3.910532
     73          1           0       -3.458175   -4.230669    3.289838
     74          1           0       -2.791975   -3.641726    5.594926
     75          1           0       -0.861109   -2.169173    5.992596
     76          1           0        0.423113   -1.256380    4.108272
     77          6           0        7.363730   -0.760910    0.048440
     78          6           0        6.766165    0.463055   -0.240323
     79          6           0        5.464164    0.711767    0.186722
     80          6           0        4.750046   -0.257143    0.904389
     81          6           0        5.367815   -1.481957    1.185395
     82          6           0        6.668869   -1.735805    0.759224
     83          1           0        8.371325   -0.959527   -0.287415
     84          1           0        7.306724    1.213153   -0.798760
     85          1           0        5.005060    1.660148   -0.052268
     86          1           0        4.831466   -2.246080    1.730250
     87          1           0        7.131368   -2.688213    0.973964
     88         15           0        1.865642   -2.247994   -0.933426
     89          8           0        2.024262   -3.602824   -1.520660
     90          8           0        2.596384   -1.108769   -1.803773
     91          1           0        1.982531   -0.366309   -2.007720
     92          6           0       -2.855055   -3.969967   -4.002654
     93          6           0       -1.613939   -4.415664   -3.554681
     94          6           0       -1.186227   -4.087548   -2.271056
     95          6           0       -1.990067   -3.310462   -1.431917
     96          6           0       -3.240611   -2.881257   -1.890276
     97          6           0       -3.672406   -3.204870   -3.174177
     98          1           0       -3.185201   -4.221577   -5.000326
     99          1           0       -0.980108   -5.010991   -4.196171
    100          1           0       -0.226266   -4.443270   -1.927587
    101          1           0       -3.874269   -2.282648   -1.252676
    102          1           0       -4.634228   -2.861655   -3.526686
    103          1           0        0.060402    1.500222   -3.701067
    104          1           0       -0.429633   -0.557246   -5.040429
    105          1           0        0.939523   -0.904700   -3.976531
    106          1           0       -0.666338   -1.501585   -3.570194
 ---------------------------------------------------------------------
 Rotational constants (GHZ):           0.0570552           0.0437081           0.0388211
 Standard basis: def2SVP (5D, 7F)
 There are  1108 symmetry adapted cartesian basis functions of A   symmetry.
 There are  1051 symmetry adapted basis functions of A   symmetry.
  1051 basis functions,  1792 primitive gaussians,  1108 cartesian basis functions
   212 alpha electrons      212 beta electrons
       nuclear repulsion energy      9466.1013690766 Hartrees.
 NAtoms=  106 NActive=  106 NUniq=  106 SFac= 1.00D+00 NAtFMM=   60 NAOKFM=T Big=T
 Integral buffers will be    131072 words long.
 Raffenetti 2 integral format.
 Two-electron integral symmetry is turned on.
 Nuclear repulsion after empirical dispersion term =     9465.9744547842 Hartrees.
 Force inversion solution in PCM.
 ------------------------------------------------------------------------------
 Polarizable Continuum Model (PCM)
 =================================
 Model                : PCM.
 Atomic radii         : UFF (Universal Force Field).
 Polarization charges : Total charges.
 Charge compensation  : None.
 Solution method      : Matrix inversion.
 Cavity type          : Scaled VdW (van der Waals Surface) (Alpha=1.100).
 Cavity algorithm     : GePol (No added spheres)
                        Default sphere list used, NSphG=  106.
                        Lebedev-Laikov grids with approx.  5.0 points / Ang**2.
                        Smoothing algorithm: York/Karplus (Gamma=1.0000).
                        Polarization charges: spherical gaussians, with
                                              point-specific exponents (IZeta= 3).
                        Self-potential: point-specific (ISelfS= 7).
                        Self-field    : sphere-specific E.n sum rule (ISelfD= 2).
 1st derivatives      : Analytical E(r).r(x)/FMM algorithm (CHGder, D1EAlg=3).
                        Cavity 1st derivative terms included.
 2nd derivatives      : Analytical E(r).r(xy)/FMM algorithm (CHGder, D2EAlg=3).
                        Cavity 2nd derivative terms included.
 Solvent              : Toluene, Eps=   2.374100 Eps(inf)=   2.238315
 ------------------------------------------------------------------------------
 One-electron integrals computed using PRISM.
   1 Symmetry operations used in ECPInt.
 ECPInt:  NShTT=  121771 NPrTT=  444119 LenC2=   95908 LenP2D=  216096.
 LDataN:  DoStor=T MaxTD1= 4 Len=   56
 NBasis=  1051 RedAO= T EigKep=  1.57D-04  NBF=  1051
 NBsUse=  1051 1.00D-06 EigRej= -1.00D+00 NBFU=  1051
 ExpMin= 7.80D-02 ExpMax= 8.00D+03 ExpMxC= 1.20D+03 IAcc=3 IRadAn=         5 AccDes= 0.00D+00
 Harris functional with IExCor= 4639 and IRadAn=       5 diagonalized for initial guess.
 HarFok:  IExCor= 4639 AccDes= 0.00D+00 IRadAn=         5 IDoV= 1 UseB2=F ITyADJ=14
 ICtDFT=  3500011 ScaDFX=  1.000000  1.000000  1.000000  1.000000
 FoFCou: FMM=F IPFlag=           0 FMFlag=      100000 FMFlg1=        2001
         NFxFlg=           0 DoJE=T BraDBF=F KetDBF=T FulRan=T
         wScrn=  0.000000 ICntrl=       500 IOpCl=  0 I1Cent=   200000004 NGrid=           0
         NMat0=    1 NMatS0=      1 NMatT0=    0 NMatD0=    1 NMtDS0=    0 NMtDT0=    0
 Petite list used in FoFCou.
 Requested convergence on RMS density matrix=1.00D-08 within 128 cycles.
 Requested convergence on MAX density matrix=1.00D-06.
 Requested convergence on             energy=1.00D-06.
 No special actions if energy rises.
 Inv3:  Mode=1 IEnd=   125932323.
 Iteration    1 A*A^-1 deviation from unit magnitude is 3.11D-15 for   1122.
 Iteration    1 A*A^-1 deviation from orthogonality  is 2.33D-15 for   5049   3797.
 Iteration    1 A^-1*A deviation from unit magnitude is 3.44D-15 for   5599.
 Iteration    1 A^-1*A deviation from orthogonality  is 2.36D-15 for   3713    749.
 Error on total polarization charges =  0.00978
 SCF Done:  E(RwB97XD) =  -3050.57590815     A.U. after   15 cycles
            NFock= 15  Conv=0.81D-08     -V/T= 2.0091
 DoSCS=F DFT=T ScalE2(SS,OS)=  1.000000  1.000000
 Range of M.O.s used for correlation:     1  1051
 NBasis=  1051 NAE=   212 NBE=   212 NFC=     0 NFV=     0
 NROrb=   1051 NOA=   212 NOB=   212 NVA=   839 NVB=   839

 **** Warning!!: The largest alpha MO coefficient is  0.10728734D+02

   1 Symmetry operations used in ECPInt.
 ECPInt:  NShTT=  121771 NPrTT=  444119 LenC2=   95908 LenP2D=  216096.
 LDataN:  DoStor=T MaxTD1= 5 Len=  102
 Number of processors reduced to   5 by ecpmxn.
 Symmetrizing basis deriv contribution to polar:
 IMax=3 JMax=2 DiffMx= 0.00D+00
 G2DrvN: will do   107 centers at a time, making    1 passes.
 Calling FoFCou, ICntrl=  3107 FMM=T I1Cent=   0 AccDes= 0.00D+00.
 NEqPCM:  Using equilibrium solvation (IEInf=0, Eps=   2.3741, EpsInf=   2.2383)
 G2PCM: DoFxE=T DoFxN=T DoGrad=T DoDP/DQ/DG/TGxP=FFFF NFrqRd=   0 IEInf=0 SqF1=F DoCFld=F IF1Alg=4.
 End of G2Drv F.D. properties file   721 does not exist.
 End of G2Drv F.D. properties file   722 does not exist.
 End of G2Drv F.D. properties file   788 does not exist.
          IDoAtm=11111111111111111111111111111111111111111111111111
          IDoAtm=11111111111111111111111111111111111111111111111111
          IDoAtm=111111
 NEqPCM:  Using equilibrium solvation (IEInf=0, Eps=   2.3741, EpsInf=   2.2383)
          Differentiating once with respect to nuclear coordinates.
 CalDSu exits because no D1Ps are significant.
          There are   321 degrees of freedom in the 1st order CPHF.  IDoFFX=6 NUNeed=     0.
    318 vectors produced by pass  0 Test12= 1.78D-13 1.00D-09 XBig12= 1.44D-01 7.65D-02.
 AX will form    72 AO Fock derivatives at one time.
    315 vectors produced by pass  1 Test12= 1.78D-13 1.00D-09 XBig12= 3.99D-02 5.22D-02.
    315 vectors produced by pass  2 Test12= 1.78D-13 1.00D-09 XBig12= 9.57D-04 3.60D-03.
    315 vectors produced by pass  3 Test12= 1.78D-13 1.00D-09 XBig12= 1.09D-05 4.14D-04.
    315 vectors produced by pass  4 Test12= 1.78D-13 1.00D-09 XBig12= 9.05D-08 3.02D-05.
    315 vectors produced by pass  5 Test12= 1.78D-13 1.00D-09 XBig12= 6.36D-10 2.29D-06.
    266 vectors produced by pass  6 Test12= 1.78D-13 1.00D-09 XBig12= 3.64D-12 1.42D-07.
     85 vectors produced by pass  7 Test12= 1.78D-13 1.00D-09 XBig12= 2.05D-14 7.79D-09.
     22 vectors produced by pass  8 Test12= 1.78D-13 1.00D-09 XBig12= 4.69D-15 2.71D-09.
     20 vectors produced by pass  9 Test12= 1.78D-13 1.00D-09 XBig12= 4.75D-15 3.15D-09.
     15 vectors produced by pass 10 Test12= 1.78D-13 1.00D-09 XBig12= 5.04D-15 3.43D-09.
      2 vectors produced by pass 11 Test12= 1.78D-13 1.00D-09 XBig12= 1.82D-15 1.68D-09.
      1 vectors produced by pass 12 Test12= 1.78D-13 1.00D-09 XBig12= 4.36D-16 1.09D-09.
 InvSVY:  IOpt=1 It=  1 EMax= 6.66D-16
 Solved reduced A of dimension  2304 with   321 vectors.
 End of Minotr F.D. properties file   721 does not exist.
 End of Minotr F.D. properties file   722 does not exist.
 End of Minotr F.D. properties file   788 does not exist.
 Hyperfine terms turned off by default for NAtoms > 100.

 **********************************************************************

            Population analysis using the SCF Density.

 **********************************************************************

 Orbital symmetries:
       Occupied  (A) (A) (A) (A) (A) (A) (A) (A) (A) (A) (A) (A)
                 (A) (A) (A) (A) (A) (A) (A) (A) (A) (A) (A) (A)
                 (A) (A) (A) (A) (A) (A) (A) (A) (A) (A) (A) (A)
                 (A) (A) (A) (A) (A) (A) (A) (A) (A) (A) (A) (A)
                 (A) (A) (A) (A) (A) (A) (A) (A) (A) (A) (A) (A)
                 (A) (A) (A) (A) (A) (A) (A) (A) (A) (A) (A) (A)
                 (A) (A) (A) (A) (A) (A) (A) (A) (A) (A) (A) (A)
                 (A) (A) (A) (A) (A) (A) (A) (A) (A) (A) (A) (A)
                 (A) (A) (A) (A) (A) (A) (A) (A) (A) (A) (A) (A)
                 (A) (A) (A) (A) (A) (A) (A) (A) (A) (A) (A) (A)
                 (A) (A) (A) (A) (A) (A) (A) (A) (A) (A) (A) (A)
                 (A) (A) (A) (A) (A) (A) (A) (A) (A) (A) (A) (A)
                 (A) (A) (A) (A) (A) (A) (A) (A) (A) (A) (A) (A)
                 (A) (A) (A) (A) (A) (A) (A) (A) (A) (A) (A) (A)
                 (A) (A) (A) (A) (A) (A) (A) (A) (A) (A) (A) (A)
                 (A) (A) (A) (A) (A) (A) (A) (A) (A) (A) (A) (A)
                 (A) (A) (A) (A) (A) (A) (A) (A) (A) (A) (A) (A)
                 (A) (A) (A) (A) (A) (A) (A) (A)
       Virtual   (A) (A) (A) (A) (A) (A) (A) (A) (A) (A) (A) (A)
                 (A) (A) (A) (A) (A) (A) (A) (A) (A) (A) (A) (A)
                 (A) (A) (A) (A) (A) (A) (A) (A) (A) (A) (A) (A)
                 (A) (A) (A) (A) (A) (A) (A) (A) (A) (A) (A) (A)
                 (A) (A) (A) (A) (A) (A) (A) (A) (A) (A) (A) (A)
                 (A) (A) (A) (A) (A) (A) (A) (A) (A) (A) (A) (A)
                 (A) (A) (A) (A) (A) (A) (A) (A) (A) (A) (A) (A)
                 (A) (A) (A) (A) (A) (A) (A) (A) (A) (A) (A) (A)
                 (A) (A) (A) (A) (A) (A) (A) (A) (A) (A) (A) (A)
                 (A) (A) (A) (A) (A) (A) (A) (A) (A) (A) (A) (A)
                 (A) (A) (A) (A) (A) (A) (A) (A) (A) (A) (A) (A)
                 (A) (A) (A) (A) (A) (A) (A) (A) (A) (A) (A) (A)
                 (A) (A) (A) (A) (A) (A) (A) (A) (A) (A) (A) (A)
                 (A) (A) (A) (A) (A) (A) (A) (A) (A) (A) (A) (A)
                 (A) (A) (A) (A) (A) (A) (A) (A) (A) (A) (A) (A)
                 (A) (A) (A) (A) (A) (A) (A) (A) (A) (A) (A) (A)
                 (A) (A) (A) (A) (A) (A) (A) (A) (A) (A) (A) (A)
                 (A) (A) (A) (A) (A) (A) (A) (A) (A) (A) (A) (A)
                 (A) (A) (A) (A) (A) (A) (A) (A) (A) (A) (A) (A)
                 (A) (A) (A) (A) (A) (A) (A) (A) (A) (A) (A) (A)
[...]
   D192      -3.13707  -0.00006   0.00000   0.00183   0.00182  -3.13524
   D193       0.05613  -0.00142   0.00000  -0.00285  -0.00285   0.05329
   D194      -0.01385   0.00007   0.00000  -0.00038  -0.00038  -0.01423
   D195      -3.10384  -0.00129   0.00000  -0.00505  -0.00505  -3.10888
   D196       0.04902  -0.00088   0.00000   0.00043   0.00043   0.04946
   D197      -3.09759  -0.00034   0.00000   0.00080   0.00080  -3.09678
   D198      -3.11090  -0.00075   0.00000  -0.00176  -0.00176  -3.11266
   D199       0.02568  -0.00021   0.00000  -0.00139  -0.00139   0.02429
   D200      -0.08860   0.00182   0.00000  -0.00011  -0.00011  -0.08870
   D201       3.09218   0.00014   0.00000  -0.00156  -0.00156   3.09062
   D202       3.00134   0.00294   0.00000   0.00446   0.00446   3.00580
   D203      -0.10107   0.00125   0.00000   0.00301   0.00301  -0.09807
   D204      -2.10652  -0.00081   0.00000  -0.00252  -0.00252  -2.10904
   D205       1.03471  -0.00185   0.00000  -0.00681  -0.00680   1.02791
   D206       1.08824  -0.00205   0.00000  -0.00725  -0.00725   1.08099
   D207      -2.05371  -0.00309   0.00000  -0.01153  -0.01154  -2.06525
   D208      -2.98770  -0.00401   0.00000  -0.00166  -0.00166  -2.98936
   D209       0.14931  -0.00266   0.00000   0.00053   0.00053   0.14984
   D210       0.11416  -0.00227   0.00000  -0.00018  -0.00018   0.11398
   D211      -3.03202  -0.00092   0.00000   0.00201   0.00201  -3.03001
   D212      -1.95081   0.00735   0.00000  -0.00348  -0.00348  -1.95428
   D213       1.22857   0.00576   0.00000  -0.00489  -0.00489   1.22368
   D214       3.02850   0.00299   0.00000   0.00183   0.00183   3.03033
   D215      -0.12638   0.00198   0.00000   0.00198   0.00198  -0.12440
   D216      -0.10837   0.00158   0.00000  -0.00043  -0.00043  -0.10880
   D217       3.01994   0.00058   0.00000  -0.00028  -0.00028   3.01966
   D218      -0.83899  -0.00021   0.00000   0.00858   0.00859  -0.83040
   D219       1.28567  -0.00346   0.00000   0.01301   0.01301   1.29868
   D220      -2.75626   0.00159   0.00000   0.01100   0.01100  -2.74526
   D221       0.01286   0.00004   0.00000  -0.00003  -0.00003   0.01283
   D222      -3.12381  -0.00049   0.00000  -0.00039  -0.00039  -3.12420
   D223      -3.11603   0.00101   0.00000  -0.00017  -0.00017  -3.11620
   D224       0.03049   0.00048   0.00000  -0.00053  -0.00053   0.02996
   D225       3.13143   0.00043   0.00000   0.00028   0.00028   3.13171
   D226      -0.01971   0.00055   0.00000   0.00060   0.00060  -0.01911
   D227      -0.02336  -0.00057   0.00000   0.00042   0.00042  -0.02294
   D228       3.10869  -0.00044   0.00000   0.00074   0.00074   3.10943
   D229       3.13039  -0.00058   0.00000  -0.00017  -0.00017   3.13021
   D230      -0.00176  -0.00053   0.00000  -0.00024  -0.00024  -0.00200
   D231      -0.01622  -0.00005   0.00000   0.00020   0.00020  -0.01602
   D232       3.13482   0.00001   0.00000   0.00013   0.00013   3.13495
   D233      -0.00613  -0.00031   0.00000   0.00027   0.00027  -0.00586
   D234      -3.13529  -0.00005   0.00000   0.00007   0.00007  -3.13523
   D235       3.12585  -0.00036   0.00000   0.00034   0.00034   3.12619
   D236      -0.00332  -0.00011   0.00000   0.00014   0.00014  -0.00318
   D237       0.01379   0.00022   0.00000  -0.00039  -0.00039   0.01340
   D238      -3.12275   0.00032   0.00000  -0.00049  -0.00049  -3.12324
   D239      -3.14018  -0.00004   0.00000  -0.00019  -0.00019  -3.14037
   D240       0.00646   0.00007   0.00000  -0.00029  -0.00029   0.00618
   D241       0.00134   0.00022   0.00000   0.00003   0.00003   0.00137
   D242      -3.13068   0.00010   0.00000  -0.00029  -0.00029  -3.13096
   D243       3.13788   0.00012   0.00000   0.00014   0.00014   3.13801
   D244       0.00586  -0.00000   0.00000  -0.00018  -0.00018   0.00568
   D245      -0.00058  -0.00001   0.00000   0.00025   0.00025  -0.00033
   D246      -3.13414   0.00001   0.00000   0.00017   0.00017  -3.13397
   D247       3.13548   0.00003   0.00000  -0.00000  -0.00000   3.13548
   D248       0.00192   0.00004   0.00000  -0.00008  -0.00008   0.00184
   D249       0.00121   0.00004   0.00000  -0.00039  -0.00039   0.00082
   D250       3.13812   0.00011   0.00000  -0.00054  -0.00054   3.13758
   D251      -3.13485   0.00001   0.00000  -0.00014  -0.00014  -3.13499
   D252       0.00206   0.00007   0.00000  -0.00028  -0.00028   0.00177
   D253       0.00053   0.00001   0.00000   0.00005   0.00005   0.00059
   D254      -3.12900   0.00006   0.00000  -0.00026  -0.00026  -3.12926
   D255       3.13413  -0.00001   0.00000   0.00013   0.00013   3.13426
   D256       0.00460   0.00005   0.00000  -0.00018  -0.00018   0.00442
   D257       3.13223  -0.00019   0.00000  -0.00042  -0.00042   3.13181
   D258      -0.00109  -0.00004   0.00000  -0.00022  -0.00022  -0.00131
   D259      -0.02137  -0.00024   0.00000  -0.00012  -0.00012  -0.02149
   D260       3.12849  -0.00009   0.00000   0.00009   0.00009   3.12857
   D261      -3.13136   0.00023   0.00000   0.00029   0.00029  -3.13107
   D262       0.01291   0.00009   0.00000   0.00106   0.00106   0.01397
   D263       0.00172   0.00008   0.00000   0.00008   0.00008   0.00180
   D264      -3.13720  -0.00006   0.00000   0.00086   0.00086  -3.13634
   D265      -0.00180  -0.00008   0.00000   0.00022   0.00022  -0.00158
   D266      -3.13873  -0.00014   0.00000   0.00037   0.00037  -3.13836
   D267       3.13712   0.00006   0.00000  -0.00055  -0.00055   3.13657
   D268       0.00019  -0.00000   0.00000  -0.00040  -0.00040  -0.00021
   D269      -1.67701   0.00482   0.00000   0.00789   0.00790  -1.66911
   D270       0.19434   0.00763   0.00000   0.01011   0.01011   0.20445
   D271       2.42657   0.01115   0.00000   0.00901   0.00901   2.43558
   D272       2.21615  -0.00198   0.00000   0.03948   0.03948   2.25563
   D273      -0.00959  -0.00014   0.00000   0.00081   0.00081  -0.00878
   D274       3.13910  -0.00011   0.00000  -0.00002  -0.00002   3.13908
   D275       3.13399  -0.00003   0.00000   0.00050   0.00050   3.13449
   D276      -0.00051   0.00000   0.00000  -0.00033  -0.00033  -0.00085
   D277       0.00402   0.00007   0.00000  -0.00030  -0.00030   0.00372
   D278      -3.14044   0.00025   0.00000  -0.00020  -0.00020  -3.14063
   D279      -3.13955  -0.00004   0.00000   0.00001   0.00001  -3.13954
   D280      -0.00082   0.00015   0.00000   0.00011   0.00011  -0.00071
   D281       0.00091   0.00001   0.00000  -0.00033  -0.00033   0.00059
   D282      -3.13064   0.00022   0.00000  -0.00279  -0.00279  -3.13343
   D283       3.13546  -0.00002   0.00000   0.00050   0.00050   3.13596
   D284       0.00391   0.00019   0.00000  -0.00196  -0.00196   0.00194
   D285      -3.12884  -0.00085   0.00000  -0.00495  -0.00495  -3.13379
   D286       0.01312   0.00019   0.00000  -0.00065  -0.00065   0.01246
   D287       0.00271  -0.00107   0.00000  -0.00248  -0.00248   0.00022
   D288      -3.13852  -0.00003   0.00000   0.00181   0.00181  -3.13671
   D289       3.12319   0.00074   0.00000   0.00532   0.00532   3.12851
   D290      -0.00462   0.00019   0.00000   0.00440   0.00440  -0.00023
   D291      -0.01875  -0.00026   0.00000   0.00116   0.00116  -0.01759
   D292       3.13662  -0.00082   0.00000   0.00024   0.00024   3.13686
   D293       0.01024   0.00014   0.00000  -0.00069  -0.00069   0.00955
   D294      -3.12850  -0.00005   0.00000  -0.00079  -0.00079  -3.12929
   D295       3.13798   0.00068   0.00000   0.00025   0.00025   3.13822
   D296      -0.00076   0.00050   0.00000   0.00014   0.00014  -0.00062
         Item               Value     Threshold  Converged?
 Maximum Force            0.051765     0.000450     NO 
 RMS     Force            0.003339     0.000300     NO 
 Maximum Displacement     0.137045     0.001800     NO 
 RMS     Displacement     0.028794     0.001200     NO 
 Predicted change in Energy=-4.880088D-05
 GradGradGradGradGradGradGradGradGradGradGradGradGradGradGradGradGradGrad

 Stoichiometry    C47H49O8PSi
 Framework group  C1[X(C47H49O8PSi)]
 Deg. of freedom   312
 Full point group                 C1      NOp   1
 Largest Abelian subgroup         C1      NOp   1
 Largest concise Abelian subgroup C1      NOp   1
                         Standard orientation:                         
 ---------------------------------------------------------------------
 Center     Atomic      Atomic             Coordinates (Angstroms)
 Number     Number       Type             X           Y           Z
 ---------------------------------------------------------------------
      1          6           0       -1.160438    0.333487   -2.283139
      2          6           0       -1.280202    1.544403   -1.502414
      3          6           0       -0.567043    3.878814   -0.832637
      4          6           0        2.396024    2.939000   -1.587471
      5          8           0       -2.108286    1.503176   -0.443803
      6          1           0       -1.299435    3.740190   -0.028475
      7          1           0       -0.854506    4.768312   -1.414097
      8          1           0        0.398334    4.098818   -0.351044
      9          8           0        2.860008    3.555846   -0.661446
     10          8           0        2.546519    3.261166   -2.862580
     11          6           0        3.326817    4.416350   -3.140787
     12          1           0        3.342966    4.527484   -4.229273
     13          1           0        2.879362    5.306357   -2.677347
     14          1           0        4.350051    4.293004   -2.761040
     15         14           0       -3.784598    1.208876   -0.364075
     16          6           0       -4.387134    0.477167   -1.982473
     17          1           0       -5.483450    0.384598   -1.964254
     18          1           0       -4.113930    1.112335   -2.837968
     19          1           0       -3.967590   -0.520884   -2.167246
     20          6           0       -4.017805    0.010779    1.049489
     21          1           0       -3.760549    0.462081    2.018801
     22          1           0       -3.369576   -0.866310    0.911012
     23          1           0       -5.059790   -0.337357    1.106156
     24          6           0       -4.665741    2.861616   -0.042069
     25          6           0       -4.460492    3.803296   -1.241016
     26          1           0       -4.958683    4.770823   -1.062905
     27          1           0       -3.394068    4.007705   -1.420183
     28          1           0       -4.879359    3.384119   -2.168613
     29          6           0       -6.170718    2.602067    0.147726
     30          1           0       -6.627437    2.141114   -0.741620
     31          1           0       -6.701761    3.550319    0.333541
     32          1           0       -6.368952    1.941383    1.006028
     33          6           0       -4.113949    3.533981    1.223948
     34          1           0       -4.632402    4.489042    1.411244
     35          1           0       -4.249914    2.904884    2.117517
     36          1           0       -3.040809    3.752242    1.129878
     37          6           0        1.585143    1.674151   -1.398654
     38          6           0       -0.502367    2.658101   -1.705299
     39          6           0       -0.359138    0.165542   -3.356995
     40          8           0        1.636479    0.766916   -2.232601
     41          1           0        1.215756    1.530930   -0.372777
     42          6           0       -0.120110   -1.162152   -3.993684
     43          1           0       -1.668555   -0.544395   -1.877416
     44          1           0       -0.018130    2.753595   -2.676520
     45          6           0        1.542317    3.256464    2.585177
     46          6           0        0.272390    3.692073    2.869897
     47          6           0       -0.817845    2.801007    2.758792
     48          6           0       -0.623653    1.497976    2.369921
     49          1           0        2.391621    3.938848    2.645325
     50          1           0        0.100420    4.726410    3.171714
     51          1           0       -1.826630    3.151649    2.977378
     52          1           0       -1.478135    0.833347    2.263368
     53          6           0        1.775892    1.910885    2.192627
     54          6           0        0.681205    1.005591    2.093141
     55          6           0        0.937736   -0.352772    1.701857
     56          6           0        2.223946   -0.711016    1.346314
     57          6           0        3.326244    0.187288    1.423179
     58          6           0        3.080278    1.466766    1.866494
     59          8           0        2.466033   -1.986183    0.885191
     60          1           0        3.905505    2.176474    1.938203
     61          6           0       -2.371036   -3.068833    1.277026
     62          6           0       -1.550611   -2.811581    0.203114
     63          6           0       -0.414151   -1.984439    0.415405
     64          6           0       -0.162320   -1.353792    1.617832
     65          1           0       -3.246437   -3.706383    1.139052
     66          8           0        0.438505   -1.778470   -0.645107
     67          6           0       -0.977105   -1.685640    2.750387
     68          6           0       -2.096577   -2.547274    2.566942
     69          6           0       -2.922832   -2.865167    3.678934
     70          6           0       -2.642579   -2.366699    4.927464
     71          6           0       -1.517376   -1.533157    5.117694
     72          6           0       -0.705114   -1.201117    4.059901
     73          1           0       -3.781459   -3.521462    3.524687
     74          1           0       -3.279497   -2.621314    5.776012
     75          1           0       -1.288254   -1.153068    6.114520
     76          1           0        0.164409   -0.565328    4.225321
     77          6           0        7.289447   -0.885867    0.167491
     78          6           0        6.715759    0.315350   -0.245836
     79          6           0        5.427286    0.650409    0.164843
     80          6           0        4.694121   -0.209213    0.994586
     81          6           0        5.280167   -1.414667    1.403432
     82          6           0        6.568382   -1.748578    0.992961
     83          1           0        8.296438   -1.153241   -0.157501
     84          1           0        7.270544    0.992504   -0.897463
     85          1           0        4.976608    1.586980   -0.170341
     86          1           0        4.723147   -2.097873    2.044723
     87          1           0        7.010084   -2.692286    1.317186
     88         15           0        1.942345   -2.408195   -0.593870
     89          8           0        2.050149   -3.859094   -0.802911
     90          8           0        2.705591   -1.480091   -1.607340
     91          1           0        2.195174   -0.664544   -1.878081
     92          6           0       -2.566262   -4.261343   -3.707092
     93          6           0       -1.359253   -4.643071   -3.120566
     94          6           0       -1.013991   -4.184633   -1.850542
     95          6           0       -1.879733   -3.334877   -1.151086
     96          6           0       -3.096677   -2.968944   -1.740172
     97          6           0       -3.437720   -3.423672   -3.013155
     98          1           0       -2.827681   -4.618514   -4.704645
     99          1           0       -0.673589   -5.300559   -3.657484
    100          1           0       -0.064079   -4.483395   -1.404608
    101          1           0       -3.777744   -2.310036   -1.197343
    102          1           0       -4.384747   -3.119920   -3.462659
    103          1           0        0.101478    1.019440   -3.855194
    104          1           0       -0.431108   -1.154434   -5.049384
    105          1           0        0.954796   -1.399627   -3.971321
    106          1           0       -0.658330   -1.965855   -3.473926
 ---------------------------------------------------------------------
 Rotational constants (GHZ):           0.0588467           0.0448379           0.0404480
 Standard basis: def2SVP (5D, 7F)
 There are  1108 symmetry adapted cartesian basis functions of A   symmetry.
 There are  1051 symmetry adapted basis functions of A   symmetry.
  1051 basis functions,  1792 primitive gaussians,  1108 cartesian basis functions
   212 alpha electrons      212 beta electrons
       nuclear repulsion energy      9579.7585663506 Hartrees.
 NAtoms=  106 NActive=  106 NUniq=  106 SFac= 1.00D+00 NAtFMM=   60 NAOKFM=T Big=T
 Integral buffers will be    131072 words long.
 Raffenetti 2 integral format.
 Two-electron integral symmetry is turned on.
 Nuclear repulsion after empirical dispersion term =     9579.6248655710 Hartrees.
 ------------------------------------------------------------------------------
 Polarizable Continuum Model (PCM)
 =================================
 Model                : PCM.
 Atomic radii         : UFF (Universal Force Field).
 Polarization charges : Total charges.
 Charge compensation  : None.
 Solution method      : Matrix inversion.
 Cavity type          : Scaled VdW (van der Waals Surface) (Alpha=1.100).
 Cavity algorithm     : GePol (No added spheres)
                        Default sphere list used, NSphG=  106.
                        Lebedev-Laikov grids with approx.  5.0 points / Ang**2.
                        Smoothing algorithm: York/Karplus (Gamma=1.0000).
                        Polarization charges: spherical gaussians, with
                                              point-specific exponents (IZeta= 3).
                        Self-potential: point-specific (ISelfS= 7).
                        Self-field    : sphere-specific E.n sum rule (ISelfD= 2).
 1st derivatives      : Analytical E(r).r(x)/FMM algorithm (CHGder, D1EAlg=3).
                        Cavity 1st derivative terms included.
 Solvent              : Toluene, Eps=   2.374100 Eps(inf)=   2.238315
 ------------------------------------------------------------------------------
 One-electron integrals computed using PRISM.
   1 Symmetry operations used in ECPInt.
 ECPInt:  NShTT=  121771 NPrTT=  444119 LenC2=   97010 LenP2D=  219237.
 LDataN:  DoStor=T MaxTD1= 4 Len=   56
 NBasis=  1051 RedAO= T EigKep=  1.46D-04  NBF=  1051
 NBsUse=  1051 1.00D-06 EigRej= -1.00D+00 NBFU=  1051
 Initial guess from the checkpoint file:  "BPA_TS_2_opt_dft.chk"
 B after Tr=     0.000000   -0.000000   -0.000000
         Rot=    0.999949    0.010091   -0.000780   -0.000667 Ang=   1.16 deg.
 ExpMin= 7.80D-02 ExpMax= 8.00D+03 ExpMxC= 1.20D+03 IAcc=3 IRadAn=         5 AccDes= 0.00D+00
 Harris functional with IExCor= 4639 and IRadAn=       5 diagonalized for initial guess.
 HarFok:  IExCor= 4639 AccDes= 0.00D+00 IRadAn=         5 IDoV= 1 UseB2=F ITyADJ=14
 ICtDFT=  3500011 ScaDFX=  1.000000  1.000000  1.000000  1.000000
 FoFCou: FMM=F IPFlag=           0 FMFlag=      100000 FMFlg1=        2001
         NFxFlg=           0 DoJE=T BraDBF=F KetDBF=T FulRan=T
         wScrn=  0.000000 ICntrl=       500 IOpCl=  0 I1Cent=   200000004 NGrid=           0
         NMat0=    1 NMatS0=      1 NMatT0=    0 NMatD0=    1 NMtDS0=    0 NMtDT0=    0
 Petite list used in FoFCou.
 Requested convergence on RMS density matrix=1.00D-08 within 128 cycles.
 Requested convergence on MAX density matrix=1.00D-06.
 Requested convergence on             energy=1.00D-06.
 No special actions if energy rises.
 Inv3:  Mode=1 IEnd=   114985443.
 Iteration    1 A*A^-1 deviation from unit magnitude is 3.44D-15 for   3273.
 Iteration    1 A*A^-1 deviation from orthogonality  is 2.39D-15 for   4475   2360.
 Iteration    1 A^-1*A deviation from unit magnitude is 3.22D-15 for   3273.
 Iteration    1 A^-1*A deviation from orthogonality  is 2.07D-15 for   3707   1753.
