Unloading slurm/anatra/current
  ERROR: No such file or directory on
    '/cm/local/modulefiles/slurm/anatra/current'
environment: line 0: unalias: gv: not found
environment: line 0: unalias: sl: not found
 Entering Gaussian System, Link 0=g16
 Initial command:
 /apps/gaussian/g16/C.01/g16/l1.exe "/local/jobs/1150743/Gau-3288409.inp" -scrdir="/local/jobs/1150743/"
 Entering Link 1 = /apps/gaussian/g16/C.01/g16/l1.exe PID=   3288410.
  
 Copyright (c) 1988-2019, Gaussian, Inc.  All Rights Reserved.
  
 This is part of the Gaussian(R) 16 program.  It is based on
 the Gaussian(R) 09 system (copyright 2009, Gaussian, Inc.),
 the Gaussian(R) 03 system (copyright 2003, Gaussian, Inc.),
 the Gaussian(R) 98 system (copyright 1998, Gaussian, Inc.),
 the Gaussian(R) 94 system (copyright 1995, Gaussian, Inc.),
 the Gaussian 92(TM) system (copyright 1992, Gaussian, Inc.),
 the Gaussian 90(TM) system (copyright 1990, Gaussian, Inc.),
 the Gaussian 88(TM) system (copyright 1988, Gaussian, Inc.),
 the Gaussian 86(TM) system (copyright 1986, Carnegie Mellon
 University), and the Gaussian 82(TM) system (copyright 1983,
 Carnegie Mellon University). Gaussian is a federally registered
 trademark of Gaussian, Inc.
  
 This software contains proprietary and confidential information,
 including trade secrets, belonging to Gaussian, Inc.
  
 This software is provided under written license and may be
 used, copied, transmitted, or stored only in accord with that
 written license.
  
 The following legend is applicable only to US Government
 contracts under FAR:
  
                    RESTRICTED RIGHTS LEGEND
  
 Use, reproduction and disclosure by the US Government is
 subject to restrictions as set forth in subparagraphs (a)
 and (c) of the Commercial Computer Software - Restricted
 Rights clause in FAR 52.227-19.
  
 Gaussian, Inc.
 340 Quinnipiac St., Bldg. 40, Wallingford CT 06492
  
  
 ---------------------------------------------------------------
 Warning -- This program may not be used in any manner that
 competes with the business of Gaussian, Inc. or will provide
 assistance to any competitor of Gaussian, Inc.  The licensee
 of this program is prohibited from giving any competitor of
 Gaussian, Inc. access to this program.  By using this program,
 the user acknowledges that Gaussian, Inc. is engaged in the
 business of creating and licensing software in the field of
 computational chemistry and represents and warrants to the
 licensee that it is not a competitor of Gaussian, Inc. and that
 it will not use this program in any manner prohibited above.
 ---------------------------------------------------------------
  

 Cite this work as:
 Gaussian 16, Revision C.01,
 M. J. Frisch, G. W. Trucks, H. B. Schlegel, G. E. Scuseria, 
 M. A. Robb, J. R. Cheeseman, G. Scalmani, V. Barone, 
 G. A. Petersson, H. Nakatsuji, X. Li, M. Caricato, A. V. Marenich, 
 J. Bloino, B. G. Janesko, R. Gomperts, B. Mennucci, H. P. Hratchian, 
 J. V. Ortiz, A. F. Izmaylov, J. L. Sonnenberg, D. Williams-Young, 
 F. Ding, F. Lipparini, F. Egidi, J. Goings, B. Peng, A. Petrone, 
 T. Henderson, D. Ranasinghe, V. G. Zakrzewski, J. Gao, N. Rega, 
 G. Zheng, W. Liang, M. Hada, M. Ehara, K. Toyota, R. Fukuda, 
 J. Hasegawa, M. Ishida, T. Nakajima, Y. Honda, O. Kitao, H. Nakai, 
 T. Vreven, K. Throssell, J. A. Montgomery, Jr., J. E. Peralta, 
 F. Ogliaro, M. J. Bearpark, J. J. Heyd, E. N. Brothers, K. N. Kudin, 
 V. N. Staroverov, T. A. Keith, R. Kobayashi, J. Normand, 
 K. Raghavachari, A. P. Rendell, J. C. Burant, S. S. Iyengar, 
 J. Tomasi, M. Cossi, J. M. Millam, M. Klene, C. Adamo, R. Cammi, 
 J. W. Ochterski, R. L. Martin, K. Morokuma, O. Farkas, 
 J. B. Foresman, and D. J. Fox, Gaussian, Inc., Wallingford CT, 2019.
 
 ******************************************
 Gaussian 16:  ES64L-G16RevC.01  3-Jul-2019
                18-Dec-2023 
 ******************************************
 %chk=BPA_TS_1_opt_dft.chk
 %nprocshared=12
 Will use up to   12 processors via shared memory.
 %mem=48GB
 ----------------------------------------------------------------------
 # wb97xd def2svp scrf=(iefpcm,solvent=toluene) opt=(calcfc,ts,noeigen,
 maxcycles=50,maxstep=10)
 ----------------------------------------------------------------------
 1/5=1,6=50,8=10,10=4,11=1,18=20,26=3,38=1/1,3;
 2/9=110,12=2,17=6,18=5,40=1/2;
 3/5=43,7=101,11=2,25=1,30=1,70=2201,71=2,72=13,74=-58,140=1/1,2,3;
 4//1;
 5/5=2,38=5,53=13/2;
 8/6=4,10=90,11=11/1;
 11/6=1,8=1,9=11,15=111,16=1/1,2,10;
 10/6=1,13=1/2;
 6/7=2,8=2,9=2,10=2,28=1/1;
 7/10=1,25=1/1,2,3,16;
 1/5=1,6=50,8=10,10=4,11=1,18=20,26=3/3(2);
 2/9=110/2;
 99//99;
 2/9=110/2;
 3/5=43,7=101,11=2,25=1,30=1,70=2205,71=1,72=13,74=-58/1,2,3;
 4/5=5,16=3,69=1/1;
 5/5=2,38=5,53=13/2;
 7//1,2,3,16;
 1/5=1,6=50,8=10,11=1,18=20,26=3/3(-5);
 2/9=110/2;
 6/7=2,8=2,9=2,10=2,19=2,28=1/1;
 99/9=1/99;
 ----------
 Structure2
 ----------
 Symbolic Z-matrix:
 Charge =  0 Multiplicity = 1
 C                    -2.1109    0.6771   -2.7109 
 C                    -1.2138   -0.206    -3.4409 
 C                    -0.7144   -2.4655   -4.5467 
 C                    -2.6062   -3.841    -2.0668 
 O                     0.0658    0.1671   -3.5966 
 H                    -0.6212   -3.3926   -3.9836 
 H                     0.2965   -2.0822   -4.6832 
 H                    -1.1085   -2.711    -5.5331 
 O                    -1.8339   -4.795    -1.9378 
 O                    -3.9059   -3.9096   -2.433 
 C                    -4.5087   -5.1714   -2.6797 
 H                    -4.4771   -5.8017   -1.7894 
 H                    -5.553    -5.0357   -2.9617 
 H                    -4.0028   -5.697    -3.4913 
 Si                    0.7049    1.0568   -4.8686 
 C                     2.3521    0.2678   -5.3043 
 H                     2.7621    0.6978   -6.2169 
 H                     3.0785    0.424    -4.5089 
 H                     2.2455   -0.8045   -5.4594 
 C                    -0.4458    0.9228   -6.3492 
 H                    -0.0683    1.4955   -7.1948 
 H                    -1.4387    1.2988   -6.1057 
 H                    -0.5544   -0.1134   -6.6655 
 C                     0.9502    2.8774   -4.3032 
 C                     1.5076    2.9131   -2.8638 
 H                     1.654     3.9336   -2.5074 
 H                     0.8318    2.4177   -2.165 
 H                     2.4702    2.4051   -2.7916 
 C                     1.9477    3.6051   -5.2313 
 H                     2.9309    3.1331   -5.2159 
 H                     2.0889    4.6457   -4.9346 
 H                     1.6026    3.6087   -6.2663 
 C                    -0.3837    3.655    -4.344 
 H                    -0.2609    4.6865   -4.0109 
 H                    -0.7955    3.6927   -5.3533 
 H                    -1.1396    3.1984   -3.7064 
 C                    -2.1541   -2.3574   -1.8399 
 C                    -1.6276   -1.4406   -3.8613 
 C                    -3.4178    0.4078   -2.4548 
 O                    -2.9582   -1.4762   -1.4402 
 H                    -1.0676   -2.2691   -1.7855 
 C                    -4.2735    1.259    -1.5336 
 H                    -1.6737    1.5489   -2.2467 
 H                    -2.6899   -1.6599   -3.9622 
 C                     1.6965   -3.9361   -1.3588 
 C                     2.4895   -3.2973   -2.3054 
 C                     2.6115   -1.9148   -2.2986 
 C                     1.9474   -1.151    -1.3431 
 H                     1.5893   -5.0116   -1.3795 
 H                     3.0071   -3.8778   -3.0558 
 H                     3.2236   -1.4292   -3.0439 
 H                     2.0403   -0.0754   -1.3741 
 C                     1.0083   -3.1851   -0.3735 
 C                     1.1382   -1.7629   -0.3412 
 C                     0.4372   -1.0189    0.6691 
 C                    -0.4439   -1.7005    1.5318 
 C                    -0.5669   -3.0977    1.4945 
 C                     0.1729   -3.8236    0.5634 
 O                    -1.1944   -0.9821    2.4266 
 H                     0.0809   -4.9       0.5278 
 C                     0.9073    3.2766    0.7367 
 C                    -0.3533    2.717     0.5462 
 C                    -0.5124    1.3251    0.613 
 C                     0.6012    0.4753    0.7763 
 H                     1.0245    4.35      0.6986 
 O                    -1.7589    0.7747    0.4497 
 C                     1.8876    1.0541    1.047 
 C                     2.033     2.4746    1.012 
 C                     3.3024    3.0594    1.2506 
 C                     4.405     2.2606    1.5353 
 C                     4.2746    0.8794    1.5931 
 C                     3.0421    0.2767    1.3578 
 H                     3.408     4.1344    1.219 
 H                     5.3672    2.7159    1.7223 
 H                     5.1351    0.2684    1.8261 
 H                     2.962    -0.7988    1.4178 
 C                    -3.2202   -5.2088    4.1199 
 C                    -2.3609   -4.2434    4.6378 
 C                    -1.4996   -3.5585    3.7846 
 C                    -1.4904   -3.829     2.4108 
 C                    -2.3631   -4.8028    1.907 
 C                    -3.2253   -5.4915    2.7566 
 H                    -3.8929   -5.7364    4.7807 
 H                    -2.3655   -4.0191    5.6946 
 H                    -0.8405   -2.8049    4.1921 
 H                    -2.3827   -5.0205    0.8488 
 H                    -3.8994   -6.2357    2.3585 
 P                    -2.3205   -0.0239    1.7499 
 O                    -3.0216    0.841     2.7326 
 O                    -3.3061   -1.0878    1.0527 
 H                    -3.2459   -1.036     0.0711 
 C                    -3.6387    5.3144   -0.3383 
 C                    -3.6651    4.541     0.8195 
 C                    -2.5936    3.7015    1.112 
 C                    -1.496     3.6225    0.2498 
 C                    -1.4768    4.418    -0.9008 
 C                    -2.5459    5.2588   -1.1999 
 H                    -4.4715    5.9638   -0.5668 
 H                    -4.5104    4.5863    1.4912 
 H                    -2.6161    3.115     2.0178 
 H                    -0.6327    4.3743   -1.5716 
 H                    -2.5281    5.8616   -2.0961 
 H                    -3.9807   -0.3607   -2.9761 
 H                    -4.6501    0.6634   -0.702 
 H                    -3.707     2.0912   -1.1139 
 H                    -5.1234    1.6712   -2.0767 
 
 Add virtual bond connecting atoms H91        and O40        Dist= 3.02D+00.
 Add virtual bond connecting atoms C38        and C37        Dist= 4.31D+00.
 Add virtual bond connecting atoms C38        and H41        Dist= 4.35D+00.
 Add virtual bond connecting atoms C39        and O40        Dist= 4.14D+00.
 Add virtual bond connecting atoms H44        and C37        Dist= 4.34D+00.
 Add virtual bond connecting atoms H103       and O40        Dist= 4.07D+00.

 GradGradGradGradGradGradGradGradGradGradGradGradGradGradGradGradGradGrad
 Berny optimization.
 Initialization pass.
                           ----------------------------
                           !    Initial Parameters    !
                           ! (Angstroms and Degrees)  !
 --------------------------                            --------------------------
 ! Name  Definition              Value          Derivative Info.                !
 --------------------------------------------------------------------------------
 ! R1    R(1,2)                  1.4552         calculate D2E/DX2 analytically  !
 ! R2    R(1,39)                 1.3587         calculate D2E/DX2 analytically  !
 ! R3    R(1,43)                 1.0801         calculate D2E/DX2 analytically  !
 ! R4    R(2,5)                  1.3419         calculate D2E/DX2 analytically  !
 ! R5    R(2,38)                 1.3683         calculate D2E/DX2 analytically  !
 ! R6    R(3,6)                  1.0887         calculate D2E/DX2 analytically  !
 ! R7    R(3,7)                  1.0897         calculate D2E/DX2 analytically  !
 ! R8    R(3,8)                  1.0902         calculate D2E/DX2 analytically  !
 ! R9    R(3,38)                 1.5343         calculate D2E/DX2 analytically  !
 ! R10   R(4,9)                  1.2342         calculate D2E/DX2 analytically  !
 ! R11   R(4,10)                 1.352          calculate D2E/DX2 analytically  !
 ! R12   R(4,37)                 1.5675         calculate D2E/DX2 analytically  !
 ! R13   R(5,15)                 1.6787         calculate D2E/DX2 analytically  !
 ! R14   R(10,11)                1.42           calculate D2E/DX2 analytically  !
 ! R15   R(11,12)                1.0913         calculate D2E/DX2 analytically  !
 ! R16   R(11,13)                1.0902         calculate D2E/DX2 analytically  !
 ! R17   R(11,14)                1.0913         calculate D2E/DX2 analytically  !
 ! R18   R(15,16)                1.8777         calculate D2E/DX2 analytically  !
 ! R19   R(15,20)                1.88           calculate D2E/DX2 analytically  !
 ! R20   R(15,24)                1.9221         calculate D2E/DX2 analytically  !
 ! R21   R(16,17)                1.089          calculate D2E/DX2 analytically  !
 ! R22   R(16,18)                1.0884         calculate D2E/DX2 analytically  !
 ! R23   R(16,19)                1.0887         calculate D2E/DX2 analytically  !
 ! R24   R(20,21)                1.0888         calculate D2E/DX2 analytically  !
 ! R25   R(20,22)                1.0893         calculate D2E/DX2 analytically  !
 ! R26   R(20,23)                1.0888         calculate D2E/DX2 analytically  !
 ! R27   R(24,25)                1.544          calculate D2E/DX2 analytically  !
 ! R28   R(24,29)                1.5446         calculate D2E/DX2 analytically  !
 ! R29   R(24,33)                1.5445         calculate D2E/DX2 analytically  !
 ! R30   R(25,26)                1.0908         calculate D2E/DX2 analytically  !
 ! R31   R(25,27)                1.0911         calculate D2E/DX2 analytically  !
 ! R32   R(25,28)                1.0908         calculate D2E/DX2 analytically  !
 ! R33   R(29,30)                1.0907         calculate D2E/DX2 analytically  !
 ! R34   R(29,31)                1.0912         calculate D2E/DX2 analytically  !
 ! R35   R(29,32)                1.091          calculate D2E/DX2 analytically  !
 ! R36   R(33,34)                1.0909         calculate D2E/DX2 analytically  !
 ! R37   R(33,35)                1.0907         calculate D2E/DX2 analytically  !
 ! R38   R(33,36)                1.0892         calculate D2E/DX2 analytically  !
 ! R39   R(37,38)                2.2812         calculate D2E/DX2 analytically  !
 ! R40   R(37,40)                1.2581         calculate D2E/DX2 analytically  !
 ! R41   R(37,41)                1.0914         calculate D2E/DX2 analytically  !
 ! R42   R(37,44)                2.2973         calculate D2E/DX2 analytically  !
 ! R43   R(38,41)                2.3041         calculate D2E/DX2 analytically  !
 ! R44   R(38,44)                1.0894         calculate D2E/DX2 analytically  !
 ! R45   R(39,40)                2.1886         calculate D2E/DX2 analytically  !
 ! R46   R(39,42)                1.5183         calculate D2E/DX2 analytically  !
 ! R47   R(39,103)               1.0859         calculate D2E/DX2 analytically  !
 ! R48   R(40,91)                1.6002         calculate D2E/DX2 analytically  !
 ! R49   R(40,103)               2.1561         calculate D2E/DX2 analytically  !
 ! R50   R(42,104)               1.09           calculate D2E/DX2 analytically  !
 ! R51   R(42,105)               1.0907         calculate D2E/DX2 analytically  !
 ! R52   R(42,106)               1.0896         calculate D2E/DX2 analytically  !
 ! R53   R(45,46)                1.3903         calculate D2E/DX2 analytically  !
 ! R54   R(45,49)                1.081          calculate D2E/DX2 analytically  !
 ! R55   R(45,53)                1.4172         calculate D2E/DX2 analytically  !
 ! R56   R(46,47)                1.3879         calculate D2E/DX2 analytically  !
 ! R57   R(46,50)                1.0807         calculate D2E/DX2 analytically  !
 ! R58   R(47,48)                1.3919         calculate D2E/DX2 analytically  !
 ! R59   R(47,51)                1.0798         calculate D2E/DX2 analytically  !
 ! R60   R(48,52)                1.08           calculate D2E/DX2 analytically  !
 ! R61   R(48,54)                1.4258         calculate D2E/DX2 analytically  !
 ! R62   R(53,54)                1.4285         calculate D2E/DX2 analytically  !
 ! R63   R(53,58)                1.4083         calculate D2E/DX2 analytically  !
 ! R64   R(54,55)                1.4372         calculate D2E/DX2 analytically  !
 ! R65   R(55,56)                1.409          calculate D2E/DX2 analytically  !
 ! R66   R(55,64)                1.507          calculate D2E/DX2 analytically  !
 ! R67   R(56,57)                1.4031         calculate D2E/DX2 analytically  !
 ! R68   R(56,59)                1.3711         calculate D2E/DX2 analytically  !
 ! R69   R(57,58)                1.3933         calculate D2E/DX2 analytically  !
 ! R70   R(57,80)                1.4924         calculate D2E/DX2 analytically  !
 ! R71   R(58,60)                1.0809         calculate D2E/DX2 analytically  !
 ! R72   R(59,88)                1.6261         calculate D2E/DX2 analytically  !
 ! R73   R(61,62)                1.3923         calculate D2E/DX2 analytically  !
 ! R74   R(61,65)                1.0805         calculate D2E/DX2 analytically  !
 ! R75   R(61,68)                1.4093         calculate D2E/DX2 analytically  !
 ! R76   R(62,63)                1.4026         calculate D2E/DX2 analytically  !
 ! R77   R(62,95)                1.4878         calculate D2E/DX2 analytically  !
 ! R78   R(63,64)                1.4103         calculate D2E/DX2 analytically  !
 ! R79   R(63,66)                1.3724         calculate D2E/DX2 analytically  !
 ! R80   R(64,67)                1.4364         calculate D2E/DX2 analytically  !
 ! R81   R(66,88)                1.6259         calculate D2E/DX2 analytically  !
 ! R82   R(67,68)                1.4284         calculate D2E/DX2 analytically  !
 ! R83   R(67,72)                1.4261         calculate D2E/DX2 analytically  !
 ! R84   R(68,69)                1.4178         calculate D2E/DX2 analytically  !
 ! R85   R(69,70)                1.391          calculate D2E/DX2 analytically  !
 ! R86   R(69,73)                1.0806         calculate D2E/DX2 analytically  !
 ! R87   R(70,71)                1.3885         calculate D2E/DX2 analytically  !
 ! R88   R(70,74)                1.0808         calculate D2E/DX2 analytically  !
 ! R89   R(71,72)                1.392          calculate D2E/DX2 analytically  !
 ! R90   R(71,75)                1.0808         calculate D2E/DX2 analytically  !
 ! R91   R(72,76)                1.0801         calculate D2E/DX2 analytically  !
 ! R92   R(77,78)                1.3923         calculate D2E/DX2 analytically  !
 ! R93   R(77,82)                1.3923         calculate D2E/DX2 analytically  !
 ! R94   R(77,83)                1.0805         calculate D2E/DX2 analytically  !
 ! R95   R(78,79)                1.3924         calculate D2E/DX2 analytically  !
 ! R96   R(78,84)                1.0804         calculate D2E/DX2 analytically  !
 ! R97   R(79,80)                1.4002         calculate D2E/DX2 analytically  !
 ! R98   R(79,85)                1.0809         calculate D2E/DX2 analytically  !
 ! R99   R(80,81)                1.4013         calculate D2E/DX2 analytically  !
 ! R100  R(81,82)                1.3927         calculate D2E/DX2 analytically  !
 ! R101  R(81,86)                1.0805         calculate D2E/DX2 analytically  !
 ! R102  R(82,87)                1.0802         calculate D2E/DX2 analytically  !
 ! R103  R(88,89)                1.485          calculate D2E/DX2 analytically  !
 ! R104  R(88,90)                1.6092         calculate D2E/DX2 analytically  !
 ! R105  R(90,91)                0.9848         calculate D2E/DX2 analytically  !
 ! R106  R(92,93)                1.3926         calculate D2E/DX2 analytically  !
 ! R107  R(92,97)                1.3927         calculate D2E/DX2 analytically  !
 ! R108  R(92,98)                1.0805         calculate D2E/DX2 analytically  !
 ! R109  R(93,94)                1.3923         calculate D2E/DX2 analytically  !
 ! R110  R(93,99)                1.0806         calculate D2E/DX2 analytically  !
 ! R111  R(94,95)                1.398          calculate D2E/DX2 analytically  !
 ! R112  R(94,100)               1.0793         calculate D2E/DX2 analytically  !
 ! R113  R(95,96)                1.399          calculate D2E/DX2 analytically  !
 ! R114  R(96,97)                1.3926         calculate D2E/DX2 analytically  !
 ! R115  R(96,101)               1.0791         calculate D2E/DX2 analytically  !
 ! R116  R(97,102)               1.0802         calculate D2E/DX2 analytically  !
 ! A1    A(2,1,39)             124.5588         calculate D2E/DX2 analytically  !
 ! A2    A(2,1,43)             117.1216         calculate D2E/DX2 analytically  !
 ! A3    A(39,1,43)            117.9243         calculate D2E/DX2 analytically  !
 ! A4    A(1,2,5)              118.5107         calculate D2E/DX2 analytically  !
 ! A5    A(1,2,38)             121.0152         calculate D2E/DX2 analytically  !
 ! A6    A(5,2,38)             120.2377         calculate D2E/DX2 analytically  !
 ! A7    A(6,3,7)              106.5532         calculate D2E/DX2 analytically  !
 ! A8    A(6,3,8)              107.8878         calculate D2E/DX2 analytically  !
 ! A9    A(6,3,38)             112.8756         calculate D2E/DX2 analytically  !
 ! A10   A(7,3,8)              107.5307         calculate D2E/DX2 analytically  !
 ! A11   A(7,3,38)             111.9091         calculate D2E/DX2 analytically  !
 ! A12   A(8,3,38)             109.843          calculate D2E/DX2 analytically  !
 ! A13   A(9,4,10)             126.2012         calculate D2E/DX2 analytically  !
 ! A14   A(9,4,37)             122.4123         calculate D2E/DX2 analytically  !
 ! A15   A(10,4,37)            111.3763         calculate D2E/DX2 analytically  !
 ! A16   A(2,5,15)             126.748          calculate D2E/DX2 analytically  !
 ! A17   A(4,10,11)            120.0143         calculate D2E/DX2 analytically  !
 ! A18   A(10,11,12)           111.0513         calculate D2E/DX2 analytically  !
 ! A19   A(10,11,13)           109.9363         calculate D2E/DX2 analytically  !
 ! A20   A(10,11,14)           111.1244         calculate D2E/DX2 analytically  !
 ! A21   A(12,11,13)           108.0991         calculate D2E/DX2 analytically  !
 ! A22   A(12,11,14)           108.3691         calculate D2E/DX2 analytically  !
 ! A23   A(13,11,14)           108.1585         calculate D2E/DX2 analytically  !
 ! A24   A(5,15,16)            106.6848         calculate D2E/DX2 analytically  !
 ! A25   A(5,15,20)            109.0238         calculate D2E/DX2 analytically  !
 ! A26   A(5,15,24)            109.1295         calculate D2E/DX2 analytically  !
 ! A27   A(16,15,20)           108.9207         calculate D2E/DX2 analytically  !
 ! A28   A(16,15,24)           110.7515         calculate D2E/DX2 analytically  !
 ! A29   A(20,15,24)           112.1666         calculate D2E/DX2 analytically  !
 ! A30   A(15,16,17)           111.0284         calculate D2E/DX2 analytically  !
 ! A31   A(15,16,18)           110.8295         calculate D2E/DX2 analytically  !
 ! A32   A(15,16,19)           111.1639         calculate D2E/DX2 analytically  !
 ! A33   A(17,16,18)           107.7268         calculate D2E/DX2 analytically  !
 ! A34   A(17,16,19)           107.8424         calculate D2E/DX2 analytically  !
 ! A35   A(18,16,19)           108.1075         calculate D2E/DX2 analytically  !
 ! A36   A(15,20,21)           111.2193         calculate D2E/DX2 analytically  !
 ! A37   A(15,20,22)           110.9328         calculate D2E/DX2 analytically  !
 ! A38   A(15,20,23)           110.9571         calculate D2E/DX2 analytically  !
 ! A39   A(21,20,22)           107.9434         calculate D2E/DX2 analytically  !
 ! A40   A(21,20,23)           108.0311         calculate D2E/DX2 analytically  !
 ! A41   A(22,20,23)           107.6091         calculate D2E/DX2 analytically  !
 ! A42   A(15,24,25)           110.0116         calculate D2E/DX2 analytically  !
 ! A43   A(15,24,29)           110.6039         calculate D2E/DX2 analytically  !
 ! A44   A(15,24,33)           111.0314         calculate D2E/DX2 analytically  !
 ! A45   A(25,24,29)           108.4288         calculate D2E/DX2 analytically  !
 ! A46   A(25,24,33)           108.9515         calculate D2E/DX2 analytically  !
 ! A47   A(29,24,33)           107.7375         calculate D2E/DX2 analytically  !
 ! A48   A(24,25,26)           112.0048         calculate D2E/DX2 analytically  !
 ! A49   A(24,25,27)           111.2835         calculate D2E/DX2 analytically  !
 ! A50   A(24,25,28)           111.6861         calculate D2E/DX2 analytically  !
 ! A51   A(26,25,27)           107.3765         calculate D2E/DX2 analytically  !
 ! A52   A(26,25,28)           107.195          calculate D2E/DX2 analytically  !
 ! A53   A(27,25,28)           107.0221         calculate D2E/DX2 analytically  !
 ! A54   A(24,29,30)           111.701          calculate D2E/DX2 analytically  !
 ! A55   A(24,29,31)           111.6812         calculate D2E/DX2 analytically  !
 ! A56   A(24,29,32)           111.5483         calculate D2E/DX2 analytically  !
 ! A57   A(30,29,31)           106.9883         calculate D2E/DX2 analytically  !
 ! A58   A(30,29,32)           107.4543         calculate D2E/DX2 analytically  !
 ! A59   A(31,29,32)           107.2002         calculate D2E/DX2 analytically  !
 ! A60   A(24,33,34)           111.7625         calculate D2E/DX2 analytically  !
 ! A61   A(24,33,35)           111.5863         calculate D2E/DX2 analytically  !
 ! A62   A(24,33,36)           111.8902         calculate D2E/DX2 analytically  !
 ! A63   A(34,33,35)           106.9999         calculate D2E/DX2 analytically  !
 ! A64   A(34,33,36)           107.203          calculate D2E/DX2 analytically  !
 ! A65   A(35,33,36)           107.1066         calculate D2E/DX2 analytically  !
 ! A66   A(4,37,38)            108.5839         calculate D2E/DX2 analytically  !
 ! A67   A(4,37,40)            121.6403         calculate D2E/DX2 analytically  !
 ! A68   A(4,37,41)            111.7718         calculate D2E/DX2 analytically  !
 ! A69   A(4,37,44)             94.9549         calculate D2E/DX2 analytically  !
 ! A70   A(38,37,40)            98.4842         calculate D2E/DX2 analytically  !
 ! A71   A(40,37,41)           124.3148         calculate D2E/DX2 analytically  !
 ! A72   A(40,37,44)            86.088          calculate D2E/DX2 analytically  !
 ! A73   A(41,37,44)           104.6938         calculate D2E/DX2 analytically  !
 ! A74   A(2,38,3)             124.0541         calculate D2E/DX2 analytically  !
 ! A75   A(2,38,37)             99.217          calculate D2E/DX2 analytically  !
 ! A76   A(2,38,41)             88.5182         calculate D2E/DX2 analytically  !
 ! A77   A(2,38,44)            120.3314         calculate D2E/DX2 analytically  !
 ! A78   A(3,38,37)            105.3521         calculate D2E/DX2 analytically  !
 ! A79   A(3,38,41)             91.0086         calculate D2E/DX2 analytically  !
 ! A80   A(3,38,44)            113.8624         calculate D2E/DX2 analytically  !
 ! A81   A(41,38,44)           104.3627         calculate D2E/DX2 analytically  !
 ! A82   A(1,39,40)             93.2106         calculate D2E/DX2 analytically  !
 ! A83   A(1,39,42)            123.047          calculate D2E/DX2 analytically  !
 ! A84   A(1,39,103)           123.2562         calculate D2E/DX2 analytically  !
 ! A85   A(40,39,42)           108.6429         calculate D2E/DX2 analytically  !
 ! A86   A(42,39,103)          113.3198         calculate D2E/DX2 analytically  !
 ! A87   A(37,40,39)           126.1472         calculate D2E/DX2 analytically  !
 ! A88   A(37,40,91)           127.4192         calculate D2E/DX2 analytically  !
 ! A89   A(37,40,103)          116.05           calculate D2E/DX2 analytically  !
 ! A90   A(39,40,91)            99.3967         calculate D2E/DX2 analytically  !
 ! A91   A(91,40,103)          116.4356         calculate D2E/DX2 analytically  !
 ! A92   A(39,42,104)          110.5648         calculate D2E/DX2 analytically  !
 ! A93   A(39,42,105)          111.6225         calculate D2E/DX2 analytically  !
 ! A94   A(39,42,106)          110.4427         calculate D2E/DX2 analytically  !
 ! A95   A(104,42,105)         107.6252         calculate D2E/DX2 analytically  !
 ! A96   A(104,42,106)         108.5115         calculate D2E/DX2 analytically  !
 ! A97   A(105,42,106)         107.9562         calculate D2E/DX2 analytically  !
 ! A98   A(46,45,49)           120.0423         calculate D2E/DX2 analytically  !
 ! A99   A(46,45,53)           120.455          calculate D2E/DX2 analytically  !
 ! A100  A(49,45,53)           119.4964         calculate D2E/DX2 analytically  !
 ! A101  A(45,46,47)           120.2971         calculate D2E/DX2 analytically  !
 ! A102  A(45,46,50)           119.942          calculate D2E/DX2 analytically  !
 ! A103  A(47,46,50)           119.7588         calculate D2E/DX2 analytically  !
 ! A104  A(46,47,48)           120.5332         calculate D2E/DX2 analytically  !
 ! A105  A(46,47,51)           119.6314         calculate D2E/DX2 analytically  !
 ! A106  A(48,47,51)           119.8349         calculate D2E/DX2 analytically  !
 ! A107  A(47,48,52)           119.0611         calculate D2E/DX2 analytically  !
 ! A108  A(47,48,54)           121.1743         calculate D2E/DX2 analytically  !
 ! A109  A(52,48,54)           119.7598         calculate D2E/DX2 analytically  !
 ! A110  A(45,53,54)           119.9438         calculate D2E/DX2 analytically  !
 ! A111  A(45,53,58)           120.6855         calculate D2E/DX2 analytically  !
 ! A112  A(54,53,58)           119.3592         calculate D2E/DX2 analytically  !
 ! A113  A(48,54,53)           117.5796         calculate D2E/DX2 analytically  !
 ! A114  A(48,54,55)           123.2705         calculate D2E/DX2 analytically  !
 ! A115  A(53,54,55)           119.1386         calculate D2E/DX2 analytically  !
 ! A116  A(54,55,56)           119.0124         calculate D2E/DX2 analytically  !
 ! A117  A(54,55,64)           120.6766         calculate D2E/DX2 analytically  !
 ! A118  A(56,55,64)           120.2752         calculate D2E/DX2 analytically  !
 ! A119  A(55,56,57)           121.3504         calculate D2E/DX2 analytically  !
 ! A120  A(55,56,59)           119.2361         calculate D2E/DX2 analytically  !
 ! A121  A(57,56,59)           119.4134         calculate D2E/DX2 analytically  !
 ! A122  A(56,57,58)           119.3429         calculate D2E/DX2 analytically  !
 ! A123  A(56,57,80)           121.7275         calculate D2E/DX2 analytically  !
 ! A124  A(58,57,80)           118.9198         calculate D2E/DX2 analytically  !
 ! A125  A(53,58,57)           121.5571         calculate D2E/DX2 analytically  !
 ! A126  A(53,58,60)           118.6896         calculate D2E/DX2 analytically  !
 ! A127  A(57,58,60)           119.7126         calculate D2E/DX2 analytically  !
 ! A128  A(56,59,88)           114.5961         calculate D2E/DX2 analytically  !
 ! A129  A(62,61,65)           119.517          calculate D2E/DX2 analytically  !
 ! A130  A(62,61,68)           121.4124         calculate D2E/DX2 analytically  !
 ! A131  A(65,61,68)           119.0517         calculate D2E/DX2 analytically  !
 ! A132  A(61,62,63)           119.6733         calculate D2E/DX2 analytically  !
 ! A133  A(61,62,95)           118.5568         calculate D2E/DX2 analytically  !
 ! A134  A(63,62,95)           121.7597         calculate D2E/DX2 analytically  !
 ! A135  A(62,63,64)           120.9263         calculate D2E/DX2 analytically  !
 ! A136  A(62,63,66)           119.6948         calculate D2E/DX2 analytically  !
 ! A137  A(64,63,66)           119.2957         calculate D2E/DX2 analytically  !
 ! A138  A(55,64,63)           120.2177         calculate D2E/DX2 analytically  !
 ! A139  A(55,64,67)           120.6915         calculate D2E/DX2 analytically  !
 ! A140  A(63,64,67)           119.0908         calculate D2E/DX2 analytically  !
 ! A141  A(63,66,88)           114.5544         calculate D2E/DX2 analytically  !
 ! A142  A(64,67,68)           119.1633         calculate D2E/DX2 analytically  !
 ! A143  A(64,67,72)           123.1227         calculate D2E/DX2 analytically  !
 ! A144  A(68,67,72)           117.7136         calculate D2E/DX2 analytically  !
 ! A145  A(61,68,67)           119.3022         calculate D2E/DX2 analytically  !
 ! A146  A(61,68,69)           120.8825         calculate D2E/DX2 analytically  !
 ! A147  A(67,68,69)           119.8151         calculate D2E/DX2 analytically  !
 ! A148  A(68,69,70)           120.4816         calculate D2E/DX2 analytically  !
 ! A149  A(68,69,73)           119.5295         calculate D2E/DX2 analytically  !
 ! A150  A(70,69,73)           119.9865         calculate D2E/DX2 analytically  !
 ! A151  A(69,70,71)           120.3517         calculate D2E/DX2 analytically  !
 ! A152  A(69,70,74)           119.9465         calculate D2E/DX2 analytically  !
 ! A153  A(71,70,74)           119.6991         calculate D2E/DX2 analytically  !
 ! A154  A(70,71,72)           120.4507         calculate D2E/DX2 analytically  !
 ! A155  A(70,71,75)           119.7719         calculate D2E/DX2 analytically  !
 ! A156  A(72,71,75)           119.777          calculate D2E/DX2 analytically  !
 ! A157  A(67,72,71)           121.1712         calculate D2E/DX2 analytically  !
 ! A158  A(67,72,76)           119.6594         calculate D2E/DX2 analytically  !
 ! A159  A(71,72,76)           119.1686         calculate D2E/DX2 analytically  !
 ! A160  A(78,77,82)           120.4813         calculate D2E/DX2 analytically  !
 ! A161  A(78,77,83)           119.6898         calculate D2E/DX2 analytically  !
 ! A162  A(82,77,83)           119.8273         calculate D2E/DX2 analytically  !
 ! A163  A(77,78,79)           119.6618         calculate D2E/DX2 analytically  !
 ! A164  A(77,78,84)           120.3434         calculate D2E/DX2 analytically  !
 ! A165  A(79,78,84)           119.993          calculate D2E/DX2 analytically  !
 ! A166  A(78,79,80)           120.6788         calculate D2E/DX2 analytically  !
 ! A167  A(78,79,85)           119.2813         calculate D2E/DX2 analytically  !
 ! A168  A(80,79,85)           120.0374         calculate D2E/DX2 analytically  !
 ! A169  A(57,80,79)           120.7838         calculate D2E/DX2 analytically  !
 ! A170  A(57,80,81)           120.3416         calculate D2E/DX2 analytically  !
 ! A171  A(79,80,81)           118.8745         calculate D2E/DX2 analytically  !
 ! A172  A(80,81,82)           120.6559         calculate D2E/DX2 analytically  !
 ! A173  A(80,81,86)           120.2244         calculate D2E/DX2 analytically  !
 ! A174  A(82,81,86)           119.1159         calculate D2E/DX2 analytically  !
 ! A175  A(77,82,81)           119.6476         calculate D2E/DX2 analytically  !
 ! A176  A(77,82,87)           120.2025         calculate D2E/DX2 analytically  !
 ! A177  A(81,82,87)           120.1483         calculate D2E/DX2 analytically  !
 ! A178  A(59,88,66)           112.5202         calculate D2E/DX2 analytically  !
 ! A179  A(59,88,89)           113.2511         calculate D2E/DX2 analytically  !
 ! A180  A(59,88,90)           102.4082         calculate D2E/DX2 analytically  !
 ! A181  A(66,88,89)           113.9649         calculate D2E/DX2 analytically  !
 ! A182  A(66,88,90)           100.9423         calculate D2E/DX2 analytically  !
 ! A183  A(89,88,90)           112.4956         calculate D2E/DX2 analytically  !
 ! A184  A(88,90,91)           111.0783         calculate D2E/DX2 analytically  !
 ! A185  A(40,91,90)           159.702          calculate D2E/DX2 analytically  !
 ! A186  A(93,92,97)           120.467          calculate D2E/DX2 analytically  !
 ! A187  A(93,92,98)           119.6691         calculate D2E/DX2 analytically  !
 ! A188  A(97,92,98)           119.8637         calculate D2E/DX2 analytically  !
 ! A189  A(92,93,94)           119.666          calculate D2E/DX2 analytically  !
 ! A190  A(92,93,99)           120.5524         calculate D2E/DX2 analytically  !
 ! A191  A(94,93,99)           119.7816         calculate D2E/DX2 analytically  !
 ! A192  A(93,94,95)           120.5801         calculate D2E/DX2 analytically  !
 ! A193  A(93,94,100)          119.2036         calculate D2E/DX2 analytically  !
 ! A194  A(95,94,100)          120.215          calculate D2E/DX2 analytically  !
 ! A195  A(62,95,94)           120.9669         calculate D2E/DX2 analytically  !
 ! A196  A(62,95,96)           119.96           calculate D2E/DX2 analytically  !
 ! A197  A(94,95,96)           119.0713         calculate D2E/DX2 analytically  !
 ! A198  A(95,96,97)           120.6259         calculate D2E/DX2 analytically  !
 ! A199  A(95,96,101)          119.9336         calculate D2E/DX2 analytically  !
 ! A200  A(97,96,101)          119.4367         calculate D2E/DX2 analytically  !
 ! A201  A(92,97,96)           119.5778         calculate D2E/DX2 analytically  !
 ! A202  A(92,97,102)          120.2592         calculate D2E/DX2 analytically  !
 ! A203  A(96,97,102)          120.1627         calculate D2E/DX2 analytically  !
 ! D1    D(39,1,2,5)          -178.4061         calculate D2E/DX2 analytically  !
 ! D2    D(39,1,2,38)           -3.9796         calculate D2E/DX2 analytically  !
 ! D3    D(43,1,2,5)            -5.7939         calculate D2E/DX2 analytically  !
 ! D4    D(43,1,2,38)          168.6326         calculate D2E/DX2 analytically  !
 ! D5    D(2,1,39,40)           56.7304         calculate D2E/DX2 analytically  !
 ! D6    D(2,1,39,42)          171.4677         calculate D2E/DX2 analytically  !
 ! D7    D(2,1,39,103)         -16.0556         calculate D2E/DX2 analytically  !
 ! D8    D(43,1,39,40)        -115.8273         calculate D2E/DX2 analytically  !
 ! D9    D(43,1,39,42)          -1.0901         calculate D2E/DX2 analytically  !
 ! D10   D(43,1,39,103)        171.3867         calculate D2E/DX2 analytically  !
 ! D11   D(1,2,5,15)           -90.6192         calculate D2E/DX2 analytically  !
 ! D12   D(38,2,5,15)           94.9096         calculate D2E/DX2 analytically  !
 ! D13   D(1,2,38,3)          -175.4908         calculate D2E/DX2 analytically  !
 ! D14   D(1,2,38,37)          -59.807          calculate D2E/DX2 analytically  !
 ! D15   D(1,2,38,41)          -85.2748         calculate D2E/DX2 analytically  !
 ! D16   D(1,2,38,44)           20.5299         calculate D2E/DX2 analytically  !
 ! D17   D(5,2,38,3)            -1.16           calculate D2E/DX2 analytically  !
 ! D18   D(5,2,38,37)          114.5238         calculate D2E/DX2 analytically  !
 ! D19   D(5,2,38,41)           89.056          calculate D2E/DX2 analytically  !
 ! D20   D(5,2,38,44)         -165.1392         calculate D2E/DX2 analytically  !
 ! D21   D(6,3,38,2)           118.6402         calculate D2E/DX2 analytically  !
 ! D22   D(6,3,38,37)            5.9317         calculate D2E/DX2 analytically  !
 ! D23   D(6,3,38,41)           29.7471         calculate D2E/DX2 analytically  !
 ! D24   D(6,3,38,44)          -76.458          calculate D2E/DX2 analytically  !
 ! D25   D(7,3,38,2)            -1.5574         calculate D2E/DX2 analytically  !
 ! D26   D(7,3,38,37)         -114.2659         calculate D2E/DX2 analytically  !
 ! D27   D(7,3,38,41)          -90.4505         calculate D2E/DX2 analytically  !
 ! D28   D(7,3,38,44)          163.3444         calculate D2E/DX2 analytically  !
 ! D29   D(8,3,38,2)          -120.9174         calculate D2E/DX2 analytically  !
 ! D30   D(8,3,38,37)          126.3742         calculate D2E/DX2 analytically  !
 ! D31   D(8,3,38,41)          150.1895         calculate D2E/DX2 analytically  !
 ! D32   D(8,3,38,44)           43.9845         calculate D2E/DX2 analytically  !
 ! D33   D(9,4,10,11)            1.463          calculate D2E/DX2 analytically  !
 ! D34   D(37,4,10,11)        -179.6865         calculate D2E/DX2 analytically  !
 ! D35   D(9,4,37,38)           96.316          calculate D2E/DX2 analytically  !
 ! D36   D(9,4,37,40)         -150.7294         calculate D2E/DX2 analytically  !
 ! D37   D(9,4,37,41)           12.8325         calculate D2E/DX2 analytically  !
 ! D38   D(9,4,37,44)          120.8187         calculate D2E/DX2 analytically  !
 ! D39   D(10,4,37,38)         -82.5852         calculate D2E/DX2 analytically  !
 ! D40   D(10,4,37,40)          30.3694         calculate D2E/DX2 analytically  !
 ! D41   D(10,4,37,41)        -166.0687         calculate D2E/DX2 analytically  !
 ! D42   D(10,4,37,44)         -58.0825         calculate D2E/DX2 analytically  !
 ! D43   D(2,5,15,16)         -138.4965         calculate D2E/DX2 analytically  !
 ! D44   D(2,5,15,20)          -21.0184         calculate D2E/DX2 analytically  !
 ! D45   D(2,5,15,24)          101.8028         calculate D2E/DX2 analytically  !
 ! D46   D(4,10,11,12)          60.3987         calculate D2E/DX2 analytically  !
 ! D47   D(4,10,11,13)         179.983          calculate D2E/DX2 analytically  !
 ! D48   D(4,10,11,14)         -60.312          calculate D2E/DX2 analytically  !
 ! D49   D(5,15,16,17)         171.6442         calculate D2E/DX2 analytically  !
 ! D50   D(5,15,16,18)         -68.6681         calculate D2E/DX2 analytically  !
 ! D51   D(5,15,16,19)          51.5889         calculate D2E/DX2 analytically  !
 ! D52   D(20,15,16,17)         54.098          calculate D2E/DX2 analytically  !
 ! D53   D(20,15,16,18)        173.7857         calculate D2E/DX2 analytically  !
 ! D54   D(20,15,16,19)        -65.9573         calculate D2E/DX2 analytically  !
 ! D55   D(24,15,16,17)        -69.7091         calculate D2E/DX2 analytically  !
 ! D56   D(24,15,16,18)         49.9786         calculate D2E/DX2 analytically  !
 ! D57   D(24,15,16,19)        170.2355         calculate D2E/DX2 analytically  !
 ! D58   D(5,15,20,21)         179.522          calculate D2E/DX2 analytically  !
 ! D59   D(5,15,20,22)          59.3661         calculate D2E/DX2 analytically  !
 ! D60   D(5,15,20,23)         -60.1949         calculate D2E/DX2 analytically  !
 ! D61   D(16,15,20,21)        -64.4234         calculate D2E/DX2 analytically  !
 ! D62   D(16,15,20,22)        175.4207         calculate D2E/DX2 analytically  !
 ! D63   D(16,15,20,23)         55.8597         calculate D2E/DX2 analytically  !
 ! D64   D(24,15,20,21)         58.5396         calculate D2E/DX2 analytically  !
 ! D65   D(24,15,20,22)        -61.6163         calculate D2E/DX2 analytically  !
 ! D66   D(24,15,20,23)        178.8227         calculate D2E/DX2 analytically  !
 ! D67   D(5,15,24,25)          41.1105         calculate D2E/DX2 analytically  !
 ! D68   D(5,15,24,29)         160.8694         calculate D2E/DX2 analytically  !
 ! D69   D(5,15,24,33)         -79.5758         calculate D2E/DX2 analytically  !
 ! D70   D(16,15,24,25)        -76.044          calculate D2E/DX2 analytically  !
 ! D71   D(16,15,24,29)         43.7149         calculate D2E/DX2 analytically  !
 ! D72   D(16,15,24,33)        163.2697         calculate D2E/DX2 analytically  !
 ! D73   D(20,15,24,25)        162.0319         calculate D2E/DX2 analytically  !
 ! D74   D(20,15,24,29)        -78.2092         calculate D2E/DX2 analytically  !
 ! D75   D(20,15,24,33)         41.3456         calculate D2E/DX2 analytically  !
 ! D76   D(15,24,25,26)       -179.6634         calculate D2E/DX2 analytically  !
 ! D77   D(15,24,25,27)        -59.4569         calculate D2E/DX2 analytically  !
 ! D78   D(15,24,25,28)         60.0817         calculate D2E/DX2 analytically  !
 ! D79   D(29,24,25,26)         59.2643         calculate D2E/DX2 analytically  !
 ! D80   D(29,24,25,27)        179.4709         calculate D2E/DX2 analytically  !
 ! D81   D(29,24,25,28)        -60.9906         calculate D2E/DX2 analytically  !
 ! D82   D(33,24,25,26)        -57.733          calculate D2E/DX2 analytically  !
 ! D83   D(33,24,25,27)         62.4736         calculate D2E/DX2 analytically  !
 ! D84   D(33,24,25,28)       -177.9878         calculate D2E/DX2 analytically  !
 ! D85   D(15,24,29,30)        -61.0618         calculate D2E/DX2 analytically  !
 ! D86   D(15,24,29,31)        179.1613         calculate D2E/DX2 analytically  !
 ! D87   D(15,24,29,32)         59.2188         calculate D2E/DX2 analytically  !
 ! D88   D(25,24,29,30)         59.6441         calculate D2E/DX2 analytically  !
 ! D89   D(25,24,29,31)        -60.1328         calculate D2E/DX2 analytically  !
 ! D90   D(25,24,29,32)        179.9247         calculate D2E/DX2 analytically  !
 ! D91   D(33,24,29,30)        177.4184         calculate D2E/DX2 analytically  !
 ! D92   D(33,24,29,31)         57.6415         calculate D2E/DX2 analytically  !
 ! D93   D(33,24,29,32)        -62.301          calculate D2E/DX2 analytically  !
 ! D94   D(15,24,33,34)        179.1481         calculate D2E/DX2 analytically  !
 ! D95   D(15,24,33,35)        -61.0831         calculate D2E/DX2 analytically  !
 ! D96   D(15,24,33,36)         58.9095         calculate D2E/DX2 analytically  !
 ! D97   D(25,24,33,34)         57.8377         calculate D2E/DX2 analytically  !
 ! D98   D(25,24,33,35)        177.6064         calculate D2E/DX2 analytically  !
 ! D99   D(25,24,33,36)        -62.4009         calculate D2E/DX2 analytically  !
 ! D100  D(29,24,33,34)        -59.5985         calculate D2E/DX2 analytically  !
 ! D101  D(29,24,33,35)         60.1702         calculate D2E/DX2 analytically  !
 ! D102  D(29,24,33,36)       -179.8371         calculate D2E/DX2 analytically  !
 ! D103  D(4,37,38,2)         -177.428          calculate D2E/DX2 analytically  !
 ! D104  D(4,37,38,3)          -48.1679         calculate D2E/DX2 analytically  !
 ! D105  D(40,37,38,2)          55.0028         calculate D2E/DX2 analytically  !
 ! D106  D(40,37,38,3)        -175.7372         calculate D2E/DX2 analytically  !
 ! D107  D(4,37,40,39)        -123.3209         calculate D2E/DX2 analytically  !
 ! D108  D(4,37,40,91)          92.244          calculate D2E/DX2 analytically  !
 ! D109  D(4,37,40,103)        -91.4543         calculate D2E/DX2 analytically  !
 ! D110  D(38,37,40,39)         -5.2613         calculate D2E/DX2 analytically  !
 ! D111  D(38,37,40,91)       -149.6964         calculate D2E/DX2 analytically  !
 ! D112  D(38,37,40,103)        26.6053         calculate D2E/DX2 analytically  !
 ! D113  D(41,37,40,39)         75.2313         calculate D2E/DX2 analytically  !
 ! D114  D(41,37,40,91)        -69.2038         calculate D2E/DX2 analytically  !
 ! D115  D(41,37,40,103)       107.098          calculate D2E/DX2 analytically  !
 ! D116  D(44,37,40,39)        -29.9068         calculate D2E/DX2 analytically  !
 ! D117  D(44,37,40,91)       -174.3419         calculate D2E/DX2 analytically  !
 ! D118  D(44,37,40,103)         1.9598         calculate D2E/DX2 analytically  !
 ! D119  D(1,39,40,37)         -45.1247         calculate D2E/DX2 analytically  !
 ! D120  D(1,39,40,91)         106.9568         calculate D2E/DX2 analytically  !
 ! D121  D(42,39,40,37)       -171.6626         calculate D2E/DX2 analytically  !
 ! D122  D(42,39,40,91)        -19.5811         calculate D2E/DX2 analytically  !
 ! D123  D(1,39,42,104)       -120.0396         calculate D2E/DX2 analytically  !
 ! D124  D(1,39,42,105)         -0.2649         calculate D2E/DX2 analytically  !
 ! D125  D(1,39,42,106)        119.8452         calculate D2E/DX2 analytically  !
 ! D126  D(40,39,42,104)       -13.1816         calculate D2E/DX2 analytically  !
 ! D127  D(40,39,42,105)       106.5931         calculate D2E/DX2 analytically  !
 ! D128  D(40,39,42,106)      -133.2967         calculate D2E/DX2 analytically  !
 ! D129  D(103,39,42,104)       66.8078         calculate D2E/DX2 analytically  !
 ! D130  D(103,39,42,105)     -173.4175         calculate D2E/DX2 analytically  !
 ! D131  D(103,39,42,106)      -53.3073         calculate D2E/DX2 analytically  !
 ! D132  D(37,40,91,90)        -24.344          calculate D2E/DX2 analytically  !
 ! D133  D(39,40,91,90)       -175.9161         calculate D2E/DX2 analytically  !
 ! D134  D(103,40,91,90)       159.3666         calculate D2E/DX2 analytically  !
 ! D135  D(49,45,46,47)        178.8301         calculate D2E/DX2 analytically  !
 ! D136  D(49,45,46,50)         -0.6407         calculate D2E/DX2 analytically  !
 ! D137  D(53,45,46,47)         -0.2539         calculate D2E/DX2 analytically  !
 ! D138  D(53,45,46,50)       -179.7247         calculate D2E/DX2 analytically  !
 ! D139  D(46,45,53,54)         -0.6216         calculate D2E/DX2 analytically  !
 ! D140  D(46,45,53,58)        178.1361         calculate D2E/DX2 analytically  !
 ! D141  D(49,45,53,54)       -179.7106         calculate D2E/DX2 analytically  !
 ! D142  D(49,45,53,58)         -0.9529         calculate D2E/DX2 analytically  !
 ! D143  D(45,46,47,48)          0.2515         calculate D2E/DX2 analytically  !
 ! D144  D(45,46,47,51)       -179.4868         calculate D2E/DX2 analytically  !
 ! D145  D(50,46,47,48)        179.7233         calculate D2E/DX2 analytically  !
 ! D146  D(50,46,47,51)         -0.0151         calculate D2E/DX2 analytically  !
 ! D147  D(46,47,48,52)       -178.5644         calculate D2E/DX2 analytically  !
 ! D148  D(46,47,48,54)          0.6374         calculate D2E/DX2 analytically  !
 ! D149  D(51,47,48,52)          1.1734         calculate D2E/DX2 analytically  !
 ! D150  D(51,47,48,54)       -179.6247         calculate D2E/DX2 analytically  !
 ! D151  D(47,48,54,53)         -1.4683         calculate D2E/DX2 analytically  !
 ! D152  D(47,48,54,55)        179.7624         calculate D2E/DX2 analytically  !
 ! D153  D(52,48,54,53)        177.7281         calculate D2E/DX2 analytically  !
 ! D154  D(52,48,54,55)         -1.0412         calculate D2E/DX2 analytically  !
 ! D155  D(45,53,54,48)          1.4469         calculate D2E/DX2 analytically  !
 ! D156  D(45,53,54,55)       -179.7311         calculate D2E/DX2 analytically  !
 ! D157  D(58,53,54,48)       -177.3273         calculate D2E/DX2 analytically  !
 ! D158  D(58,53,54,55)          1.4947         calculate D2E/DX2 analytically  !
 ! D159  D(45,53,58,57)       -176.5645         calculate D2E/DX2 analytically  !
 ! D160  D(45,53,58,60)          1.1048         calculate D2E/DX2 analytically  !
 ! D161  D(54,53,58,57)          2.2004         calculate D2E/DX2 analytically  !
 ! D162  D(54,53,58,60)        179.8697         calculate D2E/DX2 analytically  !
 ! D163  D(48,54,55,56)        173.6491         calculate D2E/DX2 analytically  !
 ! D164  D(48,54,55,64)         -4.1839         calculate D2E/DX2 analytically  !
 ! D165  D(53,54,55,56)         -5.102          calculate D2E/DX2 analytically  !
 ! D166  D(53,54,55,64)        177.065          calculate D2E/DX2 analytically  !
 ! D167  D(54,55,56,57)          5.2149         calculate D2E/DX2 analytically  !
 ! D168  D(54,55,56,59)       -174.8701         calculate D2E/DX2 analytically  !
 ! D169  D(64,55,56,57)       -176.9431         calculate D2E/DX2 analytically  !
 ! D170  D(64,55,56,59)          2.9718         calculate D2E/DX2 analytically  !
 ! D171  D(54,55,64,63)        118.8751         calculate D2E/DX2 analytically  !
 ! D172  D(54,55,64,67)        -61.2129         calculate D2E/DX2 analytically  !
 ! D173  D(56,55,64,63)        -58.9306         calculate D2E/DX2 analytically  !
 ! D174  D(56,55,64,67)        120.9814         calculate D2E/DX2 analytically  !
 ! D175  D(55,56,57,58)         -1.5866         calculate D2E/DX2 analytically  !
 ! D176  D(55,56,57,80)        179.5665         calculate D2E/DX2 analytically  !
 ! D177  D(59,56,57,58)        178.4987         calculate D2E/DX2 analytically  !
 ! D178  D(59,56,57,80)         -0.3483         calculate D2E/DX2 analytically  !
 ! D179  D(55,56,59,88)         66.9948         calculate D2E/DX2 analytically  !
 ! D180  D(57,56,59,88)       -113.0886         calculate D2E/DX2 analytically  !
 ! D181  D(56,57,58,53)         -2.2039         calculate D2E/DX2 analytically  !
 ! D182  D(56,57,58,60)       -179.8498         calculate D2E/DX2 analytically  !
 ! D183  D(80,57,58,53)        176.6756         calculate D2E/DX2 analytically  !
 ! D184  D(80,57,58,60)         -0.9703         calculate D2E/DX2 analytically  !
 ! D185  D(56,57,80,79)        -48.2024         calculate D2E/DX2 analytically  !
 ! D186  D(56,57,80,81)        131.928          calculate D2E/DX2 analytically  !
 ! D187  D(58,57,80,79)        132.9459         calculate D2E/DX2 analytically  !
 ! D188  D(58,57,80,81)        -46.9237         calculate D2E/DX2 analytically  !
 ! D189  D(56,59,88,66)        -43.1296         calculate D2E/DX2 analytically  !
 ! D190  D(56,59,88,89)       -174.1799         calculate D2E/DX2 analytically  !
 ! D191  D(56,59,88,90)         64.4258         calculate D2E/DX2 analytically  !
 ! D192  D(65,61,62,63)       -179.1378         calculate D2E/DX2 analytically  !
 ! D193  D(65,61,62,95)          2.0064         calculate D2E/DX2 analytically  !
 ! D194  D(68,61,62,63)         -0.7336         calculate D2E/DX2 analytically  !
 ! D195  D(68,61,62,95)       -179.5894         calculate D2E/DX2 analytically  !
 ! D196  D(62,61,68,67)          2.3713         calculate D2E/DX2 analytically  !
 ! D197  D(62,61,68,69)       -177.7621         calculate D2E/DX2 analytically  !
 ! D198  D(65,61,68,67)       -179.2172         calculate D2E/DX2 analytically  !
 ! D199  D(65,61,68,69)          0.6493         calculate D2E/DX2 analytically  !
 ! D200  D(61,62,63,64)         -4.533          calculate D2E/DX2 analytically  !
 ! D201  D(61,62,63,66)        178.8076         calculate D2E/DX2 analytically  !
 ! D202  D(95,62,63,64)        174.2849         calculate D2E/DX2 analytically  !
 ! D203  D(95,62,63,66)         -2.3744         calculate D2E/DX2 analytically  !
 ! D204  D(61,62,95,94)       -118.3633         calculate D2E/DX2 analytically  !
 ! D205  D(61,62,95,96)         61.1515         calculate D2E/DX2 analytically  !
 ! D206  D(63,62,95,94)         62.806          calculate D2E/DX2 analytically  !
 ! D207  D(63,62,95,96)       -117.6793         calculate D2E/DX2 analytically  !
 ! D208  D(62,63,64,55)       -172.1272         calculate D2E/DX2 analytically  !
 ! D209  D(62,63,64,67)          7.9595         calculate D2E/DX2 analytically  !
 ! D210  D(66,63,64,55)          4.5453         calculate D2E/DX2 analytically  !
 ! D211  D(66,63,64,67)       -175.368          calculate D2E/DX2 analytically  !
 ! D212  D(62,63,66,88)       -117.0108         calculate D2E/DX2 analytically  !
 ! D213  D(64,63,66,88)         66.2751         calculate D2E/DX2 analytically  !
 ! D214  D(55,64,67,68)        173.9035         calculate D2E/DX2 analytically  !
 ! D215  D(55,64,67,72)         -6.3335         calculate D2E/DX2 analytically  !
 ! D216  D(63,64,67,68)         -6.1836         calculate D2E/DX2 analytically  !
 ! D217  D(63,64,67,72)        173.5794         calculate D2E/DX2 analytically  !
 ! D218  D(63,66,88,59)        -44.2974         calculate D2E/DX2 analytically  !
 ! D219  D(63,66,88,89)         86.3924         calculate D2E/DX2 analytically  !
 ! D220  D(63,66,88,90)       -152.784          calculate D2E/DX2 analytically  !
 ! D221  D(64,67,68,61)          1.1307         calculate D2E/DX2 analytically  !
 ! D222  D(64,67,68,69)       -178.7373         calculate D2E/DX2 analytically  !
 ! D223  D(72,67,68,61)       -178.6451         calculate D2E/DX2 analytically  !
 ! D224  D(72,67,68,69)          1.487          calculate D2E/DX2 analytically  !
 ! D225  D(64,67,72,71)        178.9924         calculate D2E/DX2 analytically  !
 ! D226  D(64,67,72,76)         -1.3338         calculate D2E/DX2 analytically  !
 ! D227  D(68,67,72,71)         -1.2414         calculate D2E/DX2 analytically  !
 ! D228  D(68,67,72,76)        178.4324         calculate D2E/DX2 analytically  !
 ! D229  D(61,68,69,70)        179.3267         calculate D2E/DX2 analytically  !
 ! D230  D(61,68,69,73)         -0.1152         calculate D2E/DX2 analytically  !
 ! D231  D(67,68,69,70)         -0.8074         calculate D2E/DX2 analytically  !
 ! D232  D(67,68,69,73)        179.7506         calculate D2E/DX2 analytically  !
 ! D233  D(68,69,70,71)         -0.187          calculate D2E/DX2 analytically  !
 ! D234  D(68,69,70,74)       -179.5907         calculate D2E/DX2 analytically  !
 ! D235  D(73,69,70,71)        179.2524         calculate D2E/DX2 analytically  !
 ! D236  D(73,69,70,74)         -0.1513         calculate D2E/DX2 analytically  !
 ! D237  D(69,70,71,72)          0.4552         calculate D2E/DX2 analytically  !
 ! D238  D(69,70,71,75)       -179.3095         calculate D2E/DX2 analytically  !
 ! D239  D(74,70,71,72)        179.8603         calculate D2E/DX2 analytically  !
 ! D240  D(74,70,71,75)          0.0957         calculate D2E/DX2 analytically  !
 ! D241  D(70,71,72,67)          0.2817         calculate D2E/DX2 analytically  !
 ! D242  D(70,71,72,76)       -179.3937         calculate D2E/DX2 analytically  !
 ! D243  D(75,71,72,67)       -179.9536         calculate D2E/DX2 analytically  !
 ! D244  D(75,71,72,76)          0.3709         calculate D2E/DX2 analytically  !
 ! D245  D(82,77,78,79)         -0.1099         calculate D2E/DX2 analytically  !
 ! D246  D(82,77,78,84)        179.4102         calculate D2E/DX2 analytically  !
 ! D247  D(83,77,78,79)       -179.6379         calculate D2E/DX2 analytically  !
 ! D248  D(83,77,78,84)         -0.1178         calculate D2E/DX2 analytically  !
 ! D249  D(78,77,82,81)          0.0381         calculate D2E/DX2 analytically  !
 ! D250  D(78,77,82,87)       -179.5076         calculate D2E/DX2 analytically  !
 ! D251  D(83,77,82,81)        179.5655         calculate D2E/DX2 analytically  !
 ! D252  D(83,77,82,87)          0.0198         calculate D2E/DX2 analytically  !
 ! D253  D(77,78,79,80)          0.1119         calculate D2E/DX2 analytically  !
 ! D254  D(77,78,79,85)        179.5319         calculate D2E/DX2 analytically  !
 ! D255  D(84,78,79,80)       -179.4099         calculate D2E/DX2 analytically  !
 ! D256  D(84,78,79,85)          0.01           calculate D2E/DX2 analytically  !
 ! D257  D(78,79,80,57)       -179.9136         calculate D2E/DX2 analytically  !
 ! D258  D(78,79,80,81)         -0.0421         calculate D2E/DX2 analytically  !
 ! D259  D(85,79,80,57)          0.6709         calculate D2E/DX2 analytically  !
 ! D260  D(85,79,80,81)       -179.4576         calculate D2E/DX2 analytically  !
 ! D261  D(57,80,81,82)        179.8415         calculate D2E/DX2 analytically  !
 ! D262  D(57,80,81,86)         -0.8716         calculate D2E/DX2 analytically  !
 ! D263  D(79,80,81,82)         -0.0306         calculate D2E/DX2 analytically  !
 ! D264  D(79,80,81,86)        179.2563         calculate D2E/DX2 analytically  !
 ! D265  D(80,81,82,77)          0.0326         calculate D2E/DX2 analytically  !
 ! D266  D(80,81,82,87)        179.5786         calculate D2E/DX2 analytically  !
 ! D267  D(86,81,82,77)       -179.2621         calculate D2E/DX2 analytically  !
 ! D268  D(86,81,82,87)          0.2839         calculate D2E/DX2 analytically  !
 ! D269  D(59,88,90,91)       -110.9731         calculate D2E/DX2 analytically  !
 ! D270  D(66,88,90,91)          5.2564         calculate D2E/DX2 analytically  !
 ! D271  D(89,88,90,91)        127.1156         calculate D2E/DX2 analytically  !
 ! D272  D(88,90,91,40)        116.3466         calculate D2E/DX2 analytically  !
 ! D273  D(97,92,93,94)         -0.3528         calculate D2E/DX2 analytically  !
 ! D274  D(97,92,93,99)        179.7318         calculate D2E/DX2 analytically  !
 ! D275  D(98,92,93,94)        179.8248         calculate D2E/DX2 analytically  !
 ! D276  D(98,92,93,99)         -0.0906         calculate D2E/DX2 analytically  !
 ! D277  D(93,92,97,96)          0.2896         calculate D2E/DX2 analytically  !
 ! D278  D(93,92,97,102)      -179.8815         calculate D2E/DX2 analytically  !
 ! D279  D(98,92,97,96)       -179.8883         calculate D2E/DX2 analytically  !
 ! D280  D(98,92,97,102)        -0.0594         calculate D2E/DX2 analytically  !
 ! D281  D(92,93,94,95)         -0.3868         calculate D2E/DX2 analytically  !
 ! D282  D(92,93,94,100)       179.2131         calculate D2E/DX2 analytically  !
 ! D283  D(99,93,94,95)        179.5293         calculate D2E/DX2 analytically  !
 ! D284  D(99,93,94,100)        -0.8708         calculate D2E/DX2 analytically  !
 ! D285  D(93,94,95,62)       -179.3107         calculate D2E/DX2 analytically  !
 ! D286  D(93,94,95,96)          1.1704         calculate D2E/DX2 analytically  !
 ! D287  D(100,94,95,62)         1.0935         calculate D2E/DX2 analytically  !
 ! D288  D(100,94,95,96)      -178.4255         calculate D2E/DX2 analytically  !
 ! D289  D(62,95,96,97)        179.2414         calculate D2E/DX2 analytically  !
 ! D290  D(62,95,96,101)        -0.0434         calculate D2E/DX2 analytically  !
 ! D291  D(94,95,96,97)         -1.2346         calculate D2E/DX2 analytically  !
 ! D292  D(94,95,96,101)       179.4805         calculate D2E/DX2 analytically  !
 ! D293  D(95,96,97,92)          0.5135         calculate D2E/DX2 analytically  !
 ! D294  D(95,96,97,102)      -179.3156         calculate D2E/DX2 analytically  !
 ! D295  D(101,96,97,92)       179.8019         calculate D2E/DX2 analytically  !
 ! D296  D(101,96,97,102)       -0.0272         calculate D2E/DX2 analytically  !
 --------------------------------------------------------------------------------
 Trust Radius=1.00D-01 FncErr=1.00D-07 GrdErr=1.00D-06 EigMax=2.50D+02 EigMin=1.00D-04
 Number of steps in this run=     50 maximum allowed number of steps=    636.
 Search for a saddle point of order  1.
 GradGradGradGradGradGradGradGradGradGradGradGradGradGradGradGradGradGrad

 Stoichiometry    C47H49O8PSi
 Framework group  C1[X(C47H49O8PSi)]
 Deg. of freedom   312
 Full point group                 C1      NOp   1
 Largest Abelian subgroup         C1      NOp   1
 Largest concise Abelian subgroup C1      NOp   1
                         Standard orientation:                         
 ---------------------------------------------------------------------
 Center     Atomic      Atomic             Coordinates (Angstroms)
 Number     Number       Type             X           Y           Z
 ---------------------------------------------------------------------
      1          6           0       -1.247072    1.064704   -1.991871
      2          6           0       -1.177214    2.206899   -1.092947
      3          6           0       -0.050924    4.379060   -0.324364
      4          6           0        2.887181    2.913287   -1.240802
      5          8           0       -1.963844    2.215448   -0.005767
      6          1           0        0.947531    4.407248    0.108735
      7          1           0       -0.750731    4.349733    0.510429
      8          1           0       -0.212245    5.317490   -0.855303
      9          8           0        3.477239    3.362517   -0.254278
     10          8           0        3.176596    3.179883   -2.534322
     11          6           0        4.269148    4.027323   -2.857653
     12          1           0        5.207981    3.617197   -2.481753
     13          1           0        4.353172    4.128975   -3.939830
     14          1           0        4.133949    5.023031   -2.432011
     15         14           0       -3.514469    2.848570    0.107010
     16          6           0       -3.614939    3.737836    1.757687
     17          1           0       -4.543258    4.300762    1.842406
     18          1           0       -3.581247    3.028195    2.582303
     19          1           0       -2.788885    4.436587    1.878637
     20          6           0       -3.768346    4.097715   -1.274810
     21          1           0       -4.768888    4.525788   -1.240163
     22          1           0       -3.636544    3.631160   -2.250245
     23          1           0       -3.050273    4.912756   -1.199784
     24          6           0       -4.788727    1.411701    0.028857
     25          6           0       -4.286453    0.214064    0.863858
     26          1           0       -4.984109   -0.624051    0.837145
     27          1           0       -3.325745   -0.149831    0.496341
     28          1           0       -4.146228    0.483648    1.911492
     29          6           0       -6.153012    1.863674    0.594871
     30          1           0       -6.076478    2.163048    1.640921
     31          1           0       -6.894689    1.064751    0.545326
     32          1           0       -6.555628    2.712517    0.040166
     33          6           0       -5.013515    0.948768   -1.427433
     34          1           0       -5.724033    0.122955   -1.484214
     35          1           0       -5.409837    1.753665   -2.047721
     36          1           0       -4.088842    0.610781   -1.893424
     37          6           0        1.653267    1.954565   -1.117297
     38          6           0       -0.252459    3.197471   -1.282152
     39          6           0       -0.486369    0.914333   -3.107585
     40          8           0        1.392657    1.097174   -2.000367
     41          1           0        1.262296    1.927111   -0.098657
     42          6           0       -0.449429   -0.369287   -3.917726
     43          1           0       -1.863882    0.233061   -1.684340
     44          1           0        0.213999    3.335743   -2.256859
     45          6           0        1.941671    2.628075    3.007516
     46          6           0        0.705447    3.130902    3.397234
     47          6           0       -0.449777    2.391758    3.184251
     48          6           0       -0.386220    1.137666    2.583742
     49          1           0        2.836692    3.215318    3.158191
     50          1           0        0.641121    4.105195    3.860490
     51          1           0       -1.405146    2.796215    3.483634
     52          1           0       -1.302224    0.593044    2.408157
     53          6           0        2.037950    1.354288    2.393811
     54          6           0        0.860613    0.572874    2.184430
     55          6           0        0.978951   -0.718989    1.565781
     56          6           0        2.236599   -1.133551    1.084504
     57          6           0        3.389027   -0.360905    1.293348
     58          6           0        3.282666    0.856906    1.961782
     59          8           0        2.334568   -2.317420    0.399762
     60          1           0        4.166235    1.458099    2.123776
     61          6           0       -2.616516   -3.049182    1.000359
     62          6           0       -1.855377   -2.665095   -0.100413
     63          6           0       -0.644474   -1.985140    0.095890
     64          6           0       -0.230682   -1.600000    1.387933
     65          1           0       -3.541979   -3.585176    0.846725
     66          8           0        0.118115   -1.628037   -0.987764
     67          6           0       -0.976100   -2.060356    2.526150
     68          6           0       -2.190141   -2.783245    2.317050
     69          6           0       -2.950808   -3.220811    3.430701
     70          6           0       -2.515034   -2.965902    4.726843
     71          6           0       -1.326374   -2.282365    4.945764
     72          6           0       -0.561344   -1.835757    3.872014
     73          1           0       -3.870669   -3.763838    3.267141
     74          1           0       -3.098330   -3.309190    5.569467
     75          1           0       -0.991007   -2.099180    5.956725
     76          1           0        0.364781   -1.314838    4.066055
     77          6           0        7.237223   -1.601081   -0.135927
     78          6           0        6.436535   -2.502588    0.560348
     79          6           0        5.187202   -2.098992    1.024195
     80          6           0        4.726834   -0.796538    0.795599
     81          6           0        5.545539    0.096786    0.091751
     82          6           0        6.796463   -0.301797   -0.372831
     83          1           0        8.204309   -1.915533   -0.501178
     84          1           0        6.776751   -3.513045    0.734669
     85          1           0        4.567487   -2.806137    1.557375
     86          1           0        5.207000    1.103422   -0.107344
     87          1           0        7.417975    0.391488   -0.920378
     88         15           0        1.584147   -2.329037   -1.042772
     89          8           0        1.591008   -3.662446   -1.696429
     90          8           0        2.416565   -1.231385   -1.874409
     91          1           0        1.872047   -0.428842   -2.045495
     92          6           0       -3.347599   -3.510570   -4.022291
     93          6           0       -2.142658   -4.072800   -3.608336
     94          6           0       -1.660168   -3.804531   -2.330187
     95          6           0       -2.370551   -2.969749   -1.462518
     96          6           0       -3.587551   -2.425859   -1.886975
     97          6           0       -4.075108   -2.689122   -3.164613
     98          1           0       -3.720678   -3.716447   -5.015224
     99          1           0       -1.579194   -4.713844   -4.271161
    100          1           0       -0.731936   -4.254450   -2.012508
    101          1           0       -4.151485   -1.786503   -1.225469
    102          1           0       -5.010317   -2.256306   -3.488519
    103          1           0        0.058718    1.731113   -3.571214
    104          1           0        0.562478   -0.773245   -3.949133
    105          1           0       -1.097286   -1.134420   -3.488214
    106          1           0       -0.779871   -0.184155   -4.939358
 ---------------------------------------------------------------------
 Rotational constants (GHZ):           0.0589916           0.0434514           0.0392383
 Standard basis: def2SVP (5D, 7F)
 There are  1108 symmetry adapted cartesian basis functions of A   symmetry.
 There are  1051 symmetry adapted basis functions of A   symmetry.
  1051 basis functions,  1792 primitive gaussians,  1108 cartesian basis functions
   212 alpha electrons      212 beta electrons
       nuclear repulsion energy      9491.9422946171 Hartrees.
 NAtoms=  106 NActive=  106 NUniq=  106 SFac= 1.00D+00 NAtFMM=   60 NAOKFM=T Big=T
 Integral buffers will be    131072 words long.
 Raffenetti 2 integral format.
 Two-electron integral symmetry is turned on.
 Nuclear repulsion after empirical dispersion term =     9491.8139274784 Hartrees.
 Force inversion solution in PCM.
 ------------------------------------------------------------------------------
 Polarizable Continuum Model (PCM)
 =================================
 Model                : PCM.
 Atomic radii         : UFF (Universal Force Field).
 Polarization charges : Total charges.
 Charge compensation  : None.
 Solution method      : Matrix inversion.
 Cavity type          : Scaled VdW (van der Waals Surface) (Alpha=1.100).
 Cavity algorithm     : GePol (No added spheres)
                        Default sphere list used, NSphG=  106.
                        Lebedev-Laikov grids with approx.  5.0 points / Ang**2.
                        Smoothing algorithm: York/Karplus (Gamma=1.0000).
                        Polarization charges: spherical gaussians, with
                                              point-specific exponents (IZeta= 3).
                        Self-potential: point-specific (ISelfS= 7).
                        Self-field    : sphere-specific E.n sum rule (ISelfD= 2).
 1st derivatives      : Analytical E(r).r(x)/FMM algorithm (CHGder, D1EAlg=3).
                        Cavity 1st derivative terms included.
 2nd derivatives      : Analytical E(r).r(xy)/FMM algorithm (CHGder, D2EAlg=3).
                        Cavity 2nd derivative terms included.
 Solvent              : Toluene, Eps=   2.374100 Eps(inf)=   2.238315
 ------------------------------------------------------------------------------
 One-electron integrals computed using PRISM.
   1 Symmetry operations used in ECPInt.
 ECPInt:  NShTT=  121771 NPrTT=  444119 LenC2=   96481 LenP2D=  217184.
 LDataN:  DoStor=T MaxTD1= 4 Len=   56
 NBasis=  1051 RedAO= T EigKep=  1.56D-04  NBF=  1051
 NBsUse=  1051 1.00D-06 EigRej= -1.00D+00 NBFU=  1051
 ExpMin= 7.80D-02 ExpMax= 8.00D+03 ExpMxC= 1.20D+03 IAcc=3 IRadAn=         5 AccDes= 0.00D+00
 Harris functional with IExCor= 4639 and IRadAn=       5 diagonalized for initial guess.
 HarFok:  IExCor= 4639 AccDes= 0.00D+00 IRadAn=         5 IDoV= 1 UseB2=F ITyADJ=14
 ICtDFT=  3500011 ScaDFX=  1.000000  1.000000  1.000000  1.000000
 FoFCou: FMM=F IPFlag=           0 FMFlag=      100000 FMFlg1=        2001
         NFxFlg=           0 DoJE=T BraDBF=F KetDBF=T FulRan=T
         wScrn=  0.000000 ICntrl=       500 IOpCl=  0 I1Cent=   200000004 NGrid=           0
         NMat0=    1 NMatS0=      1 NMatT0=    0 NMatD0=    1 NMtDS0=    0 NMtDT0=    0
 Petite list used in FoFCou.
 Requested convergence on RMS density matrix=1.00D-08 within 128 cycles.
 Requested convergence on MAX density matrix=1.00D-06.
 Requested convergence on             energy=1.00D-06.
 No special actions if energy rises.
 Inv3:  Mode=1 IEnd=   123187392.
 Iteration    1 A*A^-1 deviation from unit magnitude is 3.55D-15 for   4521.
 Iteration    1 A*A^-1 deviation from orthogonality  is 1.96D-15 for   4701   1459.
 Iteration    1 A^-1*A deviation from unit magnitude is 3.33D-15 for   4521.
 Iteration    1 A^-1*A deviation from orthogonality  is 2.45D-15 for   4154   4084.
 Error on total polarization charges =  0.00954
 SCF Done:  E(RwB97XD) =  -3050.57602973     A.U. after   15 cycles
            NFock= 15  Conv=0.88D-08     -V/T= 2.0091
 DoSCS=F DFT=T ScalE2(SS,OS)=  1.000000  1.000000
 Range of M.O.s used for correlation:     1  1051
 NBasis=  1051 NAE=   212 NBE=   212 NFC=     0 NFV=     0
 NROrb=   1051 NOA=   212 NOB=   212 NVA=   839 NVB=   839
   1 Symmetry operations used in ECPInt.
 ECPInt:  NShTT=  121771 NPrTT=  444119 LenC2=   96481 LenP2D=  217184.
 LDataN:  DoStor=T MaxTD1= 5 Len=  102
 Number of processors reduced to   5 by ecpmxn.
 Symmetrizing basis deriv contribution to polar:
 IMax=3 JMax=2 DiffMx= 0.00D+00
 G2DrvN: will do   107 centers at a time, making    1 passes.
 Calling FoFCou, ICntrl=  3107 FMM=T I1Cent=   0 AccDes= 0.00D+00.
 NEqPCM:  Using equilibrium solvation (IEInf=0, Eps=   2.3741, EpsInf=   2.2383)
 G2PCM: DoFxE=T DoFxN=T DoGrad=T DoDP/DQ/DG/TGxP=FFFF NFrqRd=   0 IEInf=0 SqF1=F DoCFld=F IF1Alg=4.
 End of G2Drv F.D. properties file   721 does not exist.
 End of G2Drv F.D. properties file   722 does not exist.
 End of G2Drv F.D. properties file   788 does not exist.
          IDoAtm=11111111111111111111111111111111111111111111111111
          IDoAtm=11111111111111111111111111111111111111111111111111
          IDoAtm=111111
 NEqPCM:  Using equilibrium solvation (IEInf=0, Eps=   2.3741, EpsInf=   2.2383)
          Differentiating once with respect to nuclear coordinates.
 CalDSu exits because no D1Ps are significant.
          There are   321 degrees of freedom in the 1st order CPHF.  IDoFFX=6 NUNeed=     0.
    318 vectors produced by pass  0 Test12= 1.78D-13 1.00D-09 XBig12= 1.42D-01 7.83D-02.
 AX will form    72 AO Fock derivatives at one time.
    315 vectors produced by pass  1 Test12= 1.78D-13 1.00D-09 XBig12= 3.99D-02 5.40D-02.
    315 vectors produced by pass  2 Test12= 1.78D-13 1.00D-09 XBig12= 9.14D-04 4.07D-03.
    315 vectors produced by pass  3 Test12= 1.78D-13 1.00D-09 XBig12= 1.01D-05 4.32D-04.
    315 vectors produced by pass  4 Test12= 1.78D-13 1.00D-09 XBig12= 9.66D-08 3.23D-05.
    315 vectors produced by pass  5 Test12= 1.78D-13 1.00D-09 XBig12= 7.36D-10 2.37D-06.
    259 vectors produced by pass  6 Test12= 1.78D-13 1.00D-09 XBig12= 4.47D-12 1.63D-07.
     90 vectors produced by pass  7 Test12= 1.78D-13 1.00D-09 XBig12= 2.56D-14 9.25D-09.
     20 vectors produced by pass  8 Test12= 1.78D-13 1.00D-09 XBig12= 1.33D-14 4.77D-09.
     15 vectors produced by pass  9 Test12= 1.78D-13 1.00D-09 XBig12= 7.28D-15 4.15D-09.
     10 vectors produced by pass 10 Test12= 1.78D-13 1.00D-09 XBig12= 4.00D-15 2.05D-09.
      7 vectors produced by pass 11 Test12= 1.78D-13 1.00D-09 XBig12= 2.15D-15 1.53D-09.
      4 vectors produced by pass 12 Test12= 1.78D-13 1.00D-09 XBig12= 1.79D-15 1.28D-09.
      4 vectors produced by pass 13 Test12= 1.78D-13 1.00D-09 XBig12= 2.62D-15 1.96D-09.
      4 vectors produced by pass 14 Test12= 1.78D-13 1.00D-09 XBig12= 3.15D-15 1.98D-09.
      2 vectors produced by pass 15 Test12= 1.78D-13 1.00D-09 XBig12= 1.86D-15 1.54D-09.
 InvSVY:  IOpt=1 It=  1 EMax= 8.33D-16
 Solved reduced A of dimension  2308 with   321 vectors.
 End of Minotr F.D. properties file   721 does not exist.
 End of Minotr F.D. properties file   722 does not exist.
 End of Minotr F.D. properties file   788 does not exist.
 Hyperfine terms turned off by default for NAtoms > 100.

 **********************************************************************

            Population analysis using the SCF Density.

 **********************************************************************

 Orbital symmetries:
       Occupied  (A) (A) (A) (A) (A) (A) (A) (A) (A) (A) (A) (A)
                 (A) (A) (A) (A) (A) (A) (A) (A) (A) (A) (A) (A)
                 (A) (A) (A) (A) (A) (A) (A) (A) (A) (A) (A) (A)
                 (A) (A) (A) (A) (A) (A) (A) (A) (A) (A) (A) (A)
                 (A) (A) (A) (A) (A) (A) (A) (A) (A) (A) (A) (A)
                 (A) (A) (A) (A) (A) (A) (A) (A) (A) (A) (A) (A)
                 (A) (A) (A) (A) (A) (A) (A) (A) (A) (A) (A) (A)
                 (A) (A) (A) (A) (A) (A) (A) (A) (A) (A) (A) (A)
                 (A) (A) (A) (A) (A) (A) (A) (A) (A) (A) (A) (A)
                 (A) (A) (A) (A) (A) (A) (A) (A) (A) (A) (A) (A)
                 (A) (A) (A) (A) (A) (A) (A) (A) (A) (A) (A) (A)
                 (A) (A) (A) (A) (A) (A) (A) (A) (A) (A) (A) (A)
                 (A) (A) (A) (A) (A) (A) (A) (A) (A) (A) (A) (A)
                 (A) (A) (A) (A) (A) (A) (A) (A) (A) (A) (A) (A)
                 (A) (A) (A) (A) (A) (A) (A) (A) (A) (A) (A) (A)
                 (A) (A) (A) (A) (A) (A) (A) (A) (A) (A) (A) (A)
                 (A) (A) (A) (A) (A) (A) (A) (A) (A) (A) (A) (A)
                 (A) (A) (A) (A) (A) (A) (A) (A)
       Virtual   (A) (A) (A) (A) (A) (A) (A) (A) (A) (A) (A) (A)
                 (A) (A) (A) (A) (A) (A) (A) (A) (A) (A) (A) (A)
                 (A) (A) (A) (A) (A) (A) (A) (A) (A) (A) (A) (A)
                 (A) (A) (A) (A) (A) (A) (A) (A) (A) (A) (A) (A)
                 (A) (A) (A) (A) (A) (A) (A) (A) (A) (A) (A) (A)
                 (A) (A) (A) (A) (A) (A) (A) (A) (A) (A) (A) (A)
                 (A) (A) (A) (A) (A) (A) (A) (A) (A) (A) (A) (A)
                 (A) (A) (A) (A) (A) (A) (A) (A) (A) (A) (A) (A)
                 (A) (A) (A) (A) (A) (A) (A) (A) (A) (A) (A) (A)
                 (A) (A) (A) (A) (A) (A) (A) (A) (A) (A) (A) (A)
                 (A) (A) (A) (A) (A) (A) (A) (A) (A) (A) (A) (A)
                 (A) (A) (A) (A) (A) (A) (A) (A) (A) (A) (A) (A)
                 (A) (A) (A) (A) (A) (A) (A) (A) (A) (A) (A) (A)
                 (A) (A) (A) (A) (A) (A) (A) (A) (A) (A) (A) (A)
                 (A) (A) (A) (A) (A) (A) (A) (A) (A) (A) (A) (A)
                 (A) (A) (A) (A) (A) (A) (A) (A) (A) (A) (A) (A)
                 (A) (A) (A) (A) (A) (A) (A) (A) (A) (A) (A) (A)
[...]
   D192       3.13359  -0.00013   0.00000  -0.00274  -0.00246   3.13113
   D193       0.05566   0.00010   0.00000   0.00291   0.00262   0.05828
   D194      -0.02783  -0.00005   0.00000  -0.00209  -0.00188  -0.02971
   D195      -3.10576   0.00018   0.00000   0.00356   0.00320  -3.10256
   D196       0.04473   0.00001   0.00000   0.00121   0.00109   0.04582
   D197      -3.09369   0.00004   0.00000   0.00222   0.00200  -3.09169
   D198      -3.11663   0.00008   0.00000   0.00186   0.00167  -3.11495
   D199       0.02814   0.00011   0.00000   0.00287   0.00258   0.03072
   D200      -0.06524   0.00001   0.00000   0.00101   0.00091  -0.06432
   D201       3.12128  -0.00020   0.00000   0.00162   0.00145   3.12273
   D202       3.01213  -0.00016   0.00000  -0.00464  -0.00417   3.00796
   D203      -0.08454  -0.00037   0.00000  -0.00403  -0.00363  -0.08817
   D204      -2.14640  -0.00051   0.00000  -0.00573  -0.00516  -2.15156
   D205       0.99254  -0.00039   0.00000  -0.00598  -0.00538   0.98716
   D206       1.06095  -0.00027   0.00000   0.00013   0.00012   1.06107
   D207      -2.08329  -0.00016   0.00000  -0.00011  -0.00010  -2.08339
   D208      -3.01049   0.00006   0.00000   0.00149   0.00135  -3.00915
   D209       0.13568   0.00001   0.00000   0.00080   0.00072   0.13640
   D210       0.08524   0.00025   0.00000   0.00088   0.00080   0.08604
   D211      -3.05178   0.00019   0.00000   0.00019   0.00018  -3.05160
   D212      -1.95634   0.00112   0.00000   0.00943   0.00849  -1.94785
   D213       1.22879   0.00089   0.00000   0.00995   0.00896   1.23774
   D214       3.03213  -0.00002   0.00000  -0.00228  -0.00206   3.03008
   D215      -0.13083  -0.00013   0.00000  -0.00514  -0.00462  -0.13546
   D216      -0.11413   0.00004   0.00000  -0.00158  -0.00142  -0.11555
   D217       3.00609  -0.00008   0.00000  -0.00443  -0.00399   3.00210
   D218      -0.79395  -0.00006   0.00000  -0.01571  -0.01413  -0.80808
   D219       1.31417  -0.00207   0.00000  -0.02612  -0.02352   1.29065
   D220      -2.72777  -0.00024   0.00000  -0.02219  -0.01996  -2.74774
   D221       0.02744  -0.00001   0.00000   0.00071   0.00064   0.02808
   D222      -3.11728  -0.00004   0.00000  -0.00028  -0.00025  -3.11753
   D223      -3.09375   0.00011   0.00000   0.00344   0.00310  -3.09065
   D224       0.04472   0.00008   0.00000   0.00245   0.00220   0.04692
   D225       3.12783   0.00007   0.00000   0.00113   0.00102   3.12885
   D226      -0.02274   0.00007   0.00000   0.00076   0.00068  -0.02206
   D227      -0.03494  -0.00005   0.00000  -0.00170  -0.00153  -0.03647
   D228       3.09767  -0.00005   0.00000  -0.00207  -0.00186   3.09581
   D229       3.11574  -0.00005   0.00000  -0.00233  -0.00210   3.11364
   D230      -0.01459  -0.00006   0.00000  -0.00195  -0.00175  -0.01634
   D231      -0.02268  -0.00002   0.00000  -0.00132  -0.00118  -0.02387
   D232       3.13018  -0.00003   0.00000  -0.00093  -0.00084   3.12934
   D233      -0.01063  -0.00004   0.00000  -0.00063  -0.00057  -0.01120
   D234      -3.13567  -0.00001   0.00000  -0.00011  -0.00010  -3.13577
   D235       3.11949  -0.00003   0.00000  -0.00102  -0.00092   3.11856
   D236      -0.00555  -0.00001   0.00000  -0.00051  -0.00046  -0.00601
   D237       0.02117   0.00007   0.00000   0.00143   0.00128   0.02245
   D238      -3.11423   0.00007   0.00000   0.00190   0.00171  -3.11252
   D239      -3.13692   0.00004   0.00000   0.00091   0.00082  -3.13609
   D240       0.01087   0.00005   0.00000   0.00138   0.00125   0.01212
   D241       0.00220  -0.00002   0.00000  -0.00024  -0.00021   0.00199
   D242      -3.13039  -0.00002   0.00000   0.00014   0.00012  -3.13026
   D243       3.13760  -0.00003   0.00000  -0.00071  -0.00063   3.13697
   D244       0.00501  -0.00003   0.00000  -0.00033  -0.00030   0.00472
   D245       0.00106   0.00003   0.00000   0.00114   0.00103   0.00208
   D246       3.13847   0.00008   0.00000   0.00170   0.00153   3.14000
   D247      -3.13465  -0.00000   0.00000   0.00016   0.00014  -3.13451
   D248       0.00277   0.00004   0.00000   0.00071   0.00064   0.00341
   D249       0.00027  -0.00001   0.00000  -0.00068  -0.00061  -0.00034
   D250      -3.13294  -0.00002   0.00000  -0.00112  -0.00101  -3.13395
   D251       3.13597   0.00003   0.00000   0.00031   0.00028   3.13625
   D252       0.00276   0.00002   0.00000  -0.00013  -0.00012   0.00264
   D253      -0.00331  -0.00004   0.00000  -0.00045  -0.00041  -0.00372
   D254       3.13414   0.00006   0.00000   0.00127   0.00114   3.13528
   D255      -3.14075  -0.00008   0.00000  -0.00100  -0.00090   3.14153
   D256      -0.00330   0.00002   0.00000   0.00071   0.00064  -0.00266
   D257      -3.12640   0.00011   0.00000  -0.00077  -0.00069  -3.12709
   D258       0.00418   0.00002   0.00000  -0.00069  -0.00062   0.00356
   D259       0.01933   0.00001   0.00000  -0.00248  -0.00223   0.01710
   D260      -3.13328  -0.00008   0.00000  -0.00240  -0.00216  -3.13545
   D261       3.12803  -0.00008   0.00000   0.00125   0.00112   3.12915
   D262      -0.02732  -0.00007   0.00000   0.00255   0.00229  -0.02503
   D263      -0.00286   0.00000   0.00000   0.00115   0.00104  -0.00182
   D264       3.12498   0.00001   0.00000   0.00245   0.00221   3.12719
   D265       0.00066  -0.00001   0.00000  -0.00047  -0.00043   0.00023
   D266       3.13390   0.00000   0.00000  -0.00003  -0.00003   3.13387
   D267      -3.12710  -0.00002   0.00000  -0.00177  -0.00159  -3.12870
   D268       0.00614  -0.00001   0.00000  -0.00133  -0.00120   0.00494
   D269      -1.54990   0.00280   0.00000   0.05069   0.04564  -1.50427
   D270       0.31290   0.00070   0.00000   0.04392   0.03952   0.35243
   D271       2.55459   0.00179   0.00000   0.04837   0.04352   2.59811
   D272       2.10257  -0.00067   0.00000  -0.03888  -0.03499   2.06757
   D273      -0.00902  -0.00001   0.00000  -0.00013  -0.00011  -0.00913
   D274       3.13877   0.00003   0.00000  -0.00033  -0.00030   3.13848
   D275       3.13347  -0.00003   0.00000  -0.00030  -0.00027   3.13319
   D276      -0.00193   0.00001   0.00000  -0.00051  -0.00046  -0.00239
   D277       0.00276  -0.00002   0.00000  -0.00048  -0.00043   0.00233
   D278       3.14119  -0.00003   0.00000  -0.00032  -0.00029   3.14090
   D279      -3.13973   0.00001   0.00000  -0.00030  -0.00027  -3.14000
   D280      -0.00129  -0.00000   0.00000  -0.00014  -0.00013  -0.00142
   D281       0.00241   0.00007   0.00000   0.00100   0.00090   0.00331
   D282      -3.12600   0.00023   0.00000   0.00082   0.00074  -3.12526
   D283       3.13784   0.00003   0.00000   0.00121   0.00109   3.13893
   D284       0.00944   0.00019   0.00000   0.00103   0.00092   0.01036
   D285      -3.13395   0.00002   0.00000  -0.00150  -0.00135  -3.13530
   D286       0.01030  -0.00010   0.00000  -0.00126  -0.00113   0.00917
   D287      -0.00558  -0.00014   0.00000  -0.00132  -0.00118  -0.00677
   D288       3.13867  -0.00026   0.00000  -0.00107  -0.00096   3.13770
   D289       3.12753  -0.00004   0.00000   0.00089   0.00080   3.12833
   D290       0.00222  -0.00003   0.00000   0.00095   0.00085   0.00308
   D291      -0.01662   0.00007   0.00000   0.00065   0.00059  -0.01604
   D292       3.14125   0.00008   0.00000   0.00072   0.00064  -3.14129
   D293       0.01016  -0.00002   0.00000   0.00021   0.00019   0.01035
   D294      -3.12829  -0.00001   0.00000   0.00005   0.00005  -3.12825
   D295       3.13538  -0.00002   0.00000   0.00014   0.00013   3.13551
   D296      -0.00307  -0.00001   0.00000  -0.00002  -0.00002  -0.00309
         Item               Value     Threshold  Converged?
 Maximum Force            0.003951     0.000450     NO 
 RMS     Force            0.000566     0.000300     NO 
 Maximum Displacement     0.186832     0.001800     NO 
 RMS     Displacement     0.030469     0.001200     NO 
 Predicted change in Energy=-9.918652D-04
 GradGradGradGradGradGradGradGradGradGradGradGradGradGradGradGradGradGrad

 Stoichiometry    C47H49O8PSi
 Framework group  C1[X(C47H49O8PSi)]
 Deg. of freedom   312
 Full point group                 C1      NOp   1
 Largest Abelian subgroup         C1      NOp   1
 Largest concise Abelian subgroup C1      NOp   1
                         Standard orientation:                         
 ---------------------------------------------------------------------
 Center     Atomic      Atomic             Coordinates (Angstroms)
 Number     Number       Type             X           Y           Z
 ---------------------------------------------------------------------
      1          6           0       -1.112713    0.690949   -2.200956
      2          6           0       -1.009207    1.890521   -1.427622
      3          6           0        0.052699    4.088176   -0.769289
      4          6           0        2.730965    2.725706   -1.514659
      5          8           0       -1.841179    1.998194   -0.384967
      6          1           0        1.058573    4.264718   -0.362691
      7          1           0       -0.623966    4.010843    0.090313
      8          1           0       -0.222634    4.978630   -1.355243
      9          8           0        3.311756    3.315325   -0.633909
     10          8           0        2.933472    2.926170   -2.811199
     11          6           0        3.914105    3.892084   -3.164979
     12          1           0        4.896101    3.614168   -2.758622
     13          1           0        3.952425    3.909333   -4.258734
     14          1           0        3.639073    4.884183   -2.780713
     15         14           0       -3.385219    2.737907   -0.345783
     16          6           0       -3.472772    3.745127    1.223967
     17          1           0       -4.395516    4.344863    1.227802
     18          1           0       -3.486668    3.100752    2.114748
     19          1           0       -2.620136    4.434003    1.304859
     20          6           0       -3.513544    3.833027   -1.856816
     21          1           0       -4.507549    4.302972   -1.906894
     22          1           0       -3.360767    3.260472   -2.783666
     23          1           0       -2.760233    4.634006   -1.822138
     24          6           0       -4.688147    1.357579   -0.325071
     25          6           0       -4.224192    0.261975    0.647460
     26          1           0       -4.952968   -0.566031    0.680765
     27          1           0       -3.252247   -0.159259    0.353023
     28          1           0       -4.117429    0.639128    1.677207
     29          6           0       -6.034524    1.931922    0.149047
     30          1           0       -5.977989    2.324846    1.175454
     31          1           0       -6.807006    1.144700    0.142268
     32          1           0       -6.391745    2.744406   -0.504243
     33          6           0       -4.868258    0.769024   -1.733830
     34          1           0       -5.600109   -0.056768   -1.714119
     35          1           0       -5.244781    1.520372   -2.444786
     36          1           0       -3.930169    0.366522   -2.143488
     37          6           0        1.715248    1.630049   -1.244885
     38          6           0       -0.008852    2.843322   -1.617392
     39          6           0       -0.319154    0.392371   -3.260218
     40          8           0        1.687909    0.645496   -2.018338
     41          1           0        1.467455    1.539437   -0.177042
     42          6           0       -0.275676   -0.950493   -3.901398
     43          1           0       -1.770586   -0.082874   -1.796822
     44          1           0        0.389310    2.918107   -2.631056
     45          6           0        1.876885    3.031733    2.803285
     46          6           0        0.669138    3.600472    3.120983
     47          6           0       -0.518993    2.851292    2.969867
     48          6           0       -0.483757    1.554884    2.514248
     49          1           0        2.802340    3.604304    2.886447
     50          1           0        0.621054    4.631320    3.475775
     51          1           0       -1.476872    3.312887    3.208720
     52          1           0       -1.414469    1.007628    2.372702
     53          6           0        1.947701    1.688244    2.345913
     54          6           0        0.754054    0.920479    2.213505
     55          6           0        0.852903   -0.439920    1.756761
     56          6           0        2.094468   -0.924193    1.383520
     57          6           0        3.288053   -0.151787    1.463230
     58          6           0        3.190463    1.124577    1.967392
     59          8           0        2.187729   -2.210372    0.909314
     60          1           0        4.088778    1.738099    2.051220
     61          6           0       -2.714488   -2.792584    1.210367
     62          6           0       -1.839153   -2.627731    0.162570
     63          6           0       -0.633498   -1.911198    0.405021
     64          6           0       -0.346945   -1.316146    1.623288
     65          1           0       -3.650106   -3.330500    1.044455
     66          8           0        0.244215   -1.772104   -0.643164
     67          6           0       -1.224425   -1.571449    2.730528
     68          6           0       -2.426001   -2.302883    2.508673
     69          6           0       -3.315091   -2.534794    3.593745
     70          6           0       -3.015720   -2.086523    4.856957
     71          6           0       -1.803446   -1.397059    5.089520
     72          6           0       -0.931050   -1.146932    4.057006
     73          1           0       -4.237995   -3.087253    3.405376
     74          1           0       -3.701901   -2.274111    5.684512
     75          1           0       -1.554702   -1.065567    6.099113
     76          1           0        0.003943   -0.623514    4.255837
     77          6           0        7.075406   -1.570900    0.026057
     78          6           0        6.306061   -2.380637    0.861565
     79          6           0        5.072092   -1.935817    1.329252
     80          6           0        4.591598   -0.669707    0.970148
     81          6           0        5.371901    0.136746    0.130300
     82          6           0        6.605358   -0.310329   -0.338588
     83          1           0        8.039181   -1.925252   -0.344116
     84          1           0        6.667467   -3.369354    1.149771
     85          1           0        4.474260   -2.577270    1.977153
     86          1           0        4.998897    1.119854   -0.165737
     87          1           0        7.197887    0.326698   -0.997771
     88         15           0        1.683616   -2.544802   -0.601070
     89          8           0        1.664886   -3.998178   -0.827819
     90          8           0        2.541810   -1.687629   -1.589997
     91          1           0        2.198720   -0.752310   -1.762066
     92          6           0       -2.926183   -3.949401   -3.776007
     93          6           0       -1.758085   -4.431082   -3.183812
     94          6           0       -1.388623   -4.015287   -1.906097
     95          6           0       -2.192173   -3.109850   -1.201560
     96          6           0       -3.370903   -2.642647   -1.796951
     97          6           0       -3.734571   -3.053566   -3.078387
     98          1           0       -3.205539   -4.273269   -4.780310
     99          1           0       -1.121347   -5.135089   -3.722561
    100          1           0       -0.464954   -4.387711   -1.460605
    101          1           0       -4.000389   -1.937241   -1.253112
    102          1           0       -4.650508   -2.669181   -3.531251
    103          1           0        0.276868    1.171452   -3.737053
    104          1           0        0.747735   -1.350325   -3.830974
    105          1           0       -0.956232   -1.661311   -3.416088
    106          1           0       -0.522250   -0.882476   -4.971911
 ---------------------------------------------------------------------
 Rotational constants (GHZ):           0.0596274           0.0448133           0.0409436
 Standard basis: def2SVP (5D, 7F)
 There are  1108 symmetry adapted cartesian basis functions of A   symmetry.
 There are  1051 symmetry adapted basis functions of A   symmetry.
  1051 basis functions,  1792 primitive gaussians,  1108 cartesian basis functions
   212 alpha electrons      212 beta electrons
       nuclear repulsion energy      9589.5906450485 Hartrees.
 NAtoms=  106 NActive=  106 NUniq=  106 SFac= 1.00D+00 NAtFMM=   60 NAOKFM=T Big=T
 Integral buffers will be    131072 words long.
 Raffenetti 2 integral format.
 Two-electron integral symmetry is turned on.
 Nuclear repulsion after empirical dispersion term =     9589.4576143822 Hartrees.
 ------------------------------------------------------------------------------
 Polarizable Continuum Model (PCM)
 =================================
 Model                : PCM.
 Atomic radii         : UFF (Universal Force Field).
 Polarization charges : Total charges.
 Charge compensation  : None.
 Solution method      : Matrix inversion.
 Cavity type          : Scaled VdW (van der Waals Surface) (Alpha=1.100).
 Cavity algorithm     : GePol (No added spheres)
                        Default sphere list used, NSphG=  106.
                        Lebedev-Laikov grids with approx.  5.0 points / Ang**2.
                        Smoothing algorithm: York/Karplus (Gamma=1.0000).
                        Polarization charges: spherical gaussians, with
                                              point-specific exponents (IZeta= 3).
                        Self-potential: point-specific (ISelfS= 7).
                        Self-field    : sphere-specific E.n sum rule (ISelfD= 2).
 1st derivatives      : Analytical E(r).r(x)/FMM algorithm (CHGder, D1EAlg=3).
                        Cavity 1st derivative terms included.
 Solvent              : Toluene, Eps=   2.374100 Eps(inf)=   2.238315
 ------------------------------------------------------------------------------
 One-electron integrals computed using PRISM.
   1 Symmetry operations used in ECPInt.
 ECPInt:  NShTT=  121771 NPrTT=  444119 LenC2=   97503 LenP2D=  220025.
 LDataN:  DoStor=T MaxTD1= 4 Len=   56
 NBasis=  1051 RedAO= T EigKep=  1.51D-04  NBF=  1051
 NBsUse=  1051 1.00D-06 EigRej= -1.00D+00 NBFU=  1051
 Initial guess from the checkpoint file:  "BPA_TS_1_opt_dft.chk"
 B after Tr=    -0.000000    0.000000    0.000000
         Rot=    0.999984    0.000542    0.003865    0.004153 Ang=   0.65 deg.
 ExpMin= 7.80D-02 ExpMax= 8.00D+03 ExpMxC= 1.20D+03 IAcc=3 IRadAn=         5 AccDes= 0.00D+00
 Harris functional with IExCor= 4639 and IRadAn=       5 diagonalized for initial guess.
 HarFok:  IExCor= 4639 AccDes= 0.00D+00 IRadAn=         5 IDoV= 1 UseB2=F ITyADJ=14
 ICtDFT=  3500011 ScaDFX=  1.000000  1.000000  1.000000  1.000000
 FoFCou: FMM=F IPFlag=           0 FMFlag=      100000 FMFlg1=        2001
         NFxFlg=           0 DoJE=T BraDBF=F KetDBF=T FulRan=T
         wScrn=  0.000000 ICntrl=       500 IOpCl=  0 I1Cent=   200000004 NGrid=           0
         NMat0=    1 NMatS0=      1 NMatT0=    0 NMatD0=    1 NMtDS0=    0 NMtDT0=    0
 Petite list used in FoFCou.
 Requested convergence on RMS density matrix=1.00D-08 within 128 cycles.
 Requested convergence on MAX density matrix=1.00D-06.
 Requested convergence on             energy=1.00D-06.
 No special actions if energy rises.
 Inv3:  Mode=1 IEnd=   116102523.
 Iteration    1 A*A^-1 deviation from unit magnitude is 2.89D-15 for    200.
 Iteration    1 A*A^-1 deviation from orthogonality  is 2.63D-15 for   5259   4679.
 Iteration    1 A^-1*A deviation from unit magnitude is 3.11D-15 for   5957.
 Iteration    1 A^-1*A deviation from orthogonality  is 3.03D-14 for   5719   5686.
