Unloading slurm/anatra/current
  ERROR: No such file or directory on
    '/cm/local/modulefiles/slurm/anatra/current'
environment: line 0: unalias: gv: not found
environment: line 0: unalias: sl: not found
 Entering Gaussian System, Link 0=g16
 Initial command:
 /apps/gaussian/g16/C.01/g16/l1.exe "/local/jobs/1176104/Gau-3202327.inp" -scrdir="/local/jobs/1176104/"
 Entering Link 1 = /apps/gaussian/g16/C.01/g16/l1.exe PID=   3202332.
  
 Copyright (c) 1988-2019, Gaussian, Inc.  All Rights Reserved.
  
 This is part of the Gaussian(R) 16 program.  It is based on
 the Gaussian(R) 09 system (copyright 2009, Gaussian, Inc.),
 the Gaussian(R) 03 system (copyright 2003, Gaussian, Inc.),
 the Gaussian(R) 98 system (copyright 1998, Gaussian, Inc.),
 the Gaussian(R) 94 system (copyright 1995, Gaussian, Inc.),
 the Gaussian 92(TM) system (copyright 1992, Gaussian, Inc.),
 the Gaussian 90(TM) system (copyright 1990, Gaussian, Inc.),
 the Gaussian 88(TM) system (copyright 1988, Gaussian, Inc.),
 the Gaussian 86(TM) system (copyright 1986, Carnegie Mellon
 University), and the Gaussian 82(TM) system (copyright 1983,
 Carnegie Mellon University). Gaussian is a federally registered
 trademark of Gaussian, Inc.
  
 This software contains proprietary and confidential information,
 including trade secrets, belonging to Gaussian, Inc.
  
 This software is provided under written license and may be
 used, copied, transmitted, or stored only in accord with that
 written license.
  
 The following legend is applicable only to US Government
 contracts under FAR:
  
                    RESTRICTED RIGHTS LEGEND
  
 Use, reproduction and disclosure by the US Government is
 subject to restrictions as set forth in subparagraphs (a)
 and (c) of the Commercial Computer Software - Restricted
 Rights clause in FAR 52.227-19.
  
 Gaussian, Inc.
 340 Quinnipiac St., Bldg. 40, Wallingford CT 06492
  
  
 ---------------------------------------------------------------
 Warning -- This program may not be used in any manner that
 competes with the business of Gaussian, Inc. or will provide
 assistance to any competitor of Gaussian, Inc.  The licensee
 of this program is prohibited from giving any competitor of
 Gaussian, Inc. access to this program.  By using this program,
 the user acknowledges that Gaussian, Inc. is engaged in the
 business of creating and licensing software in the field of
 computational chemistry and represents and warrants to the
 licensee that it is not a competitor of Gaussian, Inc. and that
 it will not use this program in any manner prohibited above.
 ---------------------------------------------------------------
  

 Cite this work as:
 Gaussian 16, Revision C.01,
 M. J. Frisch, G. W. Trucks, H. B. Schlegel, G. E. Scuseria, 
 M. A. Robb, J. R. Cheeseman, G. Scalmani, V. Barone, 
 G. A. Petersson, H. Nakatsuji, X. Li, M. Caricato, A. V. Marenich, 
 J. Bloino, B. G. Janesko, R. Gomperts, B. Mennucci, H. P. Hratchian, 
 J. V. Ortiz, A. F. Izmaylov, J. L. Sonnenberg, D. Williams-Young, 
 F. Ding, F. Lipparini, F. Egidi, J. Goings, B. Peng, A. Petrone, 
 T. Henderson, D. Ranasinghe, V. G. Zakrzewski, J. Gao, N. Rega, 
 G. Zheng, W. Liang, M. Hada, M. Ehara, K. Toyota, R. Fukuda, 
 J. Hasegawa, M. Ishida, T. Nakajima, Y. Honda, O. Kitao, H. Nakai, 
 T. Vreven, K. Throssell, J. A. Montgomery, Jr., J. E. Peralta, 
 F. Ogliaro, M. J. Bearpark, J. J. Heyd, E. N. Brothers, K. N. Kudin, 
 V. N. Staroverov, T. A. Keith, R. Kobayashi, J. Normand, 
 K. Raghavachari, A. P. Rendell, J. C. Burant, S. S. Iyengar, 
 J. Tomasi, M. Cossi, J. M. Millam, M. Klene, C. Adamo, R. Cammi, 
 J. W. Ochterski, R. L. Martin, K. Morokuma, O. Farkas, 
 J. B. Foresman, and D. J. Fox, Gaussian, Inc., Wallingford CT, 2019.
 
 ******************************************
 Gaussian 16:  ES64L-G16RevC.01  3-Jul-2019
                20-May-2024 
 ******************************************
 %nprocshared=12
 Will use up to   12 processors via shared memory.
 %mem=48GB
 ----------------------------------------------------------------------
 # external="~/scripts/MiMe -H 'am1' -EF 'wb97xd def2svp' -c 12 -m 48GB
 " opt=(calcall,ts,noeigen,maxcycles=50,maxstep=10,nomicro,cartesian)
 ----------------------------------------------------------------------
 1/5=1,6=50,8=10,10=4,11=1,18=10,26=1,38=1/1,3;
 2/12=2,17=6,18=5,29=2,40=1/2;
 3/11=9,25=1,30=1,41=9900000,43=2,71=2,140=1/1;
 4/20=17,22=2,24=3,113=1,114=1/2;
 6/7=2,8=2,9=2,10=2,18=1/1;
 7/7=1,25=1,44=-1/16;
 1/5=1,6=50,8=10,10=4,11=1,18=10,26=1/3(3);
 2/29=1/2;
 7/7=1,8=1,9=1,25=1,44=-1/16;
 99/12=1/99;
 2/29=1/2;
 3/11=9,25=1,30=1,41=9900000,43=2,71=2,140=1/1;
 4/16=2,20=17,22=2,24=3,113=1,114=1/2;
 7/7=1,25=1,44=-1/16;
 1/5=1,6=50,8=10,10=4,11=1,18=10,26=1/3(-4);
 2/29=1/2;
 6/7=2,8=2,9=2,10=2,18=1/1;
 7/7=1,8=1,9=1,25=1,44=-1/16;
 99/12=1/99;
 -----
 *****
 -----
 Symbolic Z-matrix:
 Charge =  0 Multiplicity = 1
 C                    -0.2575   -1.9445    0.4924 
 C                     0.3286   -0.0889   -0.7909 
 C                    -2.0352   -0.7041    0.0388 
 C                    -1.115     0.3285   -0.9316 
 C                    -1.0356   -2.7139   -0.451 
 C                    -2.1494   -2.0106   -0.6995 
 H                    -2.9264   -2.2819   -1.3967 
 C                    -3.2574    0.1226    0.3831 
 H                    -3.9683    0.1197   -0.4524 
 H                    -3.7878   -0.245     1.2681 
 C                    -2.7195    1.5396    0.6015 
 H                    -3.4906    2.2903    0.4124 
 H                    -2.3119    1.6634    1.6093 
 C                    -1.5872    1.6666   -0.3986 
 O                    -1.1174    2.7394   -0.7623 
 H                    -0.7421   -3.6634   -0.8684 
 H                    -1.4561    0.2362   -1.9699 
 H                     0.7903   -0.6172   -1.6179 
 C                     1.2158    0.5654    0.1836 
 O                     0.8153    1.1752    1.1624 
 N                    -1.1786   -1.0708    1.1797 
 H                    -0.739    -0.2942    1.6798 
 H                     0.6718   -2.2973    0.9293 
 Br                    3.0542    0.2998    0.0066 
 

 GradGradGradGradGradGradGradGradGradGradGradGradGradGradGradGradGradGrad
 Berny optimization.
 Initialization pass.
 No Z-matrix variables, so optimization will use Cartesian coordinates.
 Trust Radius=1.00D-01 FncErr=1.00D-07 GrdErr=1.00D-07 EigMax=2.50D+02 EigMin=1.00D-04
 Number of steps in this run=     50 maximum allowed number of steps=    144.
 Search for a saddle point of order  1.
 GradGradGradGradGradGradGradGradGradGradGradGradGradGradGradGradGradGrad

 ---------------------------------------------------------------------------------------------------
                            Z-MATRIX (ANGSTROMS AND DEGREES)
   CD    Cent   Atom    N1       Length/X        N2       Alpha/Y        N3        Beta/Z          J
 ---------------------------------------------------------------------------------------------------
      1      1  C        0  -0.257500         -1.944500          0.492400
      2      2  C        0   0.328600         -0.088900         -0.790900
      3      3  C        0  -2.035200         -0.704100          0.038800
      4      4  C        0  -1.115000          0.328500         -0.931600
      5      5  C        0  -1.035600         -2.713900         -0.451000
      6      6  C        0  -2.149400         -2.010600         -0.699500
      7      7  H        0  -2.926400         -2.281900         -1.396700
      8      8  C        0  -3.257400          0.122600          0.383100
      9      9  H        0  -3.968300          0.119700         -0.452400
     10     10  H        0  -3.787800         -0.245000          1.268100
     11     11  C        0  -2.719500          1.539600          0.601500
     12     12  H        0  -3.490600          2.290300          0.412400
     13     13  H        0  -2.311900          1.663400          1.609300
     14     14  C        0  -1.587200          1.666600         -0.398600
     15     15  O        0  -1.117400          2.739400         -0.762300
     16     16  H        0  -0.742100         -3.663400         -0.868400
     17     17  H        0  -1.456100          0.236200         -1.969900
     18     18  H        0   0.790300         -0.617200         -1.617900
     19     19  C        0   1.215800          0.565400          0.183600
     20     20  O        0   0.815300          1.175200          1.162400
     21     21  N        0  -1.178600         -1.070800          1.179700
     22     22  H        0  -0.739000         -0.294200          1.679800
     23     23  H        0   0.671800         -2.297300          0.929300
     24     24  Br       0   3.054200          0.299800          0.006600
 ---------------------------------------------------------------------------------------------------
                         Z-Matrix orientation:                         
 ---------------------------------------------------------------------
 Center     Atomic      Atomic             Coordinates (Angstroms)
 Number     Number       Type             X           Y           Z
 ---------------------------------------------------------------------
      1          6           0       -0.257500   -1.944500    0.492400
      2          6           0        0.328600   -0.088900   -0.790900
      3          6           0       -2.035200   -0.704100    0.038800
      4          6           0       -1.115000    0.328500   -0.931600
      5          6           0       -1.035600   -2.713900   -0.451000
      6          6           0       -2.149400   -2.010600   -0.699500
      7          1           0       -2.926400   -2.281900   -1.396700
      8          6           0       -3.257400    0.122600    0.383100
      9          1           0       -3.968300    0.119700   -0.452400
     10          1           0       -3.787800   -0.245000    1.268100
     11          6           0       -2.719500    1.539600    0.601500
     12          1           0       -3.490600    2.290300    0.412400
     13          1           0       -2.311900    1.663400    1.609300
     14          6           0       -1.587200    1.666600   -0.398600
     15          8           0       -1.117400    2.739400   -0.762300
     16          1           0       -0.742100   -3.663400   -0.868400
     17          1           0       -1.456100    0.236200   -1.969900
     18          1           0        0.790300   -0.617200   -1.617900
     19          6           0        1.215800    0.565400    0.183600
     20          8           0        0.815300    1.175200    1.162400
     21          7           0       -1.178600   -1.070800    1.179700
     22          1           0       -0.739000   -0.294200    1.679800
     23          1           0        0.671800   -2.297300    0.929300
     24         35           0        3.054200    0.299800    0.006600
 ---------------------------------------------------------------------
                    Distance matrix (angstroms):
                    1          2          3          4          5
     1  C    0.000000
     2  C    2.331013   0.000000
     3  C    2.214625   2.579617   0.000000
     4  C    2.815957   1.509305   1.689588   0.000000
     5  C    1.444790   2.977784   2.297477   3.081149   0.000000
     6  C    2.237025   3.137159   1.505015   2.568120   1.340498
     7  H    3.287182   3.971306   2.311785   3.211180   2.157799
     8  C    3.644756   3.779207   1.515173   2.522045   3.698358
     9  H    4.350127   4.315257   2.157962   2.900785   4.077992
    10  H    3.994124   4.605279   2.189420   3.508766   4.077423
    11  C    4.267587   3.725816   2.412278   2.528157   4.694203
    12  H    5.328496   4.657769   3.350253   3.361320   5.640435
    13  H    4.299415   3.975394   2.854486   3.109775   5.003452
    14  C    3.949940   2.627921   2.451987   1.515775   4.415404
    15  O    4.924695   3.176636   3.652644   2.416838   5.462790
    16  H    2.245269   3.732219   3.354486   4.009777   1.077922
    17  H    3.500716   2.163535   2.292247   1.096784   3.344692
    18  H    2.704252   1.084526   3.276531   2.235067   3.015247
    19  C    2.926699   1.471354   3.493079   2.594691   4.028067
    20  O    3.366352   2.377016   3.594384   2.971161   4.599347
    21  N    1.443661   2.668154   1.473053   2.533707   2.319355
    22  H    2.089318   2.699310   2.130970   2.710819   3.237781
    23  H    1.085794   2.820267   3.264832   3.681091   2.234726
    24  Br   4.029918   2.866355   5.187566   4.273555   5.100809
                    6          7          8          9         10
     6  C    0.000000
     7  H    1.078620   0.000000
     8  C    2.636329   3.009796   0.000000
     9  H    2.812052   2.782973   1.097018   0.000000
    10  H    3.110168   3.462966   1.095299   1.767967   0.000000
    11  C    3.823812   4.317346   1.531314   2.164792   2.184129
    12  H    4.640353   4.949361   2.180405   2.384865   2.692266
    13  H    4.342262   4.997903   2.184400   3.062234   2.436532
    14  C    3.732078   4.287227   2.405111   2.839970   3.357789
    15  O    4.861221   5.374793   3.569199   3.884134   4.490012
    16  H    2.177331   2.637956   4.714529   4.989315   5.052364
    17  H    2.672581   2.971728   2.965501   2.937265   4.019082
    18  H    3.380364   4.078482   4.575498   4.954360   5.424622
    19  C    4.328997   5.268993   4.499488   5.241950   5.183522
    20  O    4.733438   5.700952   4.278102   5.157954   4.818368
    21  N    2.314534   3.340570   2.525903   3.444338   2.738190
    22  H    3.255200   4.266207   2.863126   3.891782   3.076865
    23  H    3.270223   4.284572   4.646812   5.411239   4.920849
    24  Br   5.737071   6.663483   6.325302   7.039789   6.978621
                   11         12         13         14         15
    11  C    0.000000
    12  H    1.092659   0.000000
    13  H    1.094132   1.793016   0.000000
    14  C    1.516058   2.160938   2.134681   0.000000
    15  O    2.422023   2.685831   2.865151   1.226332   0.000000
    16  H    5.756902   6.681410   6.080959   5.416992   6.414667
    17  H    3.147559   3.746181   3.947147   2.128900   2.799826
    18  H    4.679340   5.558937   5.023903   3.514960   3.954508
    19  C    4.075573   5.017752   3.960163   3.067313   3.326383
    20  O    3.597528   4.510734   3.196473   2.906923   3.144284
    21  N    3.085916   4.151034   2.990782   3.186117   4.277001
    22  H    2.906533   3.982116   2.512207   2.980592   3.912770
    23  H    5.131293   6.216014   5.005198   4.751726   5.606344
    24  Br   5.935202   6.852822   5.763947   4.855401   4.893373
                   16         17         18         19         20
    16  H    0.000000
    17  H    4.114605   0.000000
    18  H    3.491323   2.428685   0.000000
    19  C    4.777324   3.447461   2.196587   0.000000
    20  O    5.473728   3.981492   3.308080   1.220781   0.000000
    21  N    3.332690   3.421291   3.450925   3.066352   3.003407
    22  H    4.224316   3.757109   3.649372   2.607445   2.200611
    23  H    2.664032   4.399084   3.053687   3.007832   3.483272
    24  Br   5.557380   4.924774   2.933451   1.865901   2.667372
                   21         22         23         24
    21  N    0.000000
    22  H    1.022964   0.000000
    23  H    2.234051   2.562424   0.000000
    24  Br   4.601229   4.188174   3.643094   0.000000
 Stoichiometry    C10H10BrNO2
 Framework group  C1[X(C10H10BrNO2)]
 Deg. of freedom    66
 Full point group                 C1      NOp   1
 Largest Abelian subgroup         C1      NOp   1
 Largest concise Abelian subgroup C1      NOp   1
                         Standard orientation:                         
 ---------------------------------------------------------------------
 Center     Atomic      Atomic             Coordinates (Angstroms)
 Number     Number       Type             X           Y           Z
 ---------------------------------------------------------------------
      1          6           0        0.446932    1.980047    0.519236
      2          6           0       -0.283635    0.206262   -0.804993
      3          6           0        2.115130    0.597992    0.059237
      4          6           0        1.119728   -0.332662   -0.939645
      5          6           0        1.299598    2.695819   -0.401661
      6          6           0        2.350805    1.902822   -0.652763
      7          1           0        3.156296    2.118077   -1.337067
      8          6           0        3.256877   -0.338167    0.399487
      9          1           0        3.974763   -0.381967   -0.428866
     10          1           0        3.807153   -0.034363    1.296470
     11          6           0        2.595422   -1.706673    0.585479
     12          1           0        3.300456   -2.518113    0.389529
     13          1           0        2.167209   -1.812853    1.586720
     14          6           0        1.467778   -1.716303   -0.427811
     15          8           0        0.910672   -2.737292   -0.816532
     16          1           0        1.094478    3.674728   -0.803629
     17          1           0        1.479306   -0.251508   -1.972628
     18          1           0       -0.688271    0.787762   -1.626166
     19          6           0       -1.235331   -0.385931    0.148142
     20          8           0       -0.900463   -1.046045    1.118924
     21          7           0        1.280765    1.017048    1.198584
     22          1           0        0.769695    0.272702    1.679430
     23          1           0       -0.453083    2.404428    0.953773
     24         35           0       -3.041567    0.041978   -0.041572
 ---------------------------------------------------------------------
 Rotational constants (GHZ):           0.9200981           0.3747929           0.2995681
 Standard basis: STO-3G (5D, 7F)
 There are    94 symmetry adapted cartesian basis functions of A   symmetry.
 There are    93 symmetry adapted basis functions of A   symmetry.
    93 basis functions,   282 primitive gaussians,    94 cartesian basis functions
    64 alpha electrons       64 beta electrons
       nuclear repulsion energy      1228.8323260561 Hartrees.
 NAtoms=   24 NActive=   24 NUniq=   24 SFac= 1.00D+00 NAtFMM=   60 NAOKFM=F Big=F
 Integral buffers will be    131072 words long.
 Raffenetti 1 integral format.
 Two-electron integral symmetry is turned on.
 External calculation of energy, first and second derivatives.
 Running external command "~/scripts/MiMe -H 'am1' -EF 'wb97xd def2svp' -c 12 -m 48GB R"
         input file       "/local/jobs/1176104/Gau-3202332.EIn"
         output file      "/local/jobs/1176104/Gau-3202332.EOu"
         message file     "/local/jobs/1176104/Gau-3202332.EMs"
         fchk file        "/local/jobs/1176104/Gau-3202332.EFC"
         mat. el file     "/local/jobs/1176104/Gau-3202332.EUF"
 Read checkpoint file Gau-3202332_H.chk type G16
 Write formatted file Gau-3202332_H.fchk

deriv: 2

spelevel: wb97xd def2svp
gradlevel: wb97xd def2svp
hesslevel: am1

runspe: False
runforce: True
runfreq: True

Running Gaussian ...

Parsing files ...
SPE file: Gau-3202332_F.out
FORCE file: Gau-3202332_F.out
HESS file: Gau-3202332_H.out

 ExternalExternalExternalExternalExternalExternalExternalExternalExternalExternal
 Output from external command:
 "~/scripts/MiMe -H 'am1' -EF 'wb97xd def2svp' -c 12 -m 48GB R /local/jobs/1176104/Gau-3202332.EIn /local/jobs/1176104/Gau-3202332.EOu /local/jobs/1176104/Gau-3202332.EMs /local/jobs/1176104/Gau-3202332.EFC /local/jobs/1176104/Gau-3202332.EUF"
  
 --------------------------------------------------
 Force calculation at wb97xd def2svp
 Hessian calculation at am1
 ExternalExternalExternalExternalExternalExternalExternalExternalExternalExternal

 Recovered energy= -3165.49200118     dipole=      4.078200000000      4.589500000000     -0.817600000000
 Energy=    -3165.49200     NIter=   0.
 Dipole moment=       4.078200       4.589500      -0.817600
 ***** Axes restored to original set *****
 -------------------------------------------------------------------
 Center     Atomic                   Forces (Hartrees/Bohr)
 Number     Number              X              Y              Z
 -------------------------------------------------------------------
      1        6          -0.020418610    0.038342047    0.018370883
      2        6          -0.007955297   -0.005102196    0.006516904
      3        6          -0.004928871   -0.017152736    0.004066932
      4        6           0.018940459   -0.023022672    0.021107038
      5        6           0.008658751    0.007330187    0.005560014
      6        6          -0.000175981    0.018211766    0.007755130
      7        1          -0.007401127    0.001833437   -0.005234286
      8        6           0.000639058    0.005504250    0.007668460
      9        1          -0.000175561   -0.001635434   -0.003139095
     10        1          -0.000168921   -0.004801504    0.000376207
     11        6          -0.005569663   -0.011659667   -0.012574993
     12        1           0.001755111    0.006989657    0.002741257
     13        1           0.001800005    0.003010236    0.003881241
     14        6           0.024151924    0.053819080   -0.009204346
     15        8          -0.016341428   -0.034847281    0.009179338
     16        1           0.003806040   -0.005508730   -0.004671157
     17        1          -0.000395855   -0.001063587   -0.001050740
     18        1           0.002739953    0.003995288   -0.006062314
     19        6          -0.052583946    0.003425429    0.015409621
     20        8           0.001850873   -0.009166482   -0.015212113
     21        7           0.021843717   -0.025121966   -0.042357255
     22        1           0.001552037    0.000335645   -0.002523572
     23        1           0.001744436    0.002628285    0.007150228
     24       35           0.026632894   -0.006343053   -0.007753387
 -------------------------------------------------------------------
 Cartesian Forces:  Max     0.053819080 RMS     0.015623359

 GradGradGradGradGradGradGradGradGradGradGradGradGradGradGradGradGradGrad
 Berny optimization.
 Search for a saddle point.
 Step number   1 out of a maximum of   50
 All quantities printed in internal units (Hartrees-Bohrs-Radians)
 Swapping is turned off.
 Second derivative matrix not updated -- analytic derivatives used.
 ITU=  0
     Eigenvalues ---   -0.03579  -0.00834  -0.00126  -0.00102   0.00180
     Eigenvalues ---    0.00481   0.00612   0.00672   0.01417   0.01864
     Eigenvalues ---    0.01981   0.02347   0.02744   0.03033   0.03288
     Eigenvalues ---    0.03444   0.03958   0.04461   0.04806   0.04837
     Eigenvalues ---    0.05095   0.05455   0.05528   0.05860   0.06628
     Eigenvalues ---    0.07697   0.08026   0.10057   0.11592   0.12073
     Eigenvalues ---    0.13156   0.15110   0.16236   0.16497   0.16783
     Eigenvalues ---    0.18958   0.19747   0.23562   0.24142   0.26116
     Eigenvalues ---    0.26416   0.30360   0.31462   0.35095   0.38878
     Eigenvalues ---    0.43586   0.48772   0.54539   0.62041   0.67610
     Eigenvalues ---    0.73816   0.75534   0.78719   0.80561   0.85322
     Eigenvalues ---    0.87324   0.88379   0.90026   0.96200   1.02293
     Eigenvalues ---    1.03513   1.09641   1.23673   1.68286   2.18255
     Eigenvalues ---    2.26382
 Eigenvectors required to have negative eigenvalues:
                          Y2        Y1        Z1        Z2        X1
   1                    0.48991  -0.43651   0.35894  -0.28634  -0.24042
                          Y4        X4        Z4        Y23       Y5
   1                    0.16971   0.16361  -0.15393  -0.13356  -0.13277
 RFO step:  Lambda0=1.015803994D-03 Lambda=-2.68938829D-02.
 Linear search not attempted -- option 19 set.
 Maximum step size (   0.100) exceeded in Quadratic search.
    -- Step size scaled by   0.162
 B after Tr=    -0.001158   -0.000041   -0.003928
         Rot=    1.000000    0.000209   -0.000541   -0.000165 Ang=   0.07 deg.
 Variable       Old X    -DE/DX   Delta X   Delta X   Delta X     New X
                                 (Linear)    (Quad)   (Total)
    X1       -0.48660  -0.02042   0.00000  -0.01055  -0.00946  -0.49607
    Y1       -3.67457   0.03834   0.00000  -0.00061  -0.00042  -3.67499
    Z1        0.93050   0.01837   0.00000   0.02465   0.02279   0.95329
    X2        0.62096  -0.00796   0.00000  -0.00152  -0.00425   0.61671
    Y2       -0.16800  -0.00510   0.00000   0.00468   0.00421  -0.16378
    Z2       -1.49458   0.00652   0.00000  -0.00642  -0.01095  -1.50553
    X3       -3.84597  -0.00493   0.00000  -0.00856  -0.00919  -3.85517
    Y3       -1.33056  -0.01715   0.00000  -0.00820  -0.00948  -1.34003
    Z3        0.07332   0.00407   0.00000   0.00465   0.00546   0.07878
    X4       -2.10704   0.01894   0.00000   0.00989   0.00663  -2.10041
    Y4        0.62078  -0.02302   0.00000  -0.00361  -0.00508   0.61570
    Z4       -1.76047   0.02111   0.00000   0.00483   0.00292  -1.75755
    X5       -1.95700   0.00866   0.00000   0.00715   0.00676  -1.95024
    Y5       -5.12853   0.00733   0.00000   0.00414   0.00311  -5.12542
    Z5       -0.85227   0.00556   0.00000   0.00785   0.00817  -0.84410
    X6       -4.06178  -0.00018   0.00000   0.00387   0.00253  -4.05924
    Y6       -3.79948   0.01821   0.00000   0.00377   0.00184  -3.79765
    Z6       -1.32186   0.00776   0.00000  -0.00108   0.00097  -1.32089
    X7       -5.53009  -0.00740   0.00000   0.00795   0.00534  -5.52475
    Y7       -4.31217   0.00183   0.00000   0.00884   0.00588  -4.30629
    Z7       -2.63938  -0.00523   0.00000  -0.01281  -0.00896  -2.64834
    X8       -6.15559   0.00064   0.00000  -0.00203  -0.00248  -6.15807
    Y8        0.23168   0.00550   0.00000   0.00447   0.00270   0.23438
    Z8        0.72395   0.00767   0.00000  -0.00483  -0.00218   0.72177
    X9       -7.49900  -0.00018   0.00000   0.01284   0.01066  -7.48834
    Y9        0.22620  -0.00164   0.00000   0.01119   0.00832   0.23452
    Z9       -0.85491  -0.00314   0.00000  -0.01976  -0.01568  -0.87059
   X10       -7.15790  -0.00017   0.00000  -0.01741  -0.01583  -7.17374
   Y10       -0.46298  -0.00480   0.00000  -0.00454  -0.00595  -0.46893
   Z10        2.39636   0.00038   0.00000  -0.01744  -0.01340   2.38296
   X11       -5.13911  -0.00557   0.00000   0.00793   0.00705  -5.13206
   Y11        2.90942  -0.01166   0.00000  -0.00337  -0.00462   2.90480
   Z11        1.13667  -0.01257   0.00000   0.00068   0.00109   1.13776
   X12       -6.59628   0.00176   0.00000   0.02000   0.01828  -6.57799
   Y12        4.32804   0.00699   0.00000   0.01690   0.01503   4.34307
   Z12        0.77932   0.00274   0.00000   0.02638   0.02776   0.80708
   X13       -4.36886   0.00180   0.00000   0.01877   0.01988  -4.34898
   Y13        3.14337   0.00301   0.00000  -0.01603  -0.01623   3.12714
   Z13        3.04114   0.00388   0.00000   0.00130   0.00078   3.04191
   X14       -2.99937   0.02415   0.00000   0.00867   0.00566  -2.99372
   Y14        3.14942   0.05382   0.00000   0.00464   0.00330   3.15272
   Z14       -0.75324  -0.00920   0.00000  -0.00003  -0.00203  -0.75528
   X15       -2.11158  -0.01634   0.00000  -0.00442  -0.00886  -2.12044
   Y15        5.17672  -0.03485   0.00000  -0.00101  -0.00235   5.17437
   Z15       -1.44054   0.00918   0.00000  -0.01168  -0.01547  -1.45601
   X16       -1.40237   0.00381   0.00000   0.01478   0.01413  -1.38824
   Y16       -6.92282  -0.00551   0.00000   0.00666   0.00547  -6.91735
   Z16       -1.64104  -0.00467   0.00000  -0.00015   0.00031  -1.64072
   X17       -2.75163  -0.00040   0.00000  -0.00158  -0.00690  -2.75853
   Y17        0.44635  -0.00106   0.00000  -0.00488  -0.00738   0.43898
   Z17       -3.72257  -0.00105   0.00000   0.00690   0.00577  -3.71680
   X18        1.49345   0.00274   0.00000   0.00677   0.00267   1.49612
   Y18       -1.16634   0.00400   0.00000   0.01455   0.01372  -1.15262
   Z18       -3.05739  -0.00606   0.00000  -0.00979  -0.01486  -3.07225
   X19        2.29753  -0.05258   0.00000  -0.02267  -0.02379   2.27374
   Y19        1.06845   0.00343   0.00000  -0.00954  -0.00868   1.05977
   Z19        0.34695   0.01541   0.00000   0.00658  -0.00026   0.34670
   X20        1.54069   0.00185   0.00000  -0.01212  -0.01160   1.52909
   Y20        2.22081  -0.00917   0.00000  -0.02988  -0.02849   2.19231
   Z20        2.19662  -0.01521   0.00000   0.01981   0.01331   2.20992
   X21       -2.22723   0.02184   0.00000   0.00212   0.00404  -2.22320
   Y21       -2.02352  -0.02512   0.00000   0.00088   0.00103  -2.02249
   Z21        2.22931  -0.04236   0.00000  -0.00922  -0.00989   2.21942
   X22       -1.39651   0.00155   0.00000  -0.00818  -0.00571  -1.40222
   Y22       -0.55596   0.00034   0.00000   0.00059   0.00141  -0.55454
   Z22        3.17436  -0.00252   0.00000   0.00195  -0.00023   3.17414
   X23        1.26952   0.00174   0.00000  -0.00899  -0.00678   1.26274
   Y23       -4.34127   0.00263   0.00000   0.01133   0.01246  -4.32881
   Z23        1.75612   0.00715   0.00000   0.03560   0.03212   1.78824
   X24        5.77160   0.02663   0.00000   0.00260   0.00124   5.77284
   Y24        0.56654  -0.00634   0.00000   0.00834   0.01020   0.57674
   Z24        0.01247  -0.00775   0.00000  -0.01709  -0.02752  -0.01504
         Item               Value     Threshold  Converged?
 Maximum Force            0.053819     0.000450     NO 
 RMS     Force            0.015623     0.000300     NO 
 Maximum Displacement     0.032115     0.001800     NO 
 RMS     Displacement     0.011463     0.001200     NO 
 Predicted change in Energy=-4.000107D-03
 GradGradGradGradGradGradGradGradGradGradGradGradGradGradGradGradGradGrad

                          Input orientation:                          
 ---------------------------------------------------------------------
 Center     Atomic      Atomic             Coordinates (Angstroms)
 Number     Number       Type             X           Y           Z
 ---------------------------------------------------------------------
      1          6           0       -0.262507   -1.944722    0.504461
      2          6           0        0.326350   -0.086671   -0.796693
      3          6           0       -2.040066   -0.709116    0.041688
      4          6           0       -1.111490    0.325812   -0.930055
      5          6           0       -1.032021   -2.712256   -0.446677
      6          6           0       -2.148060   -2.009627   -0.698986
      7          1           0       -2.923573   -2.278791   -1.401444
      8          6           0       -3.258712    0.124029    0.381944
      9          1           0       -3.962660    0.124103   -0.460697
     10          1           0       -3.796177   -0.248148    1.261008
     11          6           0       -2.715772    1.537154    0.602077
     12          1           0       -3.480924    2.298255    0.427089
     13          1           0       -2.301379    1.654809    1.609710
     14          6           0       -1.584207    1.668348   -0.399676
     15          8           0       -1.122087    2.738156   -0.770487
     16          1           0       -0.734625   -3.660503   -0.868234
     17          1           0       -1.459752    0.232297   -1.966848
     18          1           0        0.791711   -0.609940   -1.625766
     19          6           0        1.203209    0.560805    0.183465
     20          8           0        0.809161    1.160121    1.169441
     21          7           0       -1.176464   -1.070254    1.174464
     22          1           0       -0.742024   -0.293452    1.679680
     23          1           0        0.668213   -2.290709    0.946295
     24         35           0        3.054858    0.305196   -0.007961
 ---------------------------------------------------------------------
                    Distance matrix (angstroms):
                    1          2          3          4          5
     1  C    0.000000
     2  C    2.343525   0.000000
     3  C    2.213729   2.586551   0.000000
     4  C    2.816724   1.501770   1.696353   0.000000
     5  C    1.444272   2.976807   2.295043   3.077308   0.000000
     6  C    2.237813   3.135285   1.500531   2.565569   1.342717
     7  H    3.290189   3.966499   2.308050   3.207773   2.162739
     8  C    3.643073   3.779715   1.514926   2.524405   3.699902
     9  H    4.347723   4.307311   2.154765   2.896576   4.078453
    10  H    3.992186   4.610362   2.187043   3.512511   4.077815
    11  C    4.260457   3.721273   2.411709   2.527548   4.689604
    12  H    5.326073   4.656270   3.356916   3.368471   5.644981
    13  H    4.281962   3.965916   2.848704   3.103623   4.991117
    14  C    3.952041   2.624489   2.460679   1.518935   4.415518
    15  O    4.928866   3.174634   3.658688   2.417639   5.460765
    16  H    2.247463   3.728681   3.353032   4.004567   1.079503
    17  H    3.504308   2.158973   2.292867   1.097711   3.341297
    18  H    2.725965   1.085234   3.287734   2.231999   3.022578
    19  C    2.920450   1.465884   3.485919   2.579337   4.013260
    20  O    3.351227   2.377663   3.589424   2.965275   4.582258
    21  N    1.431403   2.666711   1.469493   2.526307   2.311954
    22  H    2.082731   2.704922   2.130893   2.707529   3.233589
    23  H    1.086814   2.830664   3.264127   3.678887   2.238050
    24  Br   4.040992   2.867126   5.195146   4.267217   5.099026
                    6          7          8          9         10
     6  C    0.000000
     7  H    1.080424   0.000000
     8  C    2.637129   3.011035   0.000000
     9  H    2.811114   2.781835   1.097993   0.000000
    10  H    3.108164   3.460289   1.095508   1.769338   0.000000
    11  C    3.820304   4.314941   1.529760   2.163546   2.188326
    12  H    4.647841   4.960194   2.186018   2.397326   2.697957
    13  H    4.333784   4.992733   2.183387   3.064229   2.444843
    14  C    3.732963   4.286880   2.408280   2.836450   3.365061
    15  O    4.857899   5.367794   3.567481   3.872738   4.493967
    16  H    2.179870   2.642903   4.717694   4.990946   5.054794
    17  H    2.665983   2.961084   2.960541   2.923139   4.013572
    18  H    3.385306   4.079058   4.579905   4.949772   5.432593
    19  C    4.314724   5.254100   4.487639   5.224161   5.177776
    20  O    4.720538   5.689364   4.270974   5.147908   4.816715
    21  N    2.310030   3.338900   2.527875   3.444289   2.747043
    22  H    3.252729   4.265448   2.862189   3.889481   3.083049
    23  H    3.273736   4.291031   4.644371   5.408875   4.919541
    24  Br   5.736399   6.660362   6.328191   7.034438   6.989503
                   11         12         13         14         15
    11  C    0.000000
    12  H    1.093323   0.000000
    13  H    1.095850   1.789956   0.000000
    14  C    1.516957   2.162836   2.133578   0.000000
    15  O    2.422018   2.681756   2.868747   1.222925   0.000000
    16  H    5.753468   6.687812   6.070211   5.416455   6.411124
    17  H    3.143185   3.752900   3.940006   2.129262   2.797253
    18  H    4.677150   5.561225   5.016433   3.512673   3.950173
    19  C    4.060407   5.001919   3.938675   3.055552   3.325340
    20  O    3.590154   4.500140   3.180253   2.906653   3.159625
    21  N    3.081505   4.149212   2.980074   3.184983   4.276656
    22  H    2.899660   3.973350   2.496439   2.980210   3.916429
    23  H    5.120778   6.208342   4.982540   4.749649   5.607316
    24  Br   5.932119   6.846751   5.755657   4.851036   4.893629
                   16         17         18         19         20
    16  H    0.000000
    17  H    4.109338   0.000000
    18  H    3.494208   2.427918   0.000000
    19  C    4.762427   3.438477   2.193921   0.000000
    20  O    5.456538   3.980594   3.308565   1.219264   0.000000
    21  N    3.328247   3.412438   3.453533   3.050456   2.986186
    22  H    4.222434   3.753493   3.657660   2.598527   2.186182
    23  H    2.671479   4.402294   3.075017   2.999876   3.460909
    24  Br   5.552208   4.921814   2.928583   1.878984   2.675879
                   21         22         23         24
    21  N    0.000000
    22  H    1.023427   0.000000
    23  H    2.223602   2.552578   0.000000
    24  Br   4.603703   4.197954   3.653135   0.000000
 Stoichiometry    C10H10BrNO2
 Framework group  C1[X(C10H10BrNO2)]
 Deg. of freedom    66
 Full point group                 C1      NOp   1
 Largest Abelian subgroup         C1      NOp   1
 Largest concise Abelian subgroup C1      NOp   1
                         Standard orientation:                         
 ---------------------------------------------------------------------
 Center     Atomic      Atomic             Coordinates (Angstroms)
 Number     Number       Type             X           Y           Z
 ---------------------------------------------------------------------
      1          6           0        0.454360    1.980800    0.528829
      2          6           0       -0.284371    0.202515   -0.806870
      3          6           0        2.120351    0.601019    0.058433
      4          6           0        1.112747   -0.332736   -0.936780
      5          6           0        1.296419    2.692540   -0.404060
      6          6           0        2.348512    1.898497   -0.659959
      7          1           0        3.150637    2.109415   -1.352365
      8          6           0        3.258131   -0.341388    0.393586
      9          1           0        3.966508   -0.390123   -0.443919
     10          1           0        3.818707   -0.031853    1.282451
     11          6           0        2.591265   -1.704549    0.586577
     12          1           0        3.288044   -2.527174    0.404532
     13          1           0        2.159562   -1.801152    1.589168
     14          6           0        1.461130   -1.719854   -0.425215
     15          8           0        0.909973   -2.738870   -0.816851
     16          1           0        1.087099    3.669806   -0.812062
     17          1           0        1.476705   -0.253898   -1.969393
     18          1           0       -0.694868    0.777708   -1.630507
     19          6           0       -1.223055   -0.380659    0.156248
     20          8           0       -0.891612   -1.027793    1.135005
     21          7           0        1.282198    1.018848    1.190832
     22          1           0        0.776890    0.275421    1.680099
     23          1           0       -0.446092    2.400335    0.969670
     24         35           0       -3.043383    0.039879   -0.044099
 ---------------------------------------------------------------------
 Rotational constants (GHZ):           0.9204576           0.3747056           0.2997712
 Standard basis: STO-3G (5D, 7F)
 There are    94 symmetry adapted cartesian basis functions of A   symmetry.
 There are    93 symmetry adapted basis functions of A   symmetry.
    93 basis functions,   282 primitive gaussians,    94 cartesian basis functions
    64 alpha electrons       64 beta electrons
       nuclear repulsion energy      1228.8959286787 Hartrees.
 NAtoms=   24 NActive=   24 NUniq=   24 SFac= 1.00D+00 NAtFMM=   60 NAOKFM=F Big=F
 Integral buffers will be    131072 words long.
 Raffenetti 1 integral format.
 Two-electron integral symmetry is turned on.
 External calculation of energy, first and second derivatives.
 Running external command "~/scripts/MiMe -H 'am1' -EF 'wb97xd def2svp' -c 12 -m 48GB R"
         input file       "/local/jobs/1176104/Gau-3202332.EIn"
         output file      "/local/jobs/1176104/Gau-3202332.EOu"
         message file     "/local/jobs/1176104/Gau-3202332.EMs"
         fchk file        "/local/jobs/1176104/Gau-3202332.EFC"
         mat. el file     "/local/jobs/1176104/Gau-3202332.EUF"
 Read checkpoint file Gau-3202332_H.chk type G16
 Write formatted file Gau-3202332_H.fchk

deriv: 2

spelevel: wb97xd def2svp
gradlevel: wb97xd def2svp
hesslevel: am1

runspe: False
runforce: True
runfreq: True

Running Gaussian ...

Parsing files ...
SPE file: Gau-3202332_F.out
FORCE file: Gau-3202332_F.out
HESS file: Gau-3202332_H.out

 ExternalExternalExternalExternalExternalExternalExternalExternalExternalExternal
 Output from external command:
 "~/scripts/MiMe -H 'am1' -EF 'wb97xd def2svp' -c 12 -m 48GB R /local/jobs/1176104/Gau-3202332.EIn /local/jobs/1176104/Gau-3202332.EOu /local/jobs/1176104/Gau-3202332.EMs /local/jobs/1176104/Gau-3202332.EFC /local/jobs/1176104/Gau-3202332.EUF"
  
 --------------------------------------------------
 Force calculation at wb97xd def2svp
 Hessian calculation at am1
 ExternalExternalExternalExternalExternalExternalExternalExternalExternalExternal

 Recovered energy= -3165.49603295     dipole=      4.277100000000      4.584300000000     -0.760600000000
 Energy=    -3165.49603     NIter=   0.
 Dipole moment=       4.277100       4.584300      -0.760600
 ***** Axes restored to original set *****
 -------------------------------------------------------------------
 Center     Atomic                   Forces (Hartrees/Bohr)
 Number     Number              X              Y              Z
 -------------------------------------------------------------------
      1        6          -0.018718986    0.033771021    0.016555354
      2        6          -0.007089914   -0.004189211    0.005573634
      3        6          -0.003216895   -0.015376649    0.003877500
      4        6           0.016301428   -0.020727700    0.018470532
      5        6           0.007658307    0.006678090    0.004907060
      6        6          -0.000175364    0.016101830    0.006958339
      7        1          -0.006146822    0.001986031   -0.004486723
      8        6           0.000292189    0.004512706    0.006390249
      9        1          -0.000001001   -0.001629410   -0.002476468
     10        1          -0.000217724   -0.004025758    0.000476073
     11        6          -0.004679893   -0.009531876   -0.010296968
     12        1           0.001673244    0.006019324    0.002306070
     13        1           0.001518093    0.002618041    0.003081296
     14        6           0.021044384    0.047494957   -0.008541746
     15        8          -0.014277007   -0.031122933    0.008499791
     16        1           0.003619201   -0.004388726   -0.004085307
     17        1          -0.000109148   -0.000889606   -0.000590909
     18        1           0.002395580    0.003954403   -0.005213575
     19        6          -0.044959585    0.002244315    0.014012222
     20        8           0.000645566   -0.008264055   -0.014111580
     21        7           0.019492134   -0.022378763   -0.038232153
     22        1           0.001355659   -0.000087995   -0.002448803
     23        1           0.001063323    0.002778553    0.006464712
     24       35           0.022533227   -0.005546592   -0.007088598
 -------------------------------------------------------------------
 Cartesian Forces:  Max     0.047494957 RMS     0.013755205

 GradGradGradGradGradGradGradGradGradGradGradGradGradGradGradGradGradGrad
 Berny optimization.
 Search for a saddle point.
 Step number   2 out of a maximum of   50
 All quantities printed in internal units (Hartrees-Bohrs-Radians)
 Swapping is turned off.
 Second derivative matrix not updated -- analytic derivatives used.
 ITU=  0  0
     Eigenvalues ---   -0.03812  -0.00793  -0.00130  -0.00089   0.00154
     Eigenvalues ---    0.00490   0.00606   0.00643   0.01425   0.01842
     Eigenvalues ---    0.01942   0.02350   0.02703   0.03053   0.03310
     Eigenvalues ---    0.03453   0.03969   0.04461   0.04809   0.04841
     Eigenvalues ---    0.05059   0.05485   0.05541   0.05896   0.06587
     Eigenvalues ---    0.07755   0.08006   0.10015   0.11391   0.12010
     Eigenvalues ---    0.12751   0.15008   0.16175   0.16280   0.16764
     Eigenvalues ---    0.18963   0.19722   0.23472   0.24096   0.25763
     Eigenvalues ---    0.26260   0.29920   0.31336   0.34451   0.38749
     Eigenvalues ---    0.43370   0.48888   0.54489   0.61976   0.67583
     Eigenvalues ---    0.74951   0.75481   0.78764   0.80684   0.85614
     Eigenvalues ---    0.87111   0.89634   0.89887   0.96652   1.02805
     Eigenvalues ---    1.05598   1.10629   1.24731   1.66851   2.19734
     Eigenvalues ---    2.29446
 Eigenvectors required to have negative eigenvalues:
                          Y2        Y1        Z1        Z2        X1
   1                    0.48769  -0.43226   0.35361  -0.28884  -0.23887
                          Y4        X4        Z4        Z23       Y23
   1                    0.18098   0.17542  -0.16810   0.13074  -0.13005
 RFO step:  Lambda0=6.313399869D-04 Lambda=-2.17558193D-02.
 Linear search not attempted -- option 19 set.
 Maximum step size (   0.100) exceeded in Quadratic search.
    -- Step size scaled by   0.164
 B after Tr=    -0.001588    0.000086   -0.003224
         Rot=    1.000000    0.000235   -0.000387   -0.000216 Ang=   0.06 deg.
 Variable       Old X    -DE/DX   Delta X   Delta X   Delta X     New X
                                 (Linear)    (Quad)   (Total)
    X1       -0.49607  -0.01872   0.00000  -0.00843  -0.00768  -0.50374
    Y1       -3.67499   0.03377   0.00000   0.00053   0.00085  -3.67414
    Z1        0.95329   0.01656   0.00000   0.02010   0.01899   0.97229
    X2        0.61671  -0.00709   0.00000  -0.00129  -0.00398   0.61274
    Y2       -0.16378  -0.00419   0.00000   0.00133   0.00097  -0.16281
    Z2       -1.50553   0.00557   0.00000  -0.00532  -0.00894  -1.51448
    X3       -3.85517  -0.00322   0.00000  -0.00818  -0.00912  -3.86429
    Y3       -1.34003  -0.01538   0.00000  -0.00735  -0.00889  -1.34892
    Z3        0.07878   0.00388   0.00000   0.00551   0.00591   0.08469
    X4       -2.10041   0.01630   0.00000   0.00824   0.00503  -2.09538
    Y4        0.61570  -0.02073   0.00000  -0.00524  -0.00688   0.60882
    Z4       -1.75755   0.01847   0.00000   0.00435   0.00246  -1.75509
    X5       -1.95024   0.00766   0.00000   0.00740   0.00738  -1.94286
    Y5       -5.12542   0.00668   0.00000   0.00577   0.00463  -5.12080
    Z5       -0.84410   0.00491   0.00000   0.00423   0.00491  -0.83919
    X6       -4.05924  -0.00018   0.00000   0.00302   0.00204  -4.05720
    Y6       -3.79765   0.01610   0.00000   0.00398   0.00170  -3.79595
    Z6       -1.32089   0.00696   0.00000  -0.00087   0.00083  -1.32007
    X7       -5.52475  -0.00615   0.00000   0.00613   0.00434  -5.52042
    Y7       -4.30629   0.00199   0.00000   0.01006   0.00651  -4.29978
    Z7       -2.64834  -0.00449   0.00000  -0.01104  -0.00798  -2.65632
    X8       -6.15807   0.00029   0.00000  -0.00091  -0.00204  -6.16011
    Y8        0.23438   0.00451   0.00000   0.00559   0.00336   0.23774
    Z8        0.72177   0.00639   0.00000  -0.00170  -0.00027   0.72150
    X9       -7.48834  -0.00000   0.00000   0.01110   0.00873  -7.47962
    Y9        0.23452  -0.00163   0.00000   0.01130   0.00775   0.24227
    Z9       -0.87059  -0.00248   0.00000  -0.01354  -0.01109  -0.88168
   X10       -7.17374  -0.00022   0.00000  -0.01346  -0.01300  -7.18674
   Y10       -0.46893  -0.00403   0.00000  -0.00080  -0.00270  -0.47164
   Z10        2.38296   0.00048   0.00000  -0.01169  -0.00912   2.37384
   X11       -5.13206  -0.00468   0.00000   0.01047   0.00851  -5.12356
   Y11        2.90480  -0.00953   0.00000  -0.00173  -0.00332   2.90148
   Z11        1.13776  -0.01030   0.00000   0.00175   0.00113   1.13889
   X12       -6.57799   0.00167   0.00000   0.02248   0.01966  -6.55834
   Y12        4.34307   0.00602   0.00000   0.01756   0.01521   4.35828
   Z12        0.80708   0.00231   0.00000   0.02791   0.02771   0.83479
   X13       -4.34898   0.00152   0.00000   0.02450   0.02392  -4.32506
   Y13        3.12714   0.00262   0.00000  -0.01410  -0.01445   3.11268
   Z13        3.04191   0.00308   0.00000   0.00037  -0.00097   3.04094
   X14       -2.99372   0.02104   0.00000   0.00788   0.00434  -2.98938
   Y14        3.15272   0.04749   0.00000   0.00350   0.00194   3.15466
   Z14       -0.75528  -0.00854   0.00000  -0.00273  -0.00512  -0.76040
   X15       -2.12044  -0.01428   0.00000  -0.00657  -0.01154  -2.13197
   Y15        5.17437  -0.03112   0.00000  -0.00263  -0.00416   5.17021
   Z15       -1.45601   0.00850   0.00000  -0.01937  -0.02338  -1.47939
   X16       -1.38824   0.00362   0.00000   0.01575   0.01587  -1.37237
   Y16       -6.91735  -0.00439   0.00000   0.00960   0.00832  -6.90902
   Z16       -1.64072  -0.00409   0.00000  -0.00499  -0.00390  -1.64463
   X17       -2.75853  -0.00011   0.00000  -0.00094  -0.00559  -2.76412
   Y17        0.43898  -0.00089   0.00000  -0.00751  -0.01036   0.42862
   Z17       -3.71680  -0.00059   0.00000   0.00627   0.00498  -3.71182
   X18        1.49612   0.00240   0.00000   0.00796   0.00447   1.50059
   Y18       -1.15262   0.00395   0.00000   0.01662   0.01590  -1.13671
   Z18       -3.07225  -0.00521   0.00000  -0.01122  -0.01507  -3.08732
   X19        2.27374  -0.04496   0.00000  -0.02129  -0.02306   2.25068
   Y19        1.05977   0.00224   0.00000  -0.01153  -0.01031   1.04946
   Z19        0.34670   0.01401   0.00000   0.00802   0.00256   0.34926
   X20        1.52909   0.00065   0.00000  -0.01524  -0.01603   1.51306
   Y20        2.19231  -0.00826   0.00000  -0.03333  -0.03154   2.16077
   Z20        2.20992  -0.01411   0.00000   0.02034   0.01493   2.22486
   X21       -2.22320   0.01949   0.00000   0.00127   0.00227  -2.22092
   Y21       -2.02249  -0.02238   0.00000   0.00009   0.00026  -2.02223
   Z21        2.21942  -0.03823   0.00000  -0.00791  -0.00846   2.21096
   X22       -1.40222   0.00136   0.00000  -0.00823  -0.00712  -1.40934
   Y22       -0.55454  -0.00009   0.00000  -0.00102  -0.00005  -0.55459
   Z22        3.17414  -0.00245   0.00000   0.00301   0.00114   3.17527
   X23        1.26274   0.00106   0.00000  -0.00881  -0.00712   1.25562
   Y23       -4.32881   0.00278   0.00000   0.01079   0.01228  -4.31653
   Z23        1.78824   0.00646   0.00000   0.03261   0.03045   1.81868
   X24        5.77284   0.02253   0.00000   0.00159  -0.00027   5.77257
   Y24        0.57674  -0.00555   0.00000   0.01040   0.01297   0.58970
   Z24       -0.01504  -0.00709   0.00000  -0.01372  -0.02169  -0.03673
         Item               Value     Threshold  Converged?
 Maximum Force            0.047495     0.000450     NO 
 RMS     Force            0.013755     0.000300     NO 
 Maximum Displacement     0.031541     0.001800     NO 
 RMS     Displacement     0.011531     0.001200     NO 
 Predicted change in Energy=-3.315697D-03
 GradGradGradGradGradGradGradGradGradGradGradGradGradGradGradGradGradGrad

                          Input orientation:                          
 ---------------------------------------------------------------------
 Center     Atomic      Atomic             Coordinates (Angstroms)
 Number     Number       Type             X           Y           Z
 ---------------------------------------------------------------------
      1          6           0       -0.266570   -1.944270    0.514512
      2          6           0        0.324246   -0.086156   -0.801426
      3          6           0       -2.044892   -0.713819    0.044815
      4          6           0       -1.108826    0.322173   -0.928754
      5          6           0       -1.028118   -2.709808   -0.444078
      6          6           0       -2.146978   -2.008729   -0.698549
      7          1           0       -2.921278   -2.275345   -1.405664
      8          6           0       -3.259791    0.125808    0.381801
      9          1           0       -3.958043    0.128203   -0.466567
     10          1           0       -3.803058   -0.249579    1.256180
     11          6           0       -2.711270    1.535398    0.602674
     12          1           0       -3.470522    2.306302    0.441753
     13          1           0       -2.288722    1.647161    1.609197
     14          6           0       -1.581911    1.669374   -0.402386
     15          8           0       -1.128192    2.735956   -0.782859
     16          1           0       -0.726228   -3.656098   -0.870300
     17          1           0       -1.462710    0.226817   -1.964211
     18          1           0        0.794078   -0.601523   -1.633740
     19          6           0        1.191008    0.555351    0.184822
     20          8           0        0.800676    1.143431    1.177343
     21          7           0       -1.175263   -1.070118    1.169988
     22          1           0       -0.745793   -0.293477    1.680282
     23          1           0        0.664443   -2.284211    0.962406
     24         35           0        3.054714    0.312058   -0.019439
 ---------------------------------------------------------------------
                    Distance matrix (angstroms):
                    1          2          3          4          5
     1  C    0.000000
     2  C    2.352306   0.000000
     3  C    2.212929   2.592856   0.000000
     4  C    2.815879   1.495540   1.702156   0.000000
     5  C    1.443918   2.973237   2.292776   3.071536   0.000000
     6  C    2.238661   3.132702   1.496598   2.562003   1.344662
     7  H    3.293048   3.961197   2.304411   3.203050   2.167363
     8  C    3.641731   3.780248   1.514764   2.526413   3.701778
     9  H    4.345645   4.300706   2.151896   2.892970   4.079126
    10  H    3.991090   4.614660   2.184965   3.515640   4.079693
    11  C    4.253518   3.716892   2.411273   2.526858   4.685132
    12  H    5.323341   4.655063   3.363199   3.375302   5.649017
    13  H    4.264482   3.955135   2.842704   3.096602   4.978779
    14  C    3.953384   2.621937   2.468592   1.521783   4.414257
    15  O    4.932553   3.173993   3.664195   2.418265   5.457209
    16  H    2.249298   3.721925   3.351614   3.997054   1.080864
    17  H    3.505486   2.154816   2.293451   1.098407   3.335182
    18  H    2.746439   1.085860   3.299986   2.229633   3.029943
    19  C    2.912273   1.461332   3.478713   2.565864   3.997662
    20  O    3.333505   2.377897   3.581795   2.959106   4.562997
    21  N    1.421096   2.665179   1.466021   2.519445   2.305525
    22  H    2.076967   2.710506   2.130516   2.705160   3.229748
    23  H    1.087637   2.838712   3.263220   3.676168   2.241449
    24  Br   4.050561   2.868019   5.202166   4.261692   5.097206
                    6          7          8          9         10
     6  C    0.000000
     7  H    1.081960   0.000000
     8  C    2.638514   3.012500   0.000000
     9  H    2.810738   2.780976   1.098767   0.000000
    10  H    3.107761   3.459289   1.095716   1.770479   0.000000
    11  C    3.817387   4.312689   1.528596   2.162849   2.192080
    12  H    4.655272   4.970524   2.191474   2.409738   2.703035
    13  H    4.325658   4.987542   2.182657   3.066376   2.452643
    14  C    3.733023   4.285007   2.410981   2.832902   3.371456
    15  O    4.853563   5.358748   3.565533   3.861149   4.497334
    16  H    2.182166   2.647893   4.721176   4.992850   5.058969
    17  H    2.658531   2.949612   2.956937   2.911932   4.009376
    18  H    3.391846   4.081368   4.585332   4.947468   5.441430
    19  C    4.300814   5.239598   4.475815   5.207637   5.170727
    20  O    4.705714   5.675641   4.260967   5.136004   4.810516
    21  N    2.305787   3.336934   2.529177   3.443566   2.754274
    22  H    3.250269   4.264224   2.860427   3.886557   3.086853
    23  H    3.277003   4.297120   4.641649   5.406393   4.917784
    24  Br   5.736274   6.657984   6.329981   7.029401   6.997977
                   11         12         13         14         15
    11  C    0.000000
    12  H    1.093917   0.000000
    13  H    1.097327   1.787189   0.000000
    14  C    1.517744   2.164509   2.132262   0.000000
    15  O    2.422226   2.677833   2.873019   1.219925   0.000000
    16  H    5.749927   6.693492   6.059195   5.414036   6.405277
    17  H    3.140093   3.760881   3.933055   2.129431   2.793434
    18  H    4.674980   5.563266   5.007681   3.509776   3.944348
    19  C    4.045103   4.986151   3.915279   3.045478   3.327181
    20  O    3.580174   4.487371   3.159845   2.906696   3.177902
    21  N    3.077316   4.147138   2.969225   3.184735   4.278086
    22  H    2.892943   3.964461   2.480273   2.981507   3.923106
    23  H    5.110211   6.200147   4.959355   4.747589   5.609061
    24  Br   5.927069   6.838743   5.743454   4.846364   4.894363
                   16         17         18         19         20
    16  H    0.000000
    17  H    4.100740   0.000000
    18  H    3.496369   2.426613   0.000000
    19  C    4.746091   3.430524   2.191593   0.000000
    20  O    5.436888   3.979002   3.308639   1.217906   0.000000
    21  N    3.324409   3.404096   3.458145   3.035117   2.967185
    22  H    4.220553   3.750601   3.667266   2.590001   2.170073
    23  H    2.678591   4.403990   3.096485   2.990823   3.437075
    24  Br   5.546688   4.918996   2.924222   1.890586   2.684055
                   21         22         23         24
    21  N    0.000000
    22  H    1.023727   0.000000
    23  H    2.213962   2.543056   0.000000
    24  Br   4.606283   4.207086   3.663063   0.000000
 Stoichiometry    C10H10BrNO2
 Framework group  C1[X(C10H10BrNO2)]
 Deg. of freedom    66
 Full point group                 C1      NOp   1
 Largest Abelian subgroup         C1      NOp   1
 Largest concise Abelian subgroup C1      NOp   1
                         Standard orientation:                         
 ---------------------------------------------------------------------
 Center     Atomic      Atomic             Coordinates (Angstroms)
 Number     Number       Type             X           Y           Z
 ---------------------------------------------------------------------
      1          6           0        0.460575    1.981299    0.535531
      2          6           0       -0.284955    0.200529   -0.808489
      3          6           0        2.125227    0.603487    0.058431
      4          6           0        1.106849   -0.332194   -0.933911
      5          6           0        1.293347    2.688345   -0.408648
      6          6           0        2.346935    1.893720   -0.666792
      7          1           0        3.146385    2.099459   -1.366213
      8          6           0        3.258370   -0.345385    0.390304
      9          1           0        3.959020   -0.398946   -0.454392
     10          1           0        3.827329   -0.031328    1.272487
     11          6           0        2.585122   -1.703241    0.589226
     12          1           0        3.273726   -2.536579    0.421815
     13          1           0        2.147905   -1.790004    1.591942
     14          6           0        1.454739   -1.722936   -0.423391
     15          8           0        0.910284   -2.739793   -0.820616
     16          1           0        1.079633    3.663244   -0.823575
     17          1           0        1.474400   -0.255274   -1.966135
     18          1           0       -0.701725    0.766513   -1.636169
     19          6           0       -1.211653   -0.373974    0.164481
     20          8           0       -0.881559   -1.007377    1.150956
     21          7           0        1.283634    1.021181    1.183807
     22          1           0        0.783478    0.279322    1.681307
     23          1           0       -0.439303    2.396994    0.983160
     24         35           0       -3.044955    0.037080   -0.046115
 ---------------------------------------------------------------------
 Rotational constants (GHZ):           0.9208757           0.3746473           0.3000583
 Standard basis: STO-3G (5D, 7F)
 There are    94 symmetry adapted cartesian basis functions of A   symmetry.
 There are    93 symmetry adapted basis functions of A   symmetry.
    93 basis functions,   282 primitive gaussians,    94 cartesian basis functions
    64 alpha electrons       64 beta electrons
       nuclear repulsion energy      1229.0456514344 Hartrees.
 NAtoms=   24 NActive=   24 NUniq=   24 SFac= 1.00D+00 NAtFMM=   60 NAOKFM=F Big=F
 Integral buffers will be    131072 words long.
 Raffenetti 1 integral format.
 Two-electron integral symmetry is turned on.
 External calculation of energy, first and second derivatives.
 Running external command "~/scripts/MiMe -H 'am1' -EF 'wb97xd def2svp' -c 12 -m 48GB R"
         input file       "/local/jobs/1176104/Gau-3202332.EIn"
         output file      "/local/jobs/1176104/Gau-3202332.EOu"
         message file     "/local/jobs/1176104/Gau-3202332.EMs"
         fchk file        "/local/jobs/1176104/Gau-3202332.EFC"
         mat. el file     "/local/jobs/1176104/Gau-3202332.EUF"
 Read checkpoint file Gau-3202332_H.chk type G16
 Write formatted file Gau-3202332_H.fchk

deriv: 2

spelevel: wb97xd def2svp
gradlevel: wb97xd def2svp
hesslevel: am1

runspe: False
runforce: True
runfreq: True

Running Gaussian ...

Parsing files ...
SPE file: Gau-3202332_F.out
FORCE file: Gau-3202332_F.out
HESS file: Gau-3202332_H.out

 ExternalExternalExternalExternalExternalExternalExternalExternalExternalExternal
 Output from external command:
 "~/scripts/MiMe -H 'am1' -EF 'wb97xd def2svp' -c 12 -m 48GB R /local/jobs/1176104/Gau-3202332.EIn /local/jobs/1176104/Gau-3202332.EOu /local/jobs/1176104/Gau-3202332.EMs /local/jobs/1176104/Gau-3202332.EFC /local/jobs/1176104/Gau-3202332.EUF"
  
 --------------------------------------------------
 Force calculation at wb97xd def2svp
 Hessian calculation at am1
 ExternalExternalExternalExternalExternalExternalExternalExternalExternalExternal

 Recovered energy= -3165.49936850     dipole=      4.433100000000      4.565300000000     -0.708300000000
 Energy=    -3165.49937     NIter=   0.
 Dipole moment=       4.433100       4.565300      -0.708300
 ***** Axes restored to original set *****
 -------------------------------------------------------------------
 Center     Atomic                   Forces (Hartrees/Bohr)
 Number     Number              X              Y              Z
 -------------------------------------------------------------------
      1        6          -0.017154304    0.029783138    0.014866178
      2        6          -0.006375597   -0.003436194    0.004877772
      3        6          -0.001681122   -0.013713849    0.003630130
      4        6           0.013987922   -0.018595225    0.016134447
      5        6           0.006731089    0.005996107    0.004374575
      6        6          -0.000188284    0.014226487    0.006224294
      7        1          -0.005057789    0.002045773   -0.003855171
      8        6           0.000057121    0.003644782    0.005320836
      9        1           0.000097384   -0.001577150   -0.001927712
     10        1          -0.000253552   -0.003344903    0.000561252
     11        6          -0.003858115   -0.007683176   -0.008347128
     12        1           0.001566842    0.005133215    0.001891403
     13        1           0.001252166    0.002260446    0.002427003
     14        6           0.018197123    0.041742857   -0.008037689
     15        8          -0.012378107   -0.027721831    0.007980223
     16        1           0.003424637   -0.003443391   -0.003575370
     17        1           0.000112482   -0.000721556   -0.000260822
     18        1           0.002058442    0.003825958   -0.004424770
     19        6          -0.038518041    0.001253921    0.012645774
     20        8          -0.000181380   -0.007348448   -0.013082303
     21        7           0.017362679   -0.019899534   -0.034429235
     22        1           0.001193694   -0.000397143   -0.002343904
     23        1           0.000547152    0.002818658    0.005762611
     24       35           0.019057554   -0.004848940   -0.006412393
 -------------------------------------------------------------------
 Cartesian Forces:  Max     0.041742857 RMS     0.012103160

 GradGradGradGradGradGradGradGradGradGradGradGradGradGradGradGradGradGrad
 Berny optimization.
 Search for a saddle point.
 Step number   3 out of a maximum of   50
 All quantities printed in internal units (Hartrees-Bohrs-Radians)
 Swapping is turned off.
 Second derivative matrix not updated -- analytic derivatives used.
 ITU=  0  0  0
     Eigenvalues ---   -0.04003  -0.00759  -0.00146  -0.00074   0.00129
     Eigenvalues ---    0.00503   0.00587   0.00625   0.01432   0.01803
     Eigenvalues ---    0.01927   0.02352   0.02668   0.03075   0.03340
     Eigenvalues ---    0.03463   0.03978   0.04458   0.04807   0.04848
     Eigenvalues ---    0.05034   0.05510   0.05555   0.05929   0.06554
     Eigenvalues ---    0.07805   0.07991   0.09964   0.11096   0.11958
     Eigenvalues ---    0.12497   0.14936   0.16045   0.16198   0.16755
     Eigenvalues ---    0.18962   0.19701   0.23366   0.24045   0.25496
     Eigenvalues ---    0.26120   0.29578   0.31221   0.33868   0.38631
     Eigenvalues ---    0.43218   0.48957   0.54433   0.61883   0.67447
     Eigenvalues ---    0.75049   0.76087   0.78668   0.80924   0.85732
     Eigenvalues ---    0.86925   0.89894   0.90836   0.97124   1.03376
     Eigenvalues ---    1.07462   1.11487   1.26056   1.65633   2.21085
     Eigenvalues ---    2.32161
 Eigenvectors required to have negative eigenvalues:
                          Y2        Y1        Z1        Z2        X1
   1                    0.48405  -0.42708   0.34790  -0.28953  -0.23690
                          Y4        X4        Z4        Y3        Z23
   1                    0.19103   0.18647  -0.18085  -0.13816   0.12917
 RFO step:  Lambda0=4.114656974D-04 Lambda=-1.75877624D-02.
 Linear search not attempted -- option 19 set.
 Maximum step size (   0.100) exceeded in Quadratic search.
    -- Step size scaled by   0.166
 B after Tr=    -0.001709   -0.000326   -0.003106
         Rot=    1.000000    0.000244   -0.000358   -0.000185 Ang=   0.05 deg.
 Variable       Old X    -DE/DX   Delta X   Delta X   Delta X     New X
                                 (Linear)    (Quad)   (Total)
    X1       -0.50374  -0.01715   0.00000  -0.00676  -0.00640  -0.51014
    Y1       -3.67414   0.02978   0.00000   0.00221   0.00218  -3.67196
    Z1        0.97229   0.01487   0.00000   0.01795   0.01700   0.98929
    X2        0.61274  -0.00638   0.00000  -0.00135  -0.00408   0.60865
    Y2       -0.16281  -0.00344   0.00000  -0.00020  -0.00104  -0.16385
    Z2       -1.51448   0.00488   0.00000  -0.00393  -0.00739  -1.52187
    X3       -3.86429  -0.00168   0.00000  -0.00759  -0.00873  -3.87301
    Y3       -1.34892  -0.01371   0.00000  -0.00624  -0.00795  -1.35688
    Z3        0.08469   0.00363   0.00000   0.00564   0.00597   0.09066
    X4       -2.09538   0.01399   0.00000   0.00660   0.00342  -2.09196
    Y4        0.60882  -0.01860   0.00000  -0.00560  -0.00756   0.60126
    Z4       -1.75509   0.01613   0.00000   0.00443   0.00252  -1.75257
    X5       -1.94286   0.00673   0.00000   0.00873   0.00832  -1.93454
    Y5       -5.12080   0.00600   0.00000   0.00735   0.00590  -5.11490
    Z5       -0.83919   0.00437   0.00000   0.00244   0.00321  -0.83597
    X6       -4.05720  -0.00019   0.00000   0.00374   0.00250  -4.05470
    Y6       -3.79595   0.01423   0.00000   0.00422   0.00174  -3.79421
    Z6       -1.32007   0.00622   0.00000  -0.00119   0.00046  -1.31961
    X7       -5.52042  -0.00506   0.00000   0.00717   0.00515  -5.51527
    Y7       -4.29978   0.00205   0.00000   0.01067   0.00700  -4.29278
    Z7       -2.65632  -0.00386   0.00000  -0.01107  -0.00813  -2.66446
    X8       -6.16011   0.00006   0.00000  -0.00075  -0.00203  -6.16215
    Y8        0.23774   0.00364   0.00000   0.00582   0.00356   0.24131
    Z8        0.72150   0.00532   0.00000  -0.00051   0.00068   0.72218
    X9       -7.47962   0.00010   0.00000   0.00979   0.00736  -7.47226
    Y9        0.24227  -0.00158   0.00000   0.01059   0.00706   0.24932
    Z9       -0.88168  -0.00193   0.00000  -0.01060  -0.00848  -0.89017
   X10       -7.18674  -0.00025   0.00000  -0.01177  -0.01161  -7.19835
   Y10       -0.47164  -0.00334   0.00000   0.00113  -0.00071  -0.47235
   Z10        2.37384   0.00056   0.00000  -0.00896  -0.00669   2.36715
   X11       -5.12356  -0.00386   0.00000   0.01049   0.00852  -5.11503
   Y11        2.90148  -0.00768   0.00000  -0.00067  -0.00233   2.89915
   Z11        1.13889  -0.00835   0.00000   0.00222   0.00136   1.14025
   X12       -6.55834   0.00157   0.00000   0.02202   0.01931  -6.53903
   Y12        4.35828   0.00513   0.00000   0.01679   0.01446   4.37274
   Z12        0.83479   0.00189   0.00000   0.02647   0.02591   0.86070
   X13       -4.32506   0.00125   0.00000   0.02455   0.02387  -4.30119
   Y13        3.11268   0.00226   0.00000  -0.01220  -0.01264   3.10004
   Z13        3.04094   0.00243   0.00000   0.00003  -0.00151   3.03943
   X14       -2.98938   0.01820   0.00000   0.00649   0.00306  -2.98632
   Y14        3.15466   0.04174   0.00000   0.00292   0.00111   3.15577
   Z14       -0.76040  -0.00804   0.00000  -0.00367  -0.00618  -0.76658
   X15       -2.13197  -0.01238   0.00000  -0.00848  -0.01318  -2.14516
   Y15        5.17021  -0.02772   0.00000  -0.00334  -0.00519   5.16502
   Z15       -1.47939   0.00798   0.00000  -0.02275  -0.02684  -1.50623
   X16       -1.37237   0.00342   0.00000   0.01859   0.01826  -1.35412
   Y16       -6.90902  -0.00344   0.00000   0.01247   0.01084  -6.89818
   Z16       -1.64463  -0.00358   0.00000  -0.00735  -0.00613  -1.65076
   X17       -2.76412   0.00011   0.00000  -0.00040  -0.00491  -2.76904
   Y17        0.42862  -0.00072   0.00000  -0.00793  -0.01109   0.41754
   Z17       -3.71182  -0.00026   0.00000   0.00599   0.00466  -3.70716
   X18        1.50059   0.00206   0.00000   0.00779   0.00428   1.50487
   Y18       -1.13671   0.00383   0.00000   0.01844   0.01716  -1.11955
   Z18       -3.08732  -0.00442   0.00000  -0.01157  -0.01521  -3.10253
   X19        2.25068  -0.03852   0.00000  -0.01913  -0.02097   2.22971
   Y19        1.04946   0.00125   0.00000  -0.01280  -0.01212   1.03734
   Z19        0.34926   0.01265   0.00000   0.00891   0.00370   0.35296
   X20        1.51306  -0.00018   0.00000  -0.01464  -0.01553   1.49753
   Y20        2.16077  -0.00735   0.00000  -0.03552  -0.03419   2.12658
   Z20        2.22486  -0.01308   0.00000   0.02115   0.01593   2.24079
   X21       -2.22092   0.01736   0.00000  -0.00016   0.00046  -2.22047
   Y21       -2.02223  -0.01990   0.00000   0.00026   0.00019  -2.02204
   Z21        2.21096  -0.03443   0.00000  -0.00615  -0.00669   2.20427
   X22       -1.40934   0.00119   0.00000  -0.00931  -0.00854  -1.41788
   Y22       -0.55459  -0.00040   0.00000  -0.00120  -0.00050  -0.55509
   Z22        3.17527  -0.00234   0.00000   0.00435   0.00253   3.17781
   X23        1.25562   0.00055   0.00000  -0.00856  -0.00734   1.24827
   Y23       -4.31653   0.00282   0.00000   0.01183   0.01287  -4.30366
   Z23        1.81868   0.00576   0.00000   0.03185   0.02995   1.84864
   X24        5.77257   0.01906   0.00000   0.00081  -0.00116   5.77141
   Y24        0.58970  -0.00485   0.00000   0.00946   0.01125   0.60095
   Z24       -0.03673  -0.00641   0.00000  -0.01309  -0.02062  -0.05735
         Item               Value     Threshold  Converged?
 Maximum Force            0.041743     0.000450     NO 
 RMS     Force            0.012103     0.000300     NO 
 Maximum Displacement     0.034194     0.001800     NO 
 RMS     Displacement     0.011542     0.001200     NO 
 Predicted change in Energy=-2.714323D-03
 GradGradGradGradGradGradGradGradGradGradGradGradGradGradGradGradGradGrad

                          Input orientation:                          
 ---------------------------------------------------------------------
 Center     Atomic      Atomic             Coordinates (Angstroms)
 Number     Number       Type             X           Y           Z
 ---------------------------------------------------------------------
      1          6           0       -0.269956   -1.943119    0.523507
      2          6           0        0.322085   -0.086705   -0.805339
      3          6           0       -2.049510   -0.718028    0.047973
      4          6           0       -1.107018    0.318174   -0.927420
      5          6           0       -1.023716   -2.706686   -0.442378
      6          6           0       -2.145656   -2.007807   -0.698308
      7          1           0       -2.918555   -2.271642   -1.409969
      8          6           0       -3.260868    0.127693    0.382160
      9          1           0       -3.954150    0.131937   -0.471055
     10          1           0       -3.809204   -0.249955    1.252641
     11          6           0       -2.706759    1.534162    0.603394
     12          1           0       -3.460305    2.313956    0.455462
     13          1           0       -2.276090    1.640472    1.608400
     14          6           0       -1.580290    1.669964   -0.405658
     15          8           0       -1.135167    2.733208   -0.797062
     16          1           0       -0.716567   -3.650361   -0.873542
     17          1           0       -1.465311    0.220950   -1.961747
     18          1           0        0.796343   -0.592440   -1.641790
     19          6           0        1.179914    0.548938    0.186779
     20          8           0        0.792457    1.125336    1.185774
     21          7           0       -1.175020   -1.070017    1.166450
     22          1           0       -0.750312   -0.293742    1.681622
     23          1           0        0.660557   -2.277398    0.978257
     24         35           0        3.054099    0.318009   -0.030351
 ---------------------------------------------------------------------
                    Distance matrix (angstroms):
                    1          2          3          4          5
     1  C    0.000000
     2  C    2.358520   0.000000
     3  C    2.212192   2.598303   0.000000
     4  C    2.814126   1.490358   1.706867   0.000000
     5  C    1.443649   2.967697   2.290733   3.064634   0.000000
     6  C    2.239479   3.129191   1.493221   2.557625   1.346359
     7  H    3.295654   3.954905   2.300989   3.197134   2.171615
     8  C    3.640576   3.780697   1.514698   2.527914   3.703838
     9  H    4.343766   4.294851   2.149299   2.889483   4.079957
    10  H    3.990578   4.618385   2.183309   3.518130   4.082592
    11  C    4.246866   3.712902   2.410981   2.526102   4.680926
    12  H    5.320305   4.653952   3.368875   3.381341   5.652427
    13  H    4.247786   3.944590   2.837039   3.089592   4.967082
    14  C    3.954073   2.620050   2.475572   1.524322   4.412050
    15  O    4.935638   3.174203   3.668942   2.418714   5.452584
    16  H    2.250752   3.712559   3.350300   3.988060   1.082020
    17  H    3.505504   2.150980   2.293893   1.098935   3.327844
    18  H    2.765834   1.086434   3.312092   2.227629   3.036650
    19  C    2.902732   1.457467   3.471836   2.554359   3.981320
    20  O    3.314020   2.377987   3.573424   2.953829   4.542439
    21  N    1.412382   2.663865   1.462744   2.513163   2.299979
    22  H    2.071814   2.716225   2.129963   2.703476   3.226209
    23  H    1.088299   2.845157   3.262136   3.673271   2.244831
    24  Br   4.058176   2.868501   5.208294   4.256716   5.093831
                    6          7          8          9         10
     6  C    0.000000
     7  H    1.083256   0.000000
     8  C    2.640353   3.014252   0.000000
     9  H    2.810836   2.780506   1.099380   0.000000
    10  H    3.108639   3.459764   1.095914   1.771434   0.000000
    11  C    3.815076   4.310758   1.527788   2.162559   2.195445
    12  H    4.662309   4.980064   2.196564   2.421472   2.707557
    13  H    4.318315   4.982765   2.182189   3.068500   2.459820
    14  C    3.732463   4.282038   2.413213   2.829314   3.376996
    15  O    4.848512   5.348332   3.563408   3.849618   4.500113
    16  H    2.184259   2.652804   4.724823   4.994970   5.064368
    17  H    2.650756   2.937583   2.954085   2.902483   4.005980
    18  H    3.398350   4.083372   4.590853   4.945961   5.450330
    19  C    4.287160   5.225200   4.464992   5.192807   5.163873
    20  O    4.690294   5.661179   4.250944   5.124666   4.803246
    21  N    2.301935   3.334929   2.529897   3.442337   2.760227
    22  H    3.247933   4.262781   2.858163   3.883272   3.089136
    23  H    3.279998   4.302755   4.638682   5.403789   4.915748
    24  Br   5.735245   6.654489   6.331286   7.024557   7.005253
                   11         12         13         14         15
    11  C    0.000000
    12  H    1.094438   0.000000
    13  H    1.098551   1.784716   0.000000
    14  C    1.518408   2.165805   2.131065   0.000000
    15  O    2.422579   2.674108   2.877850   1.217300   0.000000
    16  H    5.746433   6.698316   6.048559   5.410249   6.397737
    17  H    3.137781   3.768763   3.926621   2.129383   2.788714
    18  H    4.672796   5.564590   4.998948   3.506406   3.937542
    19  C    4.031186   4.971831   3.893124   3.037500   3.331453
    20  O    3.570829   4.475729   3.140057   2.908471   3.198847
    21  N    3.073273   4.144792   2.958787   3.184849   4.280361
    22  H    2.886433   3.955707   2.464659   2.983579   3.931210
    23  H    5.099739   6.191555   4.936667   4.745344   5.610932
    24  Br   5.921836   6.830613   5.731084   4.842127   4.896017
                   16         17         18         19         20
    16  H    0.000000
    17  H    4.090460   0.000000
    18  H    3.497139   2.424677   0.000000
    19  C    4.728111   3.423588   2.189415   0.000000
    20  O    5.415277   3.977727   3.308457   1.216695   0.000000
    21  N    3.321133   3.396540   3.464183   3.021006   2.948035
    22  H    4.218637   3.748369   3.677830   2.582719   2.154016
    23  H    2.685267   4.405075   3.118039   2.980662   3.411607
    24  Br   5.538669   4.915768   2.919437   1.900801   2.691795
                   21         22         23         24
    21  N    0.000000
    22  H    1.023905   0.000000
    23  H    2.205115   2.533805   0.000000
    24  Br   4.609164   4.216472   3.671848   0.000000
 Stoichiometry    C10H10BrNO2
 Framework group  C1[X(C10H10BrNO2)]
 Deg. of freedom    66
 Full point group                 C1      NOp   1
 Largest Abelian subgroup         C1      NOp   1
 Largest concise Abelian subgroup C1      NOp   1
                         Standard orientation:                         
 ---------------------------------------------------------------------
 Center     Atomic      Atomic             Coordinates (Angstroms)
 Number     Number       Type             X           Y           Z
 ---------------------------------------------------------------------
      1          6           0        0.464956    1.981145    0.540865
      2          6           0       -0.285563    0.199007   -0.809440
      3          6           0        2.129406    0.606095    0.058538
      4          6           0        1.101945   -0.331310   -0.930904
      5          6           0        1.288395    2.683720   -0.414363
      6          6           0        2.344173    1.889550   -0.673806
      7          1           0        3.140712    2.090134   -1.380016
      8          6           0        3.258498   -0.348346    0.387936
      9          1           0        3.952295   -0.406155   -0.462911
     10          1           0        3.834739   -0.030337    1.264203
     11          6           0        2.579425   -1.701549    0.592478
     12          1           0        3.260567   -2.544318    0.438920
     13          1           0        2.136598   -1.778968    1.594837
     14          6           0        1.449700   -1.725375   -0.421779
     15          8           0        0.912636   -2.740315   -0.825856
     16          1           0        1.069065    3.655500   -0.836623
[...]
 IR Inten    --      0.0000                 0.0000                 0.0000
  Atom  AN      X      Y      Z        X      Y      Z        X      Y      Z
     1   6     0.03  -0.02   0.04    -0.00   0.00  -0.00    -0.00  -0.00   0.00
     2   6     0.03   0.02  -0.09    -0.01  -0.00   0.01     0.00  -0.00  -0.00
     3   6     0.00  -0.01  -0.00     0.00  -0.03  -0.00    -0.00   0.00   0.00
     4   6     0.02   0.00   0.01     0.00  -0.02   0.01    -0.00   0.00  -0.00
     5   6     0.00   0.00  -0.01    -0.00   0.00   0.00     0.00   0.00  -0.00
     6   6    -0.00   0.00  -0.00     0.00   0.00  -0.00    -0.00   0.00  -0.00
     7   1    -0.00   0.00   0.00     0.00  -0.00  -0.00    -0.00   0.00   0.00
     8   6    -0.00  -0.00  -0.00    -0.02  -0.02  -0.01    -0.01   0.01   0.03
     9   1     0.00   0.00  -0.00    -0.00   0.00   0.00     0.23   0.00  -0.26
    10   1    -0.00  -0.00  -0.00    -0.02  -0.01  -0.02    -0.12  -0.07  -0.18
    11   6    -0.00   0.00  -0.00    -0.02  -0.01  -0.03     0.05  -0.02  -0.06
    12   1     0.00   0.00  -0.00     0.05   0.03   0.01    -0.29   0.33   0.03
    13   1    -0.01   0.00  -0.01    -0.04   0.03   0.03    -0.30  -0.10   0.72
    14   6     0.02   0.04   0.02     0.33   0.69   0.29    -0.00  -0.00  -0.00
    15   8    -0.01  -0.03  -0.01    -0.21  -0.48  -0.19     0.00   0.00   0.00
    16   1     0.01   0.01  -0.00    -0.00   0.00  -0.00     0.00  -0.00   0.00
    17   1    -0.03   0.01  -0.02     0.04   0.02  -0.01     0.00   0.00  -0.00
    18   1     0.17   0.05  -0.08    -0.02   0.00   0.01    -0.00   0.00  -0.00
    19   6     0.15  -0.37   0.68    -0.01   0.03  -0.05     0.00  -0.00   0.00
    20   8    -0.16   0.26  -0.45     0.01  -0.02   0.03    -0.00   0.00  -0.00
    21   7    -0.03   0.01  -0.00    -0.00   0.00   0.00     0.00  -0.00   0.00
    22   1    -0.04   0.05  -0.14     0.01  -0.02   0.00     0.00   0.01  -0.01
    23   1     0.01  -0.02  -0.02    -0.00   0.00   0.00     0.00  -0.00  -0.00
    24  35     0.00  -0.00   0.00    -0.00   0.00  -0.00     0.00  -0.00  -0.00
                     58                     59                     60
                      A                      A                      A
 Frequencies --   3180.9765              3191.6192              3208.6135
 Red. masses --      1.0959                 1.0736                 1.0727
 Frc consts  --      6.5335                 6.4434                 6.5065
 IR Inten    --      0.0000                 0.0000                 0.0000
  Atom  AN      X      Y      Z        X      Y      Z        X      Y      Z
     1   6     0.00  -0.00   0.00     0.00  -0.00  -0.00     0.01  -0.01  -0.00
     2   6    -0.00   0.00   0.00     0.00  -0.00   0.00    -0.00  -0.00   0.00
     3   6     0.00  -0.00  -0.00    -0.00  -0.00  -0.00    -0.00  -0.00   0.00
     4   6    -0.00  -0.00   0.00     0.03   0.01  -0.07    -0.00   0.00   0.00
     5   6    -0.00   0.00  -0.00     0.00  -0.00   0.00     0.00  -0.00  -0.00
     6   6    -0.00  -0.00   0.00    -0.00  -0.00   0.00    -0.00   0.00   0.00
     7   1     0.00   0.00  -0.00     0.00   0.00  -0.00     0.02   0.01  -0.02
     8   6     0.01  -0.01  -0.08     0.00  -0.00  -0.00    -0.00   0.00   0.00
     9   1    -0.47  -0.02   0.53    -0.01  -0.00   0.01     0.00  -0.00  -0.01
    10   1     0.29   0.19   0.44     0.01   0.01   0.02    -0.00  -0.00  -0.00
    11   6     0.02  -0.01  -0.03     0.00  -0.00  -0.00    -0.00   0.00   0.00
    12   1    -0.14   0.17   0.02    -0.00   0.00   0.00     0.01  -0.01  -0.00
    13   1    -0.13  -0.05   0.31    -0.01  -0.00   0.01     0.00   0.00  -0.01
    14   6     0.00  -0.00  -0.00    -0.00   0.00  -0.00    -0.00   0.00  -0.00
    15   8     0.00   0.00   0.00    -0.00  -0.00  -0.00    -0.00  -0.00   0.00
    16   1    -0.00   0.00  -0.00    -0.00   0.00  -0.00    -0.01   0.02  -0.01
    17   1     0.01   0.00  -0.03    -0.36  -0.09   0.92     0.01   0.00  -0.02
    18   1     0.00  -0.00   0.00    -0.02   0.02  -0.04    -0.01   0.01  -0.01
    19   6     0.00   0.00  -0.00    -0.00  -0.00   0.00    -0.00   0.00  -0.01
    20   8    -0.00   0.00  -0.00    -0.00  -0.00   0.00     0.00  -0.00   0.00
    21   7    -0.00  -0.00   0.00    -0.00  -0.00   0.00    -0.03  -0.05   0.04
    22   1     0.00   0.01  -0.01     0.01   0.01  -0.01     0.35   0.73  -0.57
    23   1    -0.00   0.00   0.00    -0.01   0.00   0.00    -0.11   0.03   0.06
    24  35     0.00  -0.00   0.00    -0.00  -0.00  -0.00     0.00  -0.00   0.00
                     61                     62                     63
                      A                      A                      A
 Frequencies --   3238.9772              3248.8302              3253.7045
 Red. masses --      1.0889                 1.0510                 1.0529
 Frc consts  --      6.7304                 6.5357                 6.5677
 IR Inten    --      0.0000                 0.0000                 0.0000
  Atom  AN      X      Y      Z        X      Y      Z        X      Y      Z
     1   6    -0.07   0.02   0.04    -0.00   0.00   0.00     0.00  -0.00  -0.00
     2   6     0.00  -0.00   0.00     0.00  -0.00   0.00     0.00  -0.00   0.00
     3   6     0.00  -0.00  -0.00     0.00  -0.00   0.00    -0.00   0.00  -0.00
     4   6     0.00  -0.00   0.00    -0.00   0.00  -0.00     0.00   0.00  -0.00
     5   6     0.00  -0.00   0.00     0.00  -0.00   0.00     0.00  -0.00   0.00
     6   6    -0.01  -0.00   0.01    -0.00  -0.00   0.00     0.00   0.00  -0.00
     7   1     0.09   0.02  -0.09     0.02   0.00  -0.02    -0.02  -0.01   0.02
     8   6    -0.00  -0.00  -0.00     0.03   0.01   0.01    -0.05  -0.02  -0.01
     9   1     0.01   0.00  -0.01    -0.22  -0.00   0.29     0.30   0.00  -0.39
    10   1     0.01   0.01   0.02    -0.23  -0.16  -0.41     0.28   0.20   0.50
    11   6    -0.00   0.00  -0.00     0.02  -0.04   0.02     0.01  -0.03   0.02
    12   1     0.01  -0.02  -0.00    -0.46   0.50   0.10    -0.35   0.38   0.08
    13   1    -0.00  -0.00   0.01     0.16   0.02  -0.34     0.14   0.03  -0.30
    14   6    -0.00   0.00  -0.00     0.00  -0.00   0.00     0.00   0.00   0.00
    15   8    -0.00  -0.00   0.00    -0.00  -0.00  -0.00    -0.00  -0.00  -0.00
    16   1    -0.03   0.06  -0.03    -0.00   0.01  -0.00    -0.00   0.00  -0.00
    17   1    -0.00  -0.00   0.00    -0.00   0.00   0.00     0.00   0.00   0.00
    18   1    -0.02   0.02  -0.04    -0.01   0.01  -0.01    -0.00   0.00  -0.00
    19   6     0.00   0.00  -0.00     0.00   0.00  -0.00     0.00   0.00  -0.00
    20   8     0.00  -0.00   0.00     0.00  -0.00   0.00     0.00  -0.00   0.00
    21   7    -0.00  -0.01   0.01    -0.00  -0.00   0.00     0.00  -0.00   0.00
    22   1     0.04   0.09  -0.07     0.00   0.01  -0.01     0.00   0.00  -0.00
    23   1     0.83  -0.25  -0.45     0.02  -0.01  -0.01    -0.00   0.00   0.00
    24  35    -0.00   0.00   0.00    -0.00  -0.00   0.00    -0.00  -0.00   0.00
                     64                     65                     66
                      A                      A                      A
 Frequencies --   3257.4882              3263.0476              3277.6982
 Red. masses --      1.0847                 1.0803                 1.0944
 Frc consts  --      6.7817                 6.7769                 6.9275
 IR Inten    --      0.0000                 0.0000                 0.0000
  Atom  AN      X      Y      Z        X      Y      Z        X      Y      Z
     1   6    -0.01   0.00   0.00    -0.00   0.00   0.00     0.01  -0.00  -0.00
     2   6     0.00  -0.00   0.01    -0.03   0.03  -0.06     0.00  -0.00   0.00
     3   6     0.00  -0.00  -0.00     0.00   0.00   0.00    -0.00   0.00   0.00
     4   6     0.00  -0.00   0.00     0.00   0.00  -0.01    -0.00   0.00   0.00
     5   6     0.01  -0.02   0.01     0.00  -0.01   0.00     0.03  -0.07   0.04
     6   6     0.06   0.01  -0.06     0.00   0.00  -0.00    -0.02  -0.00   0.02
     7   1    -0.64  -0.18   0.66    -0.04  -0.01   0.05     0.21   0.06  -0.22
     8   6     0.00   0.00   0.00     0.00   0.00   0.00    -0.00  -0.00  -0.00
     9   1    -0.02   0.00   0.02    -0.00  -0.00   0.00     0.01  -0.00  -0.01
    10   1    -0.01  -0.01  -0.02    -0.00  -0.00  -0.01     0.01   0.00   0.01
    11   6     0.00   0.00  -0.00     0.00  -0.00   0.00    -0.00   0.00  -0.00
    12   1     0.00  -0.00  -0.00    -0.01   0.01   0.00     0.00  -0.00  -0.00
    13   1    -0.00  -0.00   0.00     0.00   0.00  -0.01    -0.00  -0.00   0.00
    14   6    -0.00   0.00  -0.00     0.00  -0.00   0.00    -0.00  -0.00   0.00
    15   8     0.00  -0.00   0.00    -0.00  -0.00  -0.00     0.00   0.00   0.00
    16   1    -0.11   0.26  -0.14    -0.03   0.08  -0.04    -0.34   0.77  -0.42
    17   1     0.00   0.00  -0.00    -0.02  -0.00   0.05     0.00   0.00  -0.01
    18   1    -0.04   0.04  -0.08     0.43  -0.41   0.79    -0.03   0.03  -0.05
    19   6     0.00   0.00  -0.00    -0.00   0.00  -0.00    -0.00  -0.00   0.00
    20   8     0.00  -0.00   0.00     0.00  -0.00   0.00    -0.00   0.00  -0.00
    21   7    -0.00  -0.00   0.00     0.00  -0.00   0.00     0.00   0.00  -0.00
    22   1     0.01   0.02  -0.02     0.01   0.02  -0.01    -0.02  -0.03   0.03
    23   1     0.07  -0.02  -0.04     0.04  -0.01  -0.02    -0.09   0.03   0.05
    24  35    -0.00  -0.00  -0.00     0.00   0.00  -0.00     0.00  -0.00   0.00

 -------------------
 - Thermochemistry -
 -------------------
 Temperature   298.150 Kelvin.  Pressure   1.00000 Atm.
 Atom     1 has atomic number  6 and mass  12.00000
 Atom     2 has atomic number  6 and mass  12.00000
 Atom     3 has atomic number  6 and mass  12.00000
 Atom     4 has atomic number  6 and mass  12.00000
 Atom     5 has atomic number  6 and mass  12.00000
 Atom     6 has atomic number  6 and mass  12.00000
 Atom     7 has atomic number  1 and mass   1.00783
 Atom     8 has atomic number  6 and mass  12.00000
 Atom     9 has atomic number  1 and mass   1.00783
 Atom    10 has atomic number  1 and mass   1.00783
 Atom    11 has atomic number  6 and mass  12.00000
 Atom    12 has atomic number  1 and mass   1.00783
 Atom    13 has atomic number  1 and mass   1.00783
 Atom    14 has atomic number  6 and mass  12.00000
 Atom    15 has atomic number  8 and mass  15.99491
 Atom    16 has atomic number  1 and mass   1.00783
 Atom    17 has atomic number  1 and mass   1.00783
 Atom    18 has atomic number  1 and mass   1.00783
 Atom    19 has atomic number  6 and mass  12.00000
 Atom    20 has atomic number  8 and mass  15.99491
 Atom    21 has atomic number  7 and mass  14.00307
 Atom    22 has atomic number  1 and mass   1.00783
 Atom    23 has atomic number  1 and mass   1.00783
 Atom    24 has atomic number 35 and mass  78.91834
 Molecular mass:   254.98949 amu.
 Principal axes and moments of inertia in atomic units:
                           1         2         3
     Eigenvalues --  1922.338564714.252985845.57688
           X            0.99997  -0.00711   0.00141
           Y            0.00714   0.99968  -0.02416
           Z           -0.00124   0.02417   0.99971
 This molecule is an asymmetric top.
 Rotational symmetry number  1.
 Warning -- assumption of classical behavior for rotation
           may cause significant error
 Rotational temperatures (Kelvin)      0.04506     0.01837     0.01482
 Rotational constants (GHZ):           0.93883     0.38283     0.30874
    4 imaginary frequencies ignored.
 Zero-point vibrational energy     493754.9 (Joules/Mol)
                                  118.01025 (Kcal/Mol)
 Warning -- explicit consideration of  15 degrees of freedom as
           vibrations may cause significant error
 Vibrational temperatures:     33.47   211.53   265.99   304.82   347.05
          (Kelvin)            410.73   466.91   548.80   592.80   631.88
                              715.97   752.67   803.81   848.05   891.48
                              973.72  1055.06  1131.06  1153.09  1222.56
                             1235.68  1264.45  1291.07  1352.54  1391.33
                             1431.71  1454.73  1493.96  1519.48  1539.00
                             1590.28  1615.09  1637.77  1677.42  1690.29
                             1721.52  1733.82  1781.91  1855.62  1889.49
                             1950.87  1961.53  1974.13  1987.16  2108.27
                             2138.09  2191.29  2320.21  2413.53  2506.26
                             3057.97  3189.07  4544.57  4576.72  4592.03
                             4616.48  4660.17  4674.34  4681.36  4686.80
                             4694.80  4715.88
 
 Zero-point correction=                           0.188061 (Hartree/Particle)
 Thermal correction to Energy=                    0.197830
 Thermal correction to Enthalpy=                  0.198774
 Thermal correction to Gibbs Free Energy=         0.150735
 Sum of electronic and zero-point Energies=          -3165.325193
 Sum of electronic and thermal Energies=             -3165.315424
 Sum of electronic and thermal Enthalpies=           -3165.314480
 Sum of electronic and thermal Free Energies=        -3165.362519
 
                     E (Thermal)             CV                S
                      KCal/Mol        Cal/Mol-Kelvin    Cal/Mol-Kelvin
 Total                  124.140             39.259            101.106
 Electronic               0.000              0.000              0.000
 Translational            0.889              2.981             42.508
 Rotational               0.889              2.981             32.338
 Vibrational            122.362             33.298             26.260
 Vibration     1          0.593              1.985              6.334
 Vibration     2          0.617              1.906              2.710
 Vibration     3          0.631              1.860              2.279
 Vibration     4          0.643              1.823              2.028
 Vibration     5          0.658              1.777              1.794
 Vibration     6          0.683              1.701              1.501
 Vibration     7          0.709              1.626              1.287
 Vibration     8          0.751              1.510              1.033
 Vibration     9          0.776              1.444              0.920
 Vibration    10          0.799              1.385              0.829
 Vibration    11          0.853              1.255              0.664
 Vibration    12          0.878              1.199              0.603
 Vibration    13          0.914              1.121              0.526
 Vibration    14          0.947              1.054              0.468
 Vibration    15          0.980              0.991              0.417
                       Q            Log10(Q)             Ln(Q)
 Total Bot       0.464285D-69        -69.333215       -159.645628
 Total V=0       0.147537D+18         17.168901         39.532854
 Vib (Bot)       0.111344D-83        -83.953333       -193.309694
 Vib (Bot)    1  0.890282D+01          0.949528          2.186369
 Vib (Bot)    2  0.138036D+01          0.139992          0.322344
 Vib (Bot)    3  0.108460D+01          0.035269          0.081210
 Vib (Bot)    4  0.936789D+00         -0.028358         -0.065298
 Vib (Bot)    5  0.812440D+00         -0.090209         -0.207713
 Vib (Bot)    6  0.671532D+00         -0.172933         -0.398194
 Vib (Bot)    7  0.577693D+00         -0.238303         -0.548712
 Vib (Bot)    8  0.473535D+00         -0.324648         -0.747529
 Vib (Bot)    9  0.428758D+00         -0.367788         -0.846862
 Vib (Bot)   10  0.393879D+00         -0.404638         -0.931713
 Vib (Bot)   11  0.330970D+00         -0.480212         -1.105729
 Vib (Bot)   12  0.307663D+00         -0.511925         -1.178750
 Vib (Bot)   13  0.278553D+00         -0.555092         -1.278146
 Vib (Bot)   14  0.256084D+00         -0.591618         -1.362251
 Vib (Bot)   15  0.236119D+00         -0.626869         -1.443419
 Vib (V=0)       0.353820D+03          2.548783          5.868789
 Vib (V=0)    1  0.941685D+01          0.973906          2.242501
 Vib (V=0)    2  0.196813D+01          0.294053          0.677082
 Vib (V=0)    3  0.169430D+01          0.228991          0.527270
 Vib (V=0)    4  0.156187D+01          0.193646          0.445885
 Vib (V=0)    5  0.145397D+01          0.162555          0.374298
 Vib (V=0)    6  0.133723D+01          0.126206          0.290601
 Vib (V=0)    7  0.126402D+01          0.101755          0.234299
 Vib (V=0)    8  0.118865D+01          0.075053          0.172816
 Vib (V=0)    9  0.115866D+01          0.063956          0.147265
 Vib (V=0)   10  0.113651D+01          0.055572          0.127959
 Vib (V=0)   11  0.109962D+01          0.041242          0.094962
 Vib (V=0)   12  0.108707D+01          0.036259          0.083490
 Vib (V=0)   13  0.107236D+01          0.030339          0.069859
 Vib (V=0)   14  0.106176D+01          0.026028          0.059932
 Vib (V=0)   15  0.105295D+01          0.022407          0.051594
 Electronic      0.100000D+01          0.000000          0.000000
 Translational   0.160043D+09          8.204237         18.890955
 Rotational      0.260544D+07          6.415881         14.773111
 ***** Axes restored to original set *****
 -------------------------------------------------------------------
 Center     Atomic                   Forces (Hartrees/Bohr)
 Number     Number              X              Y              Z
 -------------------------------------------------------------------
      1        6          -0.000352466   -0.000017238   -0.000089353
      2        6          -0.000125254    0.000104269    0.000011559
      3        6          -0.000001035   -0.000118101    0.000278752
      4        6           0.000150835    0.000265203   -0.000074804
      5        6          -0.000212200    0.000066526   -0.000019699
      6        6           0.000014102    0.000093154    0.000040710
      7        1           0.000079052   -0.000018349   -0.000010035
      8        6           0.000009091   -0.000133210   -0.000044955
      9        1          -0.000035806   -0.000038045    0.000049880
     10        1           0.000051850    0.000008346   -0.000012878
     11        6           0.000006058   -0.000007055   -0.000127371
     12        1          -0.000101773    0.000016007   -0.000027292
     13        1          -0.000043317    0.000074361   -0.000104865
     14        6           0.001144244    0.001423002   -0.000118855
     15        8          -0.000986130   -0.001688429    0.000518909
     16        1           0.000019964    0.000075142    0.000001854
     17        1          -0.000082400   -0.000061633    0.000014692
     18        1          -0.000019216    0.000034683    0.000074678
     19        6          -0.000033580    0.000330180    0.001774159
     20        8           0.000154748   -0.000447561   -0.001750443
     21        7           0.000447972    0.000065226   -0.000304890
     22        1           0.000105394   -0.000019286   -0.000107820
     23        1          -0.000027330    0.000057230   -0.000042009
     24       35          -0.000162804   -0.000064420    0.000070074
 -------------------------------------------------------------------
 Cartesian Forces:  Max     0.001774159 RMS     0.000454361


 MATERIAL COPIED FROM ONE SCHOLARLY BOOK WITHOUT CREDIT COMPRISES PLAGIARISM.
 MATERIAL COPIED FROM TWO SCHOLARLY BOOKS COMPRISES AN ESSAY.
 MATERIAL COPIED FROM THREE SCHOLARLY BOOKS COMPRISES A DISSERTATION.
 MATERIAL COPIED FROM FOUR SCHOLARLY BOOKS COMPRISES A FIFTH SCHOLARLY BOOK.

                               -- C&EN, 25 FEB 1980
 Error termination request processed by link 9999.
 Error termination via Lnk1e in /apps/gaussian/g16/C.01/g16/l9999.exe at Mon May 20 13:56:08 2024.
 Job cpu time:       0 days  7 hours 19 minutes 11.8 seconds.
 Elapsed time:       0 days  1 hours 11 minutes 26.3 seconds.
 File lengths (MBytes):  RWF=      6 Int=      0 D2E=      0 Chk=      2 Scr=      1
