Unloading slurm/anatra/current
  ERROR: No such file or directory on
    '/cm/local/modulefiles/slurm/anatra/current'
environment: line 0: unalias: gv: not found
environment: line 0: unalias: sl: not found
 Entering Gaussian System, Link 0=g16
 Initial command:
 /apps/gaussian/g16/C.01/g16/l1.exe "/local/jobs/1176103/Gau-3202369.inp" -scrdir="/local/jobs/1176103/"
 Entering Link 1 = /apps/gaussian/g16/C.01/g16/l1.exe PID=   3202371.
  
 Copyright (c) 1988-2019, Gaussian, Inc.  All Rights Reserved.
  
 This is part of the Gaussian(R) 16 program.  It is based on
 the Gaussian(R) 09 system (copyright 2009, Gaussian, Inc.),
 the Gaussian(R) 03 system (copyright 2003, Gaussian, Inc.),
 the Gaussian(R) 98 system (copyright 1998, Gaussian, Inc.),
 the Gaussian(R) 94 system (copyright 1995, Gaussian, Inc.),
 the Gaussian 92(TM) system (copyright 1992, Gaussian, Inc.),
 the Gaussian 90(TM) system (copyright 1990, Gaussian, Inc.),
 the Gaussian 88(TM) system (copyright 1988, Gaussian, Inc.),
 the Gaussian 86(TM) system (copyright 1986, Carnegie Mellon
 University), and the Gaussian 82(TM) system (copyright 1983,
 Carnegie Mellon University). Gaussian is a federally registered
 trademark of Gaussian, Inc.
  
 This software contains proprietary and confidential information,
 including trade secrets, belonging to Gaussian, Inc.
  
 This software is provided under written license and may be
 used, copied, transmitted, or stored only in accord with that
 written license.
  
 The following legend is applicable only to US Government
 contracts under FAR:
  
                    RESTRICTED RIGHTS LEGEND
  
 Use, reproduction and disclosure by the US Government is
 subject to restrictions as set forth in subparagraphs (a)
 and (c) of the Commercial Computer Software - Restricted
 Rights clause in FAR 52.227-19.
  
 Gaussian, Inc.
 340 Quinnipiac St., Bldg. 40, Wallingford CT 06492
  
  
 ---------------------------------------------------------------
 Warning -- This program may not be used in any manner that
 competes with the business of Gaussian, Inc. or will provide
 assistance to any competitor of Gaussian, Inc.  The licensee
 of this program is prohibited from giving any competitor of
 Gaussian, Inc. access to this program.  By using this program,
 the user acknowledges that Gaussian, Inc. is engaged in the
 business of creating and licensing software in the field of
 computational chemistry and represents and warrants to the
 licensee that it is not a competitor of Gaussian, Inc. and that
 it will not use this program in any manner prohibited above.
 ---------------------------------------------------------------
  

 Cite this work as:
 Gaussian 16, Revision C.01,
 M. J. Frisch, G. W. Trucks, H. B. Schlegel, G. E. Scuseria, 
 M. A. Robb, J. R. Cheeseman, G. Scalmani, V. Barone, 
 G. A. Petersson, H. Nakatsuji, X. Li, M. Caricato, A. V. Marenich, 
 J. Bloino, B. G. Janesko, R. Gomperts, B. Mennucci, H. P. Hratchian, 
 J. V. Ortiz, A. F. Izmaylov, J. L. Sonnenberg, D. Williams-Young, 
 F. Ding, F. Lipparini, F. Egidi, J. Goings, B. Peng, A. Petrone, 
 T. Henderson, D. Ranasinghe, V. G. Zakrzewski, J. Gao, N. Rega, 
 G. Zheng, W. Liang, M. Hada, M. Ehara, K. Toyota, R. Fukuda, 
 J. Hasegawa, M. Ishida, T. Nakajima, Y. Honda, O. Kitao, H. Nakai, 
 T. Vreven, K. Throssell, J. A. Montgomery, Jr., J. E. Peralta, 
 F. Ogliaro, M. J. Bearpark, J. J. Heyd, E. N. Brothers, K. N. Kudin, 
 V. N. Staroverov, T. A. Keith, R. Kobayashi, J. Normand, 
 K. Raghavachari, A. P. Rendell, J. C. Burant, S. S. Iyengar, 
 J. Tomasi, M. Cossi, J. M. Millam, M. Klene, C. Adamo, R. Cammi, 
 J. W. Ochterski, R. L. Martin, K. Morokuma, O. Farkas, 
 J. B. Foresman, and D. J. Fox, Gaussian, Inc., Wallingford CT, 2019.
 
 ******************************************
 Gaussian 16:  ES64L-G16RevC.01  3-Jul-2019
                20-May-2024 
 ******************************************
 %nprocshared=12
 Will use up to   12 processors via shared memory.
 %mem=48GB
 ----------------------------------------------------------------------
 # external="~/scripts/MiMe -H 'am1' -EF 'wb97xd def2svp' -c 12 -m 48GB
 " opt=(calcall,ts,noeigen,maxcycles=50,maxstep=10,nomicro,cartesian)
 ----------------------------------------------------------------------
 1/5=1,6=50,8=10,10=4,11=1,18=10,26=1,38=1/1,3;
 2/12=2,17=6,18=5,29=2,40=1/2;
 3/11=9,25=1,30=1,41=9900000,43=2,71=2,140=1/1;
 4/20=17,22=2,24=3,113=1,114=1/2;
 6/7=2,8=2,9=2,10=2,18=1/1;
 7/7=1,25=1,44=-1/16;
 1/5=1,6=50,8=10,10=4,11=1,18=10,26=1/3(3);
 2/29=1/2;
 7/7=1,8=1,9=1,25=1,44=-1/16;
 99/12=1/99;
 2/29=1/2;
 3/11=9,25=1,30=1,41=9900000,43=2,71=2,140=1/1;
 4/16=2,20=17,22=2,24=3,113=1,114=1/2;
 7/7=1,25=1,44=-1/16;
 1/5=1,6=50,8=10,10=4,11=1,18=10,26=1/3(-4);
 2/29=1/2;
 6/7=2,8=2,9=2,10=2,18=1/1;
 7/7=1,8=1,9=1,25=1,44=-1/16;
 99/12=1/99;
 -----
 *****
 -----
 Symbolic Z-matrix:
 Charge =  0 Multiplicity = 1
 C                    -1.3702   -1.1403    0.2064 
 C                    -0.7558    1.0745    0.4479 
 C                     0.8224   -1.0488   -0.4901 
 C                     0.4828    1.0089   -0.3265 
 C                    -0.5147   -1.684     1.261 
 C                     0.7603   -1.6448    0.8547 
 H                     1.6214   -1.9327    1.4402 
 C                     2.1344   -0.8467   -1.1832 
 H                     2.732    -1.7637   -1.2043 
 H                     1.9589   -0.5494   -2.2243 
 C                     2.8795    0.2805   -0.4393 
 H                     3.5219   -0.1491    0.3372 
 H                     3.493     0.8687   -1.1278 
 C                     1.8545    1.1796    0.2336 
 O                     2.1015    1.9406    1.1586 
 H                    -0.8674   -2.0171    2.2257 
 H                     0.4116    1.3562   -1.3585 
 H                    -0.7091    1.1299    1.5312 
 C                    -0.5513   -1.3121   -1.0671 
 H                    -0.6272   -2.3346   -1.4563 
 H                    -0.8476   -0.617    -1.8576 
 Cl                   -2.0176    2.097    -0.1611 
 C                    -2.8412   -1.3691    0.2271 
 H                    -3.3446   -0.7133   -0.4888 
 H                    -3.0749   -2.4056   -0.0352 
 H                    -3.253    -1.1641    1.2206 
 

 GradGradGradGradGradGradGradGradGradGradGradGradGradGradGradGradGradGrad
 Berny optimization.
 Initialization pass.
 No Z-matrix variables, so optimization will use Cartesian coordinates.
 Trust Radius=1.00D-01 FncErr=1.00D-07 GrdErr=1.00D-07 EigMax=2.50D+02 EigMin=1.00D-04
 Number of steps in this run=     50 maximum allowed number of steps=    156.
 Search for a saddle point of order  1.
 GradGradGradGradGradGradGradGradGradGradGradGradGradGradGradGradGradGrad

 ---------------------------------------------------------------------------------------------------
                            Z-MATRIX (ANGSTROMS AND DEGREES)
   CD    Cent   Atom    N1       Length/X        N2       Alpha/Y        N3        Beta/Z          J
 ---------------------------------------------------------------------------------------------------
      1      1  C        0  -1.370200         -1.140300          0.206400
      2      2  C        0  -0.755800          1.074500          0.447900
      3      3  C        0   0.822400         -1.048800         -0.490100
      4      4  C        0   0.482800          1.008900         -0.326500
      5      5  C        0  -0.514700         -1.684000          1.261000
      6      6  C        0   0.760300         -1.644800          0.854700
      7      7  H        0   1.621400         -1.932700          1.440200
      8      8  C        0   2.134400         -0.846700         -1.183200
      9      9  H        0   2.732000         -1.763700         -1.204300
     10     10  H        0   1.958900         -0.549400         -2.224300
     11     11  C        0   2.879500          0.280500         -0.439300
     12     12  H        0   3.521900         -0.149100          0.337200
     13     13  H        0   3.493000          0.868700         -1.127800
     14     14  C        0   1.854500          1.179600          0.233600
     15     15  O        0   2.101500          1.940600          1.158600
     16     16  H        0  -0.867400         -2.017100          2.225700
     17     17  H        0   0.411600          1.356200         -1.358500
     18     18  H        0  -0.709100          1.129900          1.531200
     19     19  C        0  -0.551300         -1.312100         -1.067100
     20     20  H        0  -0.627200         -2.334600         -1.456300
     21     21  H        0  -0.847600         -0.617000         -1.857600
     22     22  Cl       0  -2.017600          2.097000         -0.161100
     23     23  C        0  -2.841200         -1.369100          0.227100
     24     24  H        0  -3.344600         -0.713300         -0.488800
     25     25  H        0  -3.074900         -2.405600         -0.035200
     26     26  H        0  -3.253000         -1.164100          1.220600
 ---------------------------------------------------------------------------------------------------
                         Z-Matrix orientation:                         
 ---------------------------------------------------------------------
 Center     Atomic      Atomic             Coordinates (Angstroms)
 Number     Number       Type             X           Y           Z
 ---------------------------------------------------------------------
      1          6           0       -1.370200   -1.140300    0.206400
      2          6           0       -0.755800    1.074500    0.447900
      3          6           0        0.822400   -1.048800   -0.490100
      4          6           0        0.482800    1.008900   -0.326500
      5          6           0       -0.514700   -1.684000    1.261000
      6          6           0        0.760300   -1.644800    0.854700
      7          1           0        1.621400   -1.932700    1.440200
      8          6           0        2.134400   -0.846700   -1.183200
      9          1           0        2.732000   -1.763700   -1.204300
     10          1           0        1.958900   -0.549400   -2.224300
     11          6           0        2.879500    0.280500   -0.439300
     12          1           0        3.521900   -0.149100    0.337200
     13          1           0        3.493000    0.868700   -1.127800
     14          6           0        1.854500    1.179600    0.233600
     15          8           0        2.101500    1.940600    1.158600
     16          1           0       -0.867400   -2.017100    2.225700
     17          1           0        0.411600    1.356200   -1.358500
     18          1           0       -0.709100    1.129900    1.531200
     19          6           0       -0.551300   -1.312100   -1.067100
     20          1           0       -0.627200   -2.334600   -1.456300
     21          1           0       -0.847600   -0.617000   -1.857600
     22         17           0       -2.017600    2.097000   -0.161100
     23          6           0       -2.841200   -1.369100    0.227100
     24          1           0       -3.344600   -0.713300   -0.488800
     25          1           0       -3.074900   -2.405600   -0.035200
     26          1           0       -3.253000   -1.164100    1.220600
 ---------------------------------------------------------------------
                    Distance matrix (angstroms):
                    1          2          3          4          5
     1  C    0.000000
     2  C    2.311093   0.000000
     3  C    2.302386   2.806949   0.000000
     4  C    2.887326   1.462234   2.091942   0.000000
     5  C    1.462761   2.885928   2.292960   3.281291   0.000000
     6  C    2.283384   3.139847   1.472263   2.917938   1.338746
     7  H    3.331641   3.959671   2.268422   3.615335   2.157982
     8  C    3.781456   3.834678   1.497523   2.627731   3.700394
     9  H    4.382550   4.790605   2.160494   3.676513   4.077391
    10  H    4.164177   4.140930   2.132717   2.865103   4.421915
    11  C    4.527201   3.825306   2.449751   2.507481   4.274444
    12  H    4.993218   4.450637   2.963307   3.319276   4.416273
    13  H    5.428341   4.536241   3.348966   3.118179   5.318299
    14  C    3.972577   2.621190   2.560222   1.491446   3.856017
    15  O    4.738284   3.069102   3.645658   2.386164   4.471321
    16  H    2.258132   3.568055   3.341945   4.182516   1.079814
    17  H    3.443288   2.169161   2.589768   1.091197   4.118571
    18  H    2.710342   1.085720   3.343334   2.210501   2.833519
    19  C    1.523783   2.834238   1.513046   2.646676   2.357901
    20  H    2.177837   3.906978   2.165217   3.699668   2.796365
    21  H    2.192498   2.860932   2.201229   2.599573   3.312850
    22  Cl   3.321791   1.734510   4.250870   2.731908   4.310109
    23  C    1.488831   3.220066   3.746856   4.124358   2.565290
    24  H    2.136326   3.282609   4.180485   4.200155   3.465890
    25  H    2.136670   4.209834   4.151721   4.939726   2.958964
    26  H    2.138715   3.441570   4.421388   4.590387   2.787511
                    6          7          8          9         10
     6  C    0.000000
     7  H    1.080366   0.000000
     8  C    2.584212   2.885272   0.000000
     9  H    2.853282   2.873217   1.094742   0.000000
    10  H    3.480917   3.931410   1.096849   1.764259   0.000000
    11  C    3.142010   3.164426   1.542446   2.187632   2.173123
    12  H    3.182980   2.830148   2.173343   2.367931   3.027291
    13  H    4.208995   4.236196   2.188940   2.741259   2.359403
    14  C    3.091969   3.346137   2.488284   3.391250   3.006927
    15  O    3.840087   3.913087   3.640625   4.438768   4.202909
    16  H    2.160476   2.611180   4.690548   4.978433   5.472167
    17  H    3.745110   4.484774   2.802060   3.891248   2.602894
    18  H    3.211814   3.849549   4.400046   5.262799   4.903270
    19  C    2.350383   3.375252   2.728197   3.317051   2.867390
    20  H    2.782391   3.688826   3.148788   3.416673   3.234915
    21  H    3.316366   4.324640   3.065926   3.815135   2.831162
    22  Cl   4.769659   5.660827   5.191258   6.209023   5.203151
    23  C    3.666155   4.658761   5.197927   5.767597   5.451810
    24  H    4.418471   5.465266   5.524439   6.208087   5.582646
    25  H    4.009925   4.945268   5.557417   5.958097   5.794547
    26  H    4.058514   4.939509   5.907883   6.485359   6.277666
                   11         12         13         14         15
    11  C    0.000000
    12  H    1.095530   0.000000
    13  H    1.093798   1.784090   0.000000
    14  C    1.520461   2.134572   2.152847   0.000000
    15  O    2.431975   2.656893   2.883204   1.223011   0.000000
    16  H    5.140083   5.130479   6.211835   4.647160   5.061270
    17  H    2.844748   3.849064   3.128243   2.155906   3.087568
    18  H    4.181196   4.578519   4.979573   2.873722   2.948820
    19  C    3.834175   4.462688   4.595208   3.699765   4.750910
    20  H    4.491100   5.020765   5.229253   4.622142   5.706211
    21  H    4.087586   4.912088   4.645505   3.860341   4.933150
    22  Cl   5.230550   5.998277   5.727996   3.998821   4.328170
    23  C    5.990966   6.479935   6.853145   5.342800   6.020971
    24  H    6.303135   6.938978   7.047256   5.579926   6.278305
    25  H    6.544716   6.981994   7.419712   6.101221   6.863653
    26  H    6.515343   6.907235   7.426693   5.705581   6.189804
                   16         17         18         19         20
    16  H    0.000000
    17  H    5.085419   0.000000
    18  H    3.226608   3.107659   0.000000
    19  C    3.382229   2.851651   3.569233   0.000000
    20  H    3.703461   3.835450   4.575437   1.096697   0.000000
    21  H    4.316713   2.393367   3.815076   1.093548   1.777574
    22  Cl   4.893423   2.807769   2.347623   3.820057   4.821808
    23  C    2.882740   4.530132   3.534336   2.630940   2.944116
    24  H    3.899349   4.375871   3.797848   2.914707   3.308917
    25  H    3.183655   5.296975   4.533253   2.937536   2.831219
    26  H    2.725605   5.141300   3.439525   3.543255   3.928192
                   21         22         23         24         25
    21  H    0.000000
    22  Cl   3.407757   0.000000
    23  C    2.980951   3.583694   0.000000
    24  H    2.849192   3.125076   1.093617   0.000000
    25  H    3.388377   4.626785   1.094417   1.772673   0.000000
    26  H    3.944690   3.751011   1.094827   1.770215   1.774845
                   26
    26  H    0.000000
 Stoichiometry    C11H13ClO
 Framework group  C1[X(C11H13ClO)]
 Deg. of freedom    72
 Full point group                 C1      NOp   1
 Largest Abelian subgroup         C1      NOp   1
 Largest concise Abelian subgroup C1      NOp   1
                         Standard orientation:                         
 ---------------------------------------------------------------------
 Center     Atomic      Atomic             Coordinates (Angstroms)
 Number     Number       Type             X           Y           Z
 ---------------------------------------------------------------------
      1          6           0       -1.441238   -1.145665    0.162447
      2          6           0       -0.738135    1.047558    0.353671
      3          6           0        0.784761   -1.178142   -0.424794
      4          6           0        0.532613    0.897341   -0.353975
      5          6           0       -0.664408   -1.685256    1.278265
      6          6           0        0.629432   -1.718174    0.936013
      7          1           0        1.446623   -2.020862    1.574581
      8          6           0        2.137078   -1.061207   -1.057363
      9          1           0        2.692155   -2.003820   -1.014576
     10          1           0        2.026706   -0.797082   -2.116198
     11          6           0        2.895894    0.060027   -0.318327
     12          1           0        3.478994   -0.367049    0.504951
     13          1           0        3.568836    0.593406   -0.995859
     14          6           0        1.881601    1.028935    0.268381
     15          8           0        2.117711    1.813619    1.176279
     16          1           0       -1.078943   -1.964768    2.235361
     17          1           0        0.528161    1.207128   -1.400265
     18          1           0       -0.742108    1.142847    1.435195
     19          6           0       -0.569655   -1.402744   -1.060733
     20          1           0       -0.673360   -2.435232   -1.415638
     21          1           0       -0.794532   -0.726448   -1.890131
     22         17           0       -1.920157    2.100352   -0.355537
     23          6           0       -2.920453   -1.308333    0.116841
     24          1           0       -3.357428   -0.659232   -0.647174
     25          1           0       -3.188467   -2.342906   -0.118907
     26          1           0       -3.370600   -1.046949    1.080009
 ---------------------------------------------------------------------
 Rotational constants (GHZ):           0.9244285           0.6743049           0.4755489
 Standard basis: STO-3G (5D, 7F)
 There are    82 symmetry adapted cartesian basis functions of A   symmetry.
 There are    82 symmetry adapted basis functions of A   symmetry.
    82 basis functions,   246 primitive gaussians,    82 cartesian basis functions
    52 alpha electrons       52 beta electrons
       nuclear repulsion energy       908.0129164764 Hartrees.
 NAtoms=   26 NActive=   26 NUniq=   26 SFac= 1.00D+00 NAtFMM=   60 NAOKFM=F Big=F
 Integral buffers will be    131072 words long.
 Raffenetti 1 integral format.
 Two-electron integral symmetry is turned on.
 External calculation of energy, first and second derivatives.
 Running external command "~/scripts/MiMe -H 'am1' -EF 'wb97xd def2svp' -c 12 -m 48GB R"
         input file       "/local/jobs/1176103/Gau-3202371.EIn"
         output file      "/local/jobs/1176103/Gau-3202371.EOu"
         message file     "/local/jobs/1176103/Gau-3202371.EMs"
         fchk file        "/local/jobs/1176103/Gau-3202371.EFC"
         mat. el file     "/local/jobs/1176103/Gau-3202371.EUF"
 Read checkpoint file Gau-3202371_H.chk type G16
 Write formatted file Gau-3202371_H.fchk

deriv: 2

spelevel: wb97xd def2svp
gradlevel: wb97xd def2svp
hesslevel: am1

runspe: False
runforce: True
runfreq: True

Running Gaussian ...

Parsing files ...
SPE file: Gau-3202371_F.out
FORCE file: Gau-3202371_F.out
HESS file: Gau-3202371_H.out

 ExternalExternalExternalExternalExternalExternalExternalExternalExternalExternal
 Output from external command:
 "~/scripts/MiMe -H 'am1' -EF 'wb97xd def2svp' -c 12 -m 48GB R /local/jobs/1176103/Gau-3202371.EIn /local/jobs/1176103/Gau-3202371.EOu /local/jobs/1176103/Gau-3202371.EMs /local/jobs/1176103/Gau-3202371.EFC /local/jobs/1176103/Gau-3202371.EUF"
  
 --------------------------------------------------
 Force calculation at wb97xd def2svp
 Hessian calculation at am1
 ExternalExternalExternalExternalExternalExternalExternalExternalExternalExternal

 Recovered energy= -961.646326437     dipole=     -0.013600000000     -3.841900000000     -1.684100000000
 Energy=    -961.646326     NIter=   0.
 Dipole moment=      -0.013600      -3.841900      -1.684100
 ***** Axes restored to original set *****
 -------------------------------------------------------------------
 Center     Atomic                   Forces (Hartrees/Bohr)
 Number     Number              X              Y              Z
 -------------------------------------------------------------------
      1        6           0.015534276   -0.002419620    0.014527655
      2        6           0.025165460   -0.022585668   -0.018047436
      3        6          -0.004429335    0.012610082    0.015743331
      4        6          -0.021236225   -0.032971712    0.026292277
      5        6          -0.037879607    0.012672307   -0.016281519
      6        6           0.027636103    0.016673924   -0.030992173
      7        1           0.007459484    0.000724715    0.004393524
      8        6           0.002409326    0.002146362   -0.006570415
      9        1           0.003197174   -0.003573800   -0.001107518
     10        1          -0.001042977   -0.000650928   -0.002835174
     11        6          -0.004833236   -0.008862506   -0.001695690
     12        1           0.004303113    0.003908736    0.002499569
     13        1           0.005662964    0.003040961    0.000434486
     14        6          -0.002934437    0.023313384    0.025673252
     15        8           0.000713731   -0.019685487   -0.018114633
     16        1          -0.003500551   -0.000526457    0.007940079
     17        1          -0.002224943   -0.004554298   -0.006165094
     18        1           0.003099557   -0.001799130    0.003737807
     19        6           0.002900822    0.019773422    0.009087448
     20        1          -0.001481477   -0.006229005    0.002473783
     21        1          -0.000650856    0.000848145   -0.004001381
     22       17          -0.010341671    0.000337161   -0.005595914
     23        6          -0.000933156    0.009902642   -0.000069257
     24        1          -0.003325322    0.002729021   -0.002740165
     25        1          -0.001444547   -0.004850756   -0.001392684
     26        1          -0.001823672    0.000028504    0.002805842
 -------------------------------------------------------------------
 Cartesian Forces:  Max     0.037879607 RMS     0.012266822

 GradGradGradGradGradGradGradGradGradGradGradGradGradGradGradGradGradGrad
 Berny optimization.
 Search for a saddle point.
 Step number   1 out of a maximum of   50
 All quantities printed in internal units (Hartrees-Bohrs-Radians)
 Swapping is turned off.
 Second derivative matrix not updated -- analytic derivatives used.
 ITU=  0
     Eigenvalues ---   -0.27392  -0.00858  -0.00298  -0.00202   0.00086
     Eigenvalues ---    0.00190   0.00228   0.00462   0.00708   0.00906
     Eigenvalues ---    0.01144   0.01440   0.01671   0.02026   0.02171
     Eigenvalues ---    0.03016   0.03115   0.03252   0.03822   0.03993
     Eigenvalues ---    0.04401   0.04559   0.04757   0.04993   0.05289
     Eigenvalues ---    0.05430   0.06331   0.06394   0.07339   0.08420
     Eigenvalues ---    0.08971   0.09571   0.09737   0.10352   0.10850
     Eigenvalues ---    0.12558   0.12824   0.15131   0.16633   0.18195
     Eigenvalues ---    0.19392   0.20076   0.22956   0.23688   0.25787
     Eigenvalues ---    0.27479   0.29700   0.33039   0.36047   0.45562
     Eigenvalues ---    0.46735   0.53098   0.60255   0.65127   0.68694
     Eigenvalues ---    0.71726   0.74520   0.76604   0.79428   0.80792
     Eigenvalues ---    0.81875   0.83005   0.84007   0.88140   0.90390
     Eigenvalues ---    0.91930   0.99279   1.01612   1.07439   1.16680
     Eigenvalues ---    1.67330   2.27548
 Eigenvectors required to have negative eigenvalues:
                          Y4        Y3        Y2        Y1        X2
   1                    0.49867  -0.48210   0.46156  -0.40090   0.24880
                          X4        X5        Z6        X3        Z4
   1                   -0.12097  -0.11072  -0.09901   0.09099   0.08192
 RFO step:  Lambda0=3.360084619D-04 Lambda=-2.34191150D-02.
 Linear search not attempted -- option 19 set.
 Maximum step size (   0.100) exceeded in Quadratic search.
    -- Step size scaled by   0.155
 B after Tr=    -0.000195   -0.002213    0.000173
         Rot=    1.000000   -0.000125    0.000104   -0.000054 Ang=  -0.02 deg.
 Variable       Old X    -DE/DX   Delta X   Delta X   Delta X     New X
                                 (Linear)    (Quad)   (Total)
    X1       -2.58930   0.01553   0.00000  -0.00320  -0.00324  -2.59254
    Y1       -2.15485  -0.00242   0.00000  -0.01582  -0.01841  -2.17327
    Z1        0.39004   0.01453   0.00000   0.00211   0.00120   0.39124
    X2       -1.42826   0.02517   0.00000   0.01029   0.00969  -1.41856
    Y2        2.03051  -0.02259   0.00000  -0.00051  -0.00309   2.02742
    Z2        0.84641  -0.01805   0.00000   0.00193   0.00232   0.84873
    X3        1.55411  -0.00443   0.00000   0.00172   0.00194   1.55605
    Y3       -1.98194   0.01261   0.00000   0.00811   0.00630  -1.97564
    Z3       -0.92615   0.01574   0.00000   0.00415   0.00415  -0.92200
    X4        0.91236  -0.02124   0.00000  -0.00354  -0.00382   0.90854
    Y4        1.90654  -0.03297   0.00000  -0.01204  -0.01400   1.89254
    Z4       -0.61700   0.02629   0.00000   0.01523   0.01607  -0.60093
    X5       -0.97264  -0.03788   0.00000  -0.00772  -0.00806  -0.98071
    Y5       -3.18230   0.01267   0.00000   0.00636   0.00345  -3.17885
    Z5        2.38294  -0.01628   0.00000  -0.00627  -0.00709   2.37585
    X6        1.43676   0.02764   0.00000   0.00497   0.00477   1.44153
    Y6       -3.10822   0.01667   0.00000   0.02289   0.02043  -3.08779
    Z6        1.61515  -0.03099   0.00000  -0.00468  -0.00497   1.61017
    X7        3.06400   0.00746   0.00000   0.00262   0.00225   3.06625
    Y7       -3.65227   0.00072   0.00000   0.03418   0.03161  -3.62066
    Z7        2.72158   0.00439   0.00000   0.01022   0.01013   2.73171
    X8        4.03343   0.00241   0.00000   0.00283   0.00327   4.03671
    Y8       -1.60003   0.00215   0.00000  -0.00058  -0.00179  -1.60183
    Z8       -2.23592  -0.00657   0.00000  -0.00376  -0.00315  -2.23907
    X9        5.16273   0.00320   0.00000   0.00171   0.00235   5.16508
    Y9       -3.33291  -0.00357   0.00000  -0.00376  -0.00484  -3.33775
    Z9       -2.27580  -0.00111   0.00000   0.00926   0.00967  -2.26613
   X10        3.70178  -0.00104   0.00000   0.00158   0.00238   3.70417
   Y10       -1.03822  -0.00065   0.00000  -0.01619  -0.01694  -1.05516
   Z10       -4.20332  -0.00284   0.00000  -0.00798  -0.00729  -4.21061
   X11        5.44147  -0.00483   0.00000   0.00073   0.00065   5.44212
   Y11        0.53007  -0.00886   0.00000   0.00283   0.00142   0.53149
   Z11       -0.83016  -0.00170   0.00000  -0.01037  -0.00893  -0.83909
   X12        6.65543   0.00430   0.00000   0.02291   0.02262   6.67804
   Y12       -0.28176   0.00391   0.00000   0.02004   0.01840  -0.26335
   Z12        0.63722   0.00250   0.00000  -0.01768  -0.01618   0.62104
   X13        6.60081   0.00566   0.00000  -0.01021  -0.01014   6.59067
   Y13        1.64161   0.00304   0.00000   0.01488   0.01392   1.65552
   Z13       -2.13123   0.00043   0.00000  -0.01294  -0.01098  -2.14221
   X14        3.50450  -0.00293   0.00000   0.00003  -0.00050   3.50400
   Y14        2.22912   0.02331   0.00000  -0.00604  -0.00799   2.22113
   Z14        0.44144   0.02567   0.00000   0.00882   0.01028   0.45172
   X15        3.97126   0.00071   0.00000   0.01200   0.01095   3.98221
   Y15        3.66720  -0.01969   0.00000  -0.01824  -0.02057   3.64664
   Z15        2.18944  -0.01811   0.00000   0.01025   0.01217   2.20160
   X16       -1.63915  -0.00350   0.00000   0.00136   0.00070  -1.63845
   Y16       -3.81177  -0.00053   0.00000   0.01005   0.00661  -3.80516
   Z16        4.20596   0.00794   0.00000   0.00243   0.00131   4.20727
   X17        0.77781  -0.00222   0.00000   0.00003   0.00009   0.77790
   Y17        2.56285  -0.00455   0.00000  -0.02893  -0.03041   2.53243
   Z17       -2.56719  -0.00617   0.00000   0.00491   0.00588  -2.56131
   X18       -1.34000   0.00310   0.00000   0.00088  -0.00015  -1.34016
   Y18        2.13520  -0.00180   0.00000  -0.00591  -0.00899   2.12621
   Z18        2.89355   0.00374   0.00000   0.00398   0.00440   2.89795
   X19       -1.04181   0.00290   0.00000  -0.00004   0.00046  -1.04135
   Y19       -2.47951   0.01977   0.00000   0.01316   0.01133  -2.46818
   Z19       -2.01653   0.00909   0.00000   0.00323   0.00257  -2.01396
   X20       -1.18524  -0.00148   0.00000   0.00569   0.00654  -1.17869
   Y20       -4.41175  -0.00623   0.00000   0.00685   0.00520  -4.40656
   Z20       -2.75201   0.00247   0.00000   0.00723   0.00605  -2.74596
   X21       -1.60173  -0.00065   0.00000  -0.00386  -0.00320  -1.60493
   Y21       -1.16596   0.00085   0.00000   0.00674   0.00523  -1.16073
   Z21       -3.51036  -0.00400   0.00000  -0.00099  -0.00145  -3.51180
   X22       -3.81271  -0.01034   0.00000  -0.00708  -0.00764  -3.82035
   Y22        3.96276   0.00034   0.00000  -0.01930  -0.02185   3.94090
   Z22       -0.30443  -0.00560   0.00000  -0.00972  -0.00936  -0.31379
   X23       -5.36909  -0.00093   0.00000  -0.00717  -0.00717  -5.37626
   Y23       -2.58722   0.00990   0.00000   0.00786   0.00495  -2.58227
   Z23        0.42916  -0.00007   0.00000  -0.00201  -0.00361   0.42555
   X24       -6.32038  -0.00333   0.00000  -0.00250  -0.00236  -6.32274
   Y24       -1.34794   0.00273   0.00000   0.02762   0.02495  -1.32300
   Z24       -0.92370  -0.00274   0.00000   0.01126   0.00978  -0.91392
   X25       -5.81072  -0.00144   0.00000  -0.01848  -0.01816  -5.82888
   Y25       -4.54593  -0.00485   0.00000   0.01304   0.01021  -4.53571
   Z25       -0.06652  -0.00139   0.00000  -0.02354  -0.02572  -0.09224
   X26       -6.14728  -0.00182   0.00000  -0.00379  -0.00423  -6.15151
   Y26       -2.19983   0.00003   0.00000  -0.01166  -0.01512  -2.21495
   Z26        2.30660   0.00281   0.00000   0.00442   0.00275   2.30935
         Item               Value     Threshold  Converged?
 Maximum Force            0.037880     0.000450     NO 
 RMS     Force            0.012267     0.000300     NO 
 Maximum Displacement     0.031614     0.001800     NO 
 RMS     Displacement     0.011223     0.001200     NO 
 Predicted change in Energy=-3.434223D-03
 GradGradGradGradGradGradGradGradGradGradGradGradGradGradGradGradGradGrad

                          Input orientation:                          
 ---------------------------------------------------------------------
 Center     Atomic      Atomic             Coordinates (Angstroms)
 Number     Number       Type             X           Y           Z
 ---------------------------------------------------------------------
      1          6           0       -1.371916   -1.150043    0.207033
      2          6           0       -0.750670    1.072866    0.449126
      3          6           0        0.823424   -1.045465   -0.487902
      4          6           0        0.480779    1.001491   -0.317998
      5          6           0       -0.518968   -1.682177    1.257247
      6          6           0        0.762826   -1.633989    0.852067
      7          1           0        1.622589   -1.915971    1.445558
      8          6           0        2.136133   -0.847650   -1.184865
      9          1           0        2.733242   -1.766263   -1.199182
     10          1           0        1.960161   -0.558365   -2.228160
     11          6           0        2.879846    0.281251   -0.444025
     12          1           0        3.533868   -0.139361    0.328639
     13          1           0        3.487634    0.876065   -1.133608
     14          6           0        1.854237    1.175373    0.239040
     15          8           0        2.107296    1.929716    1.165039
     16          1           0       -0.867028   -2.013604    2.226391
     17          1           0        0.411648    1.340106   -1.355389
     18          1           0       -0.709180    1.125142    1.533529
     19          6           0       -0.551058   -1.306103   -1.065740
     20          1           0       -0.623737   -2.331849   -1.453098
     21          1           0       -0.849292   -0.614232   -1.858366
     22         17           0       -2.021644    2.085435   -0.166051
     23          6           0       -2.844993   -1.366479    0.225190
     24          1           0       -3.345849   -0.700099   -0.483625
     25          1           0       -3.084510   -2.400195   -0.048810
     26          1           0       -3.255239   -1.172100    1.222057
 ---------------------------------------------------------------------
                    Distance matrix (angstroms):
                    1          2          3          4          5
     1  C    0.000000
     2  C    2.320750   0.000000
     3  C    2.305079   2.800557   0.000000
     4  C    2.887427   1.452598   2.082379   0.000000
     5  C    1.453834   2.880452   2.291934   3.268480   0.000000
     6  C    2.281972   3.127314   1.464770   2.897301   1.345172
     7  H    3.329812   3.944411   2.265991   3.595197   2.162495
     8  C    3.786189   3.833006   1.499364   2.628873   3.702689
     9  H    4.382863   4.786984   2.161683   3.675668   4.076516
    10  H    4.169291   4.144560   2.134932   2.875837   4.422340
    11  C    4.533206   3.821652   2.447646   2.508017   4.278003
    12  H    5.010287   4.454355   2.972250   3.322805   4.434869
    13  H    5.433015   4.528465   3.347720   3.118032   5.321056
    14  C    3.977015   2.615374   2.554045   1.492284   3.851550
    15  O    4.744218   3.068337   3.637616   2.388840   4.466714
    16  H    2.253542   3.563496   3.341004   4.169088   1.081772
    17  H    3.438475   2.163024   2.571584   1.093444   4.101964
    18  H    2.715746   1.086455   3.338652   2.204415   2.827287
    19  C    1.522535   2.827394   1.513615   2.636056   2.353450
    20  H    2.170823   3.902134   2.163483   3.690469   2.789089
    21  H    2.196839   2.860165   2.205020   2.598535   3.310085
    22  Cl   3.321093   1.737560   4.242704   2.731327   4.298687
    23  C    1.489004   3.222847   3.750845   4.118628   2.564216
    24  H    2.139128   3.278473   4.183555   4.191172   3.462133
    25  H    2.135723   4.213893   4.159332   4.935100   2.967042
    26  H    2.139548   3.451110   4.424420   4.588474   2.783630
                    6          7          8          9         10
     6  C    0.000000
     7  H    1.082099   0.000000
     8  C    2.579418   2.885163   0.000000
     9  H    2.847395   2.872388   1.095716   0.000000
    10  H    3.475396   3.931062   1.096866   1.765068   0.000000
    11  C    3.135247   3.158956   1.541547   2.187251   2.175755
    12  H    3.191639   2.838456   2.178538   2.371086   3.031392
    13  H    4.203315   4.233905   2.190975   2.748691   2.364065
    14  C    3.075629   3.326523   2.489898   3.390333   3.017308
    15  O    3.821721   3.886250   3.638220   4.431886   4.210225
    16  H    2.165478   2.611020   4.692024   4.975708   5.473001
    17  H    3.720408   4.462479   2.790915   3.881202   2.600734
    18  H    3.200624   3.833178   4.401974   5.261008   4.910182
    19  C    2.347719   3.376877   2.728620   3.319063   2.866453
    20  H    2.779092   3.690683   3.145104   3.413747   3.228389
    21  H    3.314404   4.326735   3.069341   3.820504   2.834237
    22  Cl   4.756464   5.647032   5.189227   6.205794   5.205454
    23  C    3.671634   4.663747   5.202793   5.771081   5.455409
    24  H    4.420117   5.466760   5.528619   6.213217   5.587238
    25  H    4.025002   4.962297   5.563823   5.964181   5.795740
    26  H    4.061413   4.939281   5.913157   6.486704   6.283396
                   11         12         13         14         15
    11  C    0.000000
    12  H    1.096207   0.000000
    13  H    1.094867   1.780841   0.000000
    14  C    1.522468   2.134881   2.154469   0.000000
    15  O    2.429683   2.648727   2.880849   1.220879   0.000000
    16  H    5.141648   5.146079   6.213120   4.639442   5.052014
    17  H    2.836153   3.843571   3.118688   2.156480   3.094418
    18  H    4.183776   4.588484   4.978846   2.872164   2.952230
    19  C    3.831100   4.471264   4.591023   3.693998   4.744865
    20  H    4.485712   5.026656   5.224572   4.615657   5.698607
    21  H    4.087630   4.921442   4.642757   3.861460   4.934984
    22  Cl   5.230388   6.004844   5.722839   4.001845   4.340990
    23  C    5.994719   6.496645   6.854014   5.342656   6.022739
    24  H    6.302689   6.950158   7.042958   5.574992   6.274616
    25  H    6.551327   7.004053   7.423189   6.103995   6.868508
    26  H    6.521298   6.925078   7.430375   5.708213   6.195264
                   16         17         18         19         20
    16  H    0.000000
    17  H    5.070654   0.000000
    18  H    3.218182   3.106173   0.000000
    19  C    3.382088   2.830746   3.562605   0.000000
    20  H    3.701230   3.816389   4.569248   1.098856   0.000000
    21  H    4.317845   2.379579   3.814447   1.093565   1.779136
    22  Cl   4.884571   2.809084   2.352297   3.804549   4.808642
    23  C    2.887200   4.519905   3.532934   2.632923   2.946620
    24  H    3.900517   4.363621   3.788462   2.918382   3.318490
    25  H    3.200502   5.283949   4.535856   2.941013   2.834095
    26  H    2.724035   5.138138   3.443363   3.544653   3.927630
                   21         22         23         24         25
    21  H    0.000000
    22  Cl   3.395076   0.000000
    23  C    2.981594   3.570249   0.000000
    24  H    2.851329   3.100576   1.094229   0.000000
    25  H    3.385314   4.611323   1.095907   1.774172   0.000000
    26  H    3.948265   3.749684   1.095367   1.772103   1.775519
                   26
    26  H    0.000000
 Stoichiometry    C11H13ClO
 Framework group  C1[X(C11H13ClO)]
 Deg. of freedom    72
 Full point group                 C1      NOp   1
 Largest Abelian subgroup         C1      NOp   1
 Largest concise Abelian subgroup C1      NOp   1
                         Standard orientation:                         
 ---------------------------------------------------------------------
 Center     Atomic      Atomic             Coordinates (Angstroms)
 Number     Number       Type             X           Y           Z
 ---------------------------------------------------------------------
      1          6           0       -1.444312   -1.150861    0.166181
      2          6           0       -0.730979    1.049435    0.355214
      3          6           0        0.784194   -1.173722   -0.422568
      4          6           0        0.530946    0.891809   -0.346741
      5          6           0       -0.668589   -1.678970    1.276582
      6          6           0        0.631934   -1.705144    0.933883
      7          1           0        1.448089   -2.002026    1.579399
      8          6           0        2.136567   -1.063545   -1.060566
      9          1           0        2.689598   -2.008149   -1.010820
     10          1           0        2.024483   -0.808287   -2.121413
     11          6           0        2.896573    0.059010   -0.326653
     12          1           0        3.492344   -0.359790    0.492697
     13          1           0        3.564026    0.597742   -1.007099
     14          6           0        1.882918    1.025202    0.270746
     15          8           0        2.126837    1.803508    1.179201
     16          1           0       -1.077803   -1.955464    2.239039
     17          1           0        0.527510    1.191696   -1.398252
     18          1           0       -0.738894    1.142851    1.437616
     19          6           0       -0.571907   -1.394492   -1.057611
     20          1           0       -0.674400   -2.430474   -1.409349
     21          1           0       -0.798922   -0.721866   -1.889429
     22         17           0       -1.921854    2.093370   -0.359721
     23          6           0       -2.925157   -1.299338    0.119439
     24          1           0       -3.359542   -0.639630   -0.637814
     25          1           0       -3.199900   -2.331198   -0.127128
     26          1           0       -3.372892   -1.047060    1.086764
 ---------------------------------------------------------------------
 Rotational constants (GHZ):           0.9296124           0.6728200           0.4763429
 Standard basis: STO-3G (5D, 7F)
 There are    82 symmetry adapted cartesian basis functions of A   symmetry.
 There are    82 symmetry adapted basis functions of A   symmetry.
    82 basis functions,   246 primitive gaussians,    82 cartesian basis functions
    52 alpha electrons       52 beta electrons
       nuclear repulsion energy       908.6624179575 Hartrees.
 NAtoms=   26 NActive=   26 NUniq=   26 SFac= 1.00D+00 NAtFMM=   60 NAOKFM=F Big=F
 Integral buffers will be    131072 words long.
 Raffenetti 1 integral format.
 Two-electron integral symmetry is turned on.
 External calculation of energy, first and second derivatives.
 Running external command "~/scripts/MiMe -H 'am1' -EF 'wb97xd def2svp' -c 12 -m 48GB R"
         input file       "/local/jobs/1176103/Gau-3202371.EIn"
         output file      "/local/jobs/1176103/Gau-3202371.EOu"
         message file     "/local/jobs/1176103/Gau-3202371.EMs"
         fchk file        "/local/jobs/1176103/Gau-3202371.EFC"
         mat. el file     "/local/jobs/1176103/Gau-3202371.EUF"
 Read checkpoint file Gau-3202371_H.chk type G16
 Write formatted file Gau-3202371_H.fchk

deriv: 2

spelevel: wb97xd def2svp
gradlevel: wb97xd def2svp
hesslevel: am1

runspe: False
runforce: True
runfreq: True

Running Gaussian ...

Parsing files ...
SPE file: Gau-3202371_F.out
FORCE file: Gau-3202371_F.out
HESS file: Gau-3202371_H.out

 ExternalExternalExternalExternalExternalExternalExternalExternalExternalExternal
 Output from external command:
 "~/scripts/MiMe -H 'am1' -EF 'wb97xd def2svp' -c 12 -m 48GB R /local/jobs/1176103/Gau-3202371.EIn /local/jobs/1176103/Gau-3202371.EOu /local/jobs/1176103/Gau-3202371.EMs /local/jobs/1176103/Gau-3202371.EFC /local/jobs/1176103/Gau-3202371.EUF"
  
 --------------------------------------------------
 Force calculation at wb97xd def2svp
 Hessian calculation at am1
 ExternalExternalExternalExternalExternalExternalExternalExternalExternalExternal

 Recovered energy= -961.649742378     dipole=     -0.025100000000     -3.813900000000     -1.691600000000
 Energy=    -961.649742     NIter=   0.
 Dipole moment=      -0.025100      -3.813900      -1.691600
 ***** Axes restored to original set *****
 -------------------------------------------------------------------
 Center     Atomic                   Forces (Hartrees/Bohr)
 Number     Number              X              Y              Z
 -------------------------------------------------------------------
      1        6           0.013802085   -0.001342974    0.012174171
      2        6           0.021322359   -0.019847752   -0.015417489
      3        6          -0.004123685    0.011857129    0.013721683
      4        6          -0.018209661   -0.029656013    0.022068270
      5        6          -0.031723426    0.010966396   -0.014083193
      6        6           0.023112899    0.013991466   -0.026562948
      7        1           0.006563426    0.001255000    0.003507482
      8        6           0.001993944    0.001337180   -0.005685831
      9        1           0.002641005   -0.002987000   -0.001144858
     10        1          -0.000909902   -0.000379418   -0.002690133
     11        6          -0.004044418   -0.007186465   -0.001413705
     12        1           0.003604469    0.003381384    0.002070133
     13        1           0.004887969    0.002763083    0.000486970
     14        6          -0.001758864    0.020435638    0.023039916
     15        8           0.000158775   -0.017617841   -0.016253568
     16        1          -0.003182018   -0.000077252    0.006609923
     17        1          -0.001985103   -0.004428200   -0.004478131
     18        1           0.002815326   -0.001612629    0.003131009
     19        6           0.002729225    0.016326828    0.008621616
     20        1          -0.001164043   -0.004872259    0.002322719
     21        1          -0.000711040    0.001013590   -0.003622969
     22       17          -0.008988012   -0.000514221   -0.005070377
     23        6          -0.000887634    0.008405260   -0.000068525
     24        1          -0.002862359    0.002637495   -0.002407034
     25        1          -0.001452824   -0.003902008   -0.001278533
     26        1          -0.001628496    0.000053583    0.002423406
 -------------------------------------------------------------------
 Cartesian Forces:  Max     0.031723426 RMS     0.010589211

 GradGradGradGradGradGradGradGradGradGradGradGradGradGradGradGradGradGrad
 Berny optimization.
 Search for a saddle point.
 Step number   2 out of a maximum of   50
 All quantities printed in internal units (Hartrees-Bohrs-Radians)
 Swapping is turned off.
 Second derivative matrix not updated -- analytic derivatives used.
 ITU=  0  0
     Eigenvalues ---   -0.28813  -0.00824  -0.00305  -0.00153   0.00092
     Eigenvalues ---    0.00209   0.00240   0.00474   0.00729   0.00926
     Eigenvalues ---    0.01146   0.01470   0.01668   0.02005   0.02169
     Eigenvalues ---    0.03032   0.03129   0.03286   0.03851   0.04017
     Eigenvalues ---    0.04422   0.04577   0.04796   0.05005   0.05309
     Eigenvalues ---    0.05448   0.06351   0.06369   0.07385   0.08459
     Eigenvalues ---    0.08992   0.09582   0.09778   0.10387   0.10877
     Eigenvalues ---    0.12612   0.12871   0.15135   0.16684   0.18231
     Eigenvalues ---    0.19286   0.20094   0.23028   0.23734   0.25801
     Eigenvalues ---    0.27378   0.29722   0.32938   0.35916   0.45402
     Eigenvalues ---    0.46700   0.53049   0.60218   0.65109   0.69288
     Eigenvalues ---    0.71704   0.74414   0.76496   0.79159   0.80375
     Eigenvalues ---    0.81809   0.83035   0.83820   0.87770   0.89758
     Eigenvalues ---    0.92354   1.00900   1.02362   1.09814   1.17291
     Eigenvalues ---    1.63533   2.29577
 Eigenvectors required to have negative eigenvalues:
                          Y4        Y3        Y2        Y1        X2
   1                    0.50209  -0.48853   0.45540  -0.39817   0.24341
                          X4        X5        Z6        X3        Z4
   1                   -0.12178  -0.11604  -0.10152   0.09318   0.08096
 RFO step:  Lambda0=3.464205370D-04 Lambda=-1.88465748D-02.
 Linear search not attempted -- option 19 set.
 Maximum step size (   0.100) exceeded in Quadratic search.
    -- Step size scaled by   0.154
 B after Tr=    -0.000965   -0.003353   -0.000449
         Rot=    1.000000   -0.000010    0.000235   -0.000168 Ang=  -0.03 deg.
 Variable       Old X    -DE/DX   Delta X   Delta X   Delta X     New X
                                 (Linear)    (Quad)   (Total)
    X1       -2.59254   0.01380   0.00000   0.00243   0.00201  -2.59053
    Y1       -2.17327  -0.00134   0.00000   0.00053  -0.00370  -2.17697
    Z1        0.39124   0.01217   0.00000   0.00461   0.00290   0.39413
    X2       -1.41856   0.02132   0.00000   0.00581   0.00377  -1.41479
    Y2        2.02742  -0.01985   0.00000  -0.00250  -0.00634   2.02108
    Z2        0.84873  -0.01542   0.00000  -0.00202  -0.00309   0.84564
    X3        1.55605  -0.00412   0.00000   0.00564   0.00577   1.56182
    Y3       -1.97564   0.01186   0.00000  -0.00413  -0.00694  -1.98259
    Z3       -0.92200   0.01372   0.00000  -0.00133  -0.00108  -0.92308
    X4        0.90854  -0.01821   0.00000  -0.00460  -0.00592   0.90262
    Y4        1.89254  -0.02966   0.00000  -0.00803  -0.01107   1.88147
    Z4       -0.60093   0.02207   0.00000   0.01076   0.01078  -0.59015
    X5       -0.98071  -0.03172   0.00000  -0.00069  -0.00170  -0.98241
    Y5       -3.17885   0.01097   0.00000   0.01850   0.01477  -3.16409
    Z5        2.37585  -0.01408   0.00000  -0.00197  -0.00294   2.37291
    X6        1.44153   0.02311   0.00000   0.00882   0.00814   1.44967
    Y6       -3.08779   0.01399   0.00000   0.01325   0.01036  -3.07744
    Z6        1.61017  -0.02656   0.00000  -0.00789  -0.00771   1.60246
    X7        3.06625   0.00656   0.00000   0.00698   0.00594   3.07218
    Y7       -3.62066   0.00126   0.00000   0.01906   0.01668  -3.60398
    Z7        2.73171   0.00351   0.00000   0.00241   0.00333   2.73504
    X8        4.03671   0.00199   0.00000   0.00258   0.00321   4.03992
    Y8       -1.60183   0.00134   0.00000   0.00245   0.00050  -1.60133
    Z8       -2.23907  -0.00569   0.00000  -0.01016  -0.00874  -2.24781
    X9        5.16508   0.00264   0.00000   0.00666   0.00789   5.17297
    Y9       -3.33775  -0.00299   0.00000   0.00350   0.00193  -3.33582
    Z9       -2.26613  -0.00114   0.00000  -0.01670  -0.01478  -2.28091
   X10        3.70417  -0.00091   0.00000  -0.00570  -0.00433   3.69984
   Y10       -1.05516  -0.00038   0.00000   0.00467   0.00264  -1.05251
   Z10       -4.21061  -0.00269   0.00000  -0.00844  -0.00717  -4.21778
   X11        5.44212  -0.00404   0.00000  -0.00132  -0.00207   5.44005
   Y11        0.53149  -0.00719   0.00000   0.00007  -0.00144   0.53005
   Z11       -0.83909  -0.00141   0.00000  -0.00481  -0.00269  -0.84178
   X12        6.67804   0.00360   0.00000   0.00886   0.00770   6.68574
   Y12       -0.26335   0.00338   0.00000   0.00778   0.00666  -0.25669
   Z12        0.62104   0.00207   0.00000  -0.00767  -0.00498   0.61606
   X13        6.59067   0.00489   0.00000  -0.00202  -0.00254   6.58813
   Y13        1.65552   0.00276   0.00000   0.01237   0.01127   1.66679
   Z13       -2.14221   0.00049   0.00000   0.00273   0.00541  -2.13680
   X14        3.50400  -0.00176   0.00000  -0.00398  -0.00591   3.49809
   Y14        2.22113   0.02044   0.00000  -0.00927  -0.01145   2.20968
   Z14        0.45172   0.02304   0.00000   0.01080   0.01204   0.46376
   X15        3.98221   0.00016   0.00000   0.00313  -0.00009   3.98212
   Y15        3.64664  -0.01762   0.00000  -0.02958  -0.03164   3.61500
   Z15        2.20160  -0.01625   0.00000   0.02098   0.02248   2.22408
   X16       -1.63845  -0.00318   0.00000   0.00722   0.00554  -1.63291
   Y16       -3.80516  -0.00008   0.00000   0.03275   0.02876  -3.77640
   Z16        4.20727   0.00661   0.00000   0.00908   0.00779   4.21506
   X17        0.77790  -0.00199   0.00000   0.00021  -0.00039   0.77751
   Y17        2.53243  -0.00443   0.00000  -0.02775  -0.03079   2.50165
   Z17       -2.56131  -0.00448   0.00000   0.00120   0.00117  -2.56015
   X18       -1.34016   0.00282   0.00000  -0.00114  -0.00418  -1.34434
   Y18        2.12621  -0.00161   0.00000   0.00008  -0.00378   2.12243
   Z18        2.89795   0.00313   0.00000  -0.00043  -0.00147   2.89648
   X19       -1.04135   0.00273   0.00000   0.00101   0.00181  -1.03954
   Y19       -2.46818   0.01633   0.00000   0.01107   0.00741  -2.46077
   Z19       -2.01396   0.00862   0.00000   0.00348   0.00250  -2.01146
   X20       -1.17869  -0.00116   0.00000  -0.00699  -0.00519  -1.18389
   Y20       -4.40656  -0.00487   0.00000   0.00406   0.00036  -4.40620
   Z20       -2.74596   0.00232   0.00000   0.01423   0.01314  -2.73282
   X21       -1.60493  -0.00071   0.00000   0.00226   0.00334  -1.60159
   Y21       -1.16073   0.00101   0.00000   0.00366  -0.00016  -1.16089
   Z21       -3.51180  -0.00362   0.00000  -0.00369  -0.00492  -3.51672
   X22       -3.82035  -0.00899   0.00000  -0.01374  -0.01586  -3.83622
   Y22        3.94090  -0.00051   0.00000  -0.02697  -0.03160   3.90930
   Z22       -0.31379  -0.00507   0.00000  -0.01703  -0.01920  -0.33299
   X23       -5.37626  -0.00089   0.00000  -0.00085  -0.00115  -5.37741
   Y23       -2.58227   0.00841   0.00000   0.01516   0.00999  -2.57228
   Z23        0.42555  -0.00007   0.00000   0.00282  -0.00021   0.42534
   X24       -6.32274  -0.00286   0.00000  -0.00122  -0.00133  -6.32407
   Y24       -1.32300   0.00264   0.00000   0.03168   0.02622  -1.29678
   Z24       -0.91392  -0.00241   0.00000   0.01723   0.01378  -0.90014
   X25       -5.82888  -0.00145   0.00000  -0.00584  -0.00523  -5.83411
   Y25       -4.53571  -0.00390   0.00000   0.01966   0.01435  -4.52136
   Z25       -0.09224  -0.00128   0.00000  -0.01895  -0.02223  -0.11447
   X26       -6.15151  -0.00163   0.00000   0.00211   0.00080  -6.15071
   Y26       -2.21495   0.00005   0.00000  -0.00752  -0.01298  -2.22793
   Z26        2.30935   0.00242   0.00000   0.00928   0.00589   2.31525
         Item               Value     Threshold  Converged?
 Maximum Force            0.031723     0.000450     NO 
 RMS     Force            0.010589     0.000300     NO 
 Maximum Displacement     0.031640     0.001800     NO 
 RMS     Displacement     0.011057     0.001200     NO 
 Predicted change in Energy=-2.748799D-03
 GradGradGradGradGradGradGradGradGradGradGradGradGradGradGradGradGradGrad

                          Input orientation:                          
 ---------------------------------------------------------------------
 Center     Atomic      Atomic             Coordinates (Angstroms)
 Number     Number       Type             X           Y           Z
 ---------------------------------------------------------------------
      1          6           0       -1.370851   -1.152003    0.208566
      2          6           0       -0.748675    1.069510    0.447491
      3          6           0        0.826479   -1.049139   -0.488473
      4          6           0        0.477647    0.995632   -0.312295
      5          6           0       -0.519870   -1.674362    1.255691
      6          6           0        0.767131   -1.628509    0.847986
      7          1           0        1.625730   -1.907143    1.447323
      8          6           0        2.137833   -0.847387   -1.189487
      9          1           0        2.737417   -1.765241   -1.207006
     10          1           0        1.957872   -0.556966   -2.231953
     11          6           0        2.878751    0.280490   -0.445451
     12          1           0        3.537940   -0.135835    0.326005
     13          1           0        3.486288    0.882030   -1.130745
     14          6           0        1.851109    1.169313    0.245414
     15          8           0        2.107247    1.912973    1.176934
     16          1           0       -0.864096   -1.998383    2.230513
     17          1           0        0.411439    1.323814   -1.354772
     18          1           0       -0.711394    1.123142    1.532752
     19          6           0       -0.550099   -1.302184   -1.064419
     20          1           0       -0.626485   -2.331659   -1.446145
     21          1           0       -0.847526   -0.614316   -1.860968
     22         17           0       -2.030038    2.068712   -0.176211
     23          6           0       -2.845601   -1.361190    0.225082
     24          1           0       -3.346551   -0.686224   -0.476332
     25          1           0       -3.087280   -2.392603   -0.060575
     26          1           0       -3.254814   -1.178970    1.225175
 ---------------------------------------------------------------------
                    Distance matrix (angstroms):
                    1          2          3          4          5
     1  C    0.000000
     2  C    2.319333   0.000000
     3  C    2.307531   2.801038   0.000000
     4  C    2.881072   1.444506   2.081781   0.000000
     5  C    1.446892   2.869560   2.290342   3.253074   0.000000
     6  C    2.281859   3.120476   1.457846   2.883777   1.350813
     7  H    3.329302   3.936741   2.263245   3.583358   2.166682
     8  C    3.789223   3.832248   1.500592   2.631046   3.704885
     9  H    4.388367   4.788111   2.163510   3.678245   4.084489
    10  H    4.170203   4.141285   2.135886   2.878666   4.421701
    11  C    4.531985   3.818131   2.445728   2.508876   4.273869
    12  H    5.014241   4.454513   2.974815   3.324611   4.438153
    13  H    5.433492   4.523371   3.349106   3.120046   5.317849
    14  C    3.971258   2.609535   2.551468   1.492515   3.837798
    15  O    4.735925   3.065911   3.631537   2.390589   4.447125
    16  H    2.249762   3.550276   3.339460   4.150937   1.083402
    17  H    3.427864   2.158399   2.560008   1.094918   4.083003
    18  H    2.713786   1.087225   3.342036   2.198698   2.817707
    19  C    1.522064   2.819616   1.513510   2.627149   2.349966
    20  H    2.164195   3.894706   2.161735   3.684507   2.782683
    21  H    2.201351   2.859025   2.207964   2.597384   3.308265
    22  Cl   3.309922   1.740488   4.240069   2.731025   4.282704
    23  C    1.489604   3.217897   3.753759   4.109423   2.563057
    24  H    2.142295   3.268793   4.188799   4.180914   3.459256
    25  H    2.134866   4.208732   4.159987   4.924652   2.973217
    26  H    2.140920   3.455601   4.428362   4.585190   2.779616
                    6          7          8          9         10
     6  C    0.000000
     7  H    1.083529   0.000000
     8  C    2.576873   2.887577   0.000000
     9  H    2.850213   2.881222   1.096478   0.000000
    10  H    3.471612   3.933239   1.097026   1.765824   0.000000
    11  C    3.126691   3.152521   1.540992   2.187454   2.177371
    12  H    3.190286   2.837504   2.182504   2.376115   3.035971
    13  H    4.196665   4.229373   2.193778   2.752211   2.370532
    14  C    3.060378   3.310584   2.491632   3.392149   3.021388
    15  O    3.800818   3.859826   3.635997   4.428266   4.212295
    16  H    2.170044   2.611695   4.693909   4.984154   5.473097
    17  H    3.700658   4.445821   2.778826   3.869660   2.588095
    18  H    3.197893   3.827803   4.405867   5.267193   4.911288
    19  C    2.344968   3.377729   2.729004   3.323028   2.865031
    20  H    2.774820   3.691185   3.148078   3.419628   3.232016
    21  H    3.312723   4.328185   3.068808   3.821533   2.830402
    22  Cl   4.747902   5.639851   5.186666   6.204059   5.198430
    23  C    3.675772   4.667413   5.205729   5.777908   5.455011
    24  H    4.423132   5.469431   5.532905   6.221964   5.588901
    25  H    4.033089   4.972111   5.564525   5.969504   5.791200
    26  H    4.064529   4.939565   5.917870   6.493539   6.285755
                   11         12         13         14         15
    11  C    0.000000
    12  H    1.096814   0.000000
    13  H    1.095709   1.777875   0.000000
    14  C    1.524254   2.134317   2.156422   0.000000
    15  O    2.427417   2.639807   2.879233   1.219166   0.000000
    16  H    5.134487   5.145305   6.206503   4.620310   5.023706
    17  H    2.828961   3.838046   3.114491   2.158035   3.103612
    18  H    4.184793   4.593267   4.977237   2.868064   2.948759
    19  C    3.826878   4.472775   4.589946   3.686429   4.735228
    20  H    4.484573   5.030368   5.228975   4.610494   5.689529
    21  H    4.085280   4.923831   4.642652   3.860157   4.934240
    22  Cl   5.231294   6.009544   5.722691   4.006243   4.355730
    23  C    5.992740   6.500867   6.852964   5.335068   6.013059
    24  H    6.299991   6.952906   7.040977   5.565933   6.263628
    25  H    6.548823   7.009706   7.421608   6.096602   6.859484
    26  H    6.522395   6.930955   7.432397   5.704806   6.189841
                   16         17         18         19         20
    16  H    0.000000
    17  H    5.051560   0.000000
    18  H    3.202203   3.104644   0.000000
    19  C    3.382287   2.811535   3.557178   0.000000
    20  H    3.699372   3.801069   4.562531   1.100622   0.000000
    21  H    4.319274   2.365920   3.815052   1.093670   1.780506
    22  Cl   4.867546   2.811527   2.356582   3.787092   4.790193
    23  C    2.890352   4.507049   3.526577   2.633557   2.942666
    24  H    3.900174   4.351368   3.775483   2.923251   3.323666
    25  H    3.216682   5.265713   4.532547   2.938367   2.824717
    26  H    2.719866   5.134341   3.444315   3.545829   3.920811
                   21         22         23         24         25
    21  H    0.000000
    22  Cl   3.381623   0.000000
    23  C    2.983576   3.548296   0.000000
    24  H    2.857886   3.068053   1.094765   0.000000
    25  H    3.379380   4.586334   1.097187   1.775332   0.000000
    26  H    3.954509   3.743180   1.095831   1.773793   1.775986
                   26
    26  H    0.000000
 Stoichiometry    C11H13ClO
 Framework group  C1[X(C11H13ClO)]
 Deg. of freedom    72
 Full point group                 C1      NOp   1
 Largest Abelian subgroup         C1      NOp   1
 Largest concise Abelian subgroup C1      NOp   1
                         Standard orientation:                         
 ---------------------------------------------------------------------
 Center     Atomic      Atomic             Coordinates (Angstroms)
 Number     Number       Type             X           Y           Z
 ---------------------------------------------------------------------
      1          6           0       -1.438127   -1.153791    0.171677
      2          6           0       -0.730516    1.047290    0.355618
      3          6           0        0.791262   -1.171495   -0.423481
      4          6           0        0.524937    0.891558   -0.341651
      5          6           0       -0.659865   -1.669367    1.277113
      6          6           0        0.645254   -1.694086    0.929625
      7          1           0        1.462375   -1.984529    1.579233
      8          6           0        2.140995   -1.053301   -1.068482
      9          1           0        2.699824   -1.995574   -1.022698
     10          1           0        2.021988   -0.797364   -2.128575
     11          6           0        2.895862    0.071128   -0.333301
     12          1           0        3.500027   -0.341506    0.483840
     13          1           0        3.560052    0.618721   -1.011219
     14          6           0        1.877673    1.029312    0.273760
     15          8           0        2.123250    1.798078    1.187576
     16          1           0       -1.062361   -1.939458    2.246034
     17          1           0        0.521114    1.180400   -1.397776
     18          1           0       -0.740740    1.142544    1.438614
     19          6           0       -0.567236   -1.389076   -1.054238
     20          1           0       -0.671210   -2.428822   -1.399906
     21          1           0       -0.797282   -0.721602   -1.889506
     22         17           0       -1.936753    2.073930   -0.365701
     23          6           0       -2.919851   -1.299821    0.125956
     24          1           0       -3.357940   -0.632857   -0.623542
     25          1           0       -3.193275   -2.330705   -0.131606
     26          1           0       -3.366107   -1.060777    1.097841
 ---------------------------------------------------------------------
 Rotational constants (GHZ):           0.9362589           0.6712203           0.4778647
 Standard basis: STO-3G (5D, 7F)
 There are    82 symmetry adapted cartesian basis functions of A   symmetry.
 There are    82 symmetry adapted basis functions of A   symmetry.
    82 basis functions,   246 primitive gaussians,    82 cartesian basis functions
    52 alpha electrons       52 beta electrons
       nuclear repulsion energy       909.5170794978 Hartrees.
 NAtoms=   26 NActive=   26 NUniq=   26 SFac= 1.00D+00 NAtFMM=   60 NAOKFM=F Big=F
 Integral buffers will be    131072 words long.
 Raffenetti 1 integral format.
 Two-electron integral symmetry is turned on.
 External calculation of energy, first and second derivatives.
 Running external command "~/scripts/MiMe -H 'am1' -EF 'wb97xd def2svp' -c 12 -m 48GB R"
         input file       "/local/jobs/1176103/Gau-3202371.EIn"
         output file      "/local/jobs/1176103/Gau-3202371.EOu"
         message file     "/local/jobs/1176103/Gau-3202371.EMs"
         fchk file        "/local/jobs/1176103/Gau-3202371.EFC"
         mat. el file     "/local/jobs/1176103/Gau-3202371.EUF"
 Read checkpoint file Gau-3202371_H.chk type G16
 Write formatted file Gau-3202371_H.fchk

deriv: 2

spelevel: wb97xd def2svp
gradlevel: wb97xd def2svp
hesslevel: am1

runspe: False
runforce: True
runfreq: True

Running Gaussian ...

Parsing files ...
SPE file: Gau-3202371_F.out
FORCE file: Gau-3202371_F.out
HESS file: Gau-3202371_H.out

 ExternalExternalExternalExternalExternalExternalExternalExternalExternalExternal
 Output from external command:
 "~/scripts/MiMe -H 'am1' -EF 'wb97xd def2svp' -c 12 -m 48GB R /local/jobs/1176103/Gau-3202371.EIn /local/jobs/1176103/Gau-3202371.EOu /local/jobs/1176103/Gau-3202371.EMs /local/jobs/1176103/Gau-3202371.EFC /local/jobs/1176103/Gau-3202371.EUF"
  
 --------------------------------------------------
 Force calculation at wb97xd def2svp
 Hessian calculation at am1
 ExternalExternalExternalExternalExternalExternalExternalExternalExternalExternal

 Recovered energy= -961.652479871     dipole=     -0.024000000000     -3.782000000000     -1.702100000000
 Energy=    -961.652480     NIter=   0.
 Dipole moment=      -0.024000      -3.782000      -1.702100
 ***** Axes restored to original set *****
 -------------------------------------------------------------------
 Center     Atomic                   Forces (Hartrees/Bohr)
 Number     Number              X              Y              Z
 -------------------------------------------------------------------
      1        6           0.012238672   -0.000429427    0.010134180
      2        6           0.018120383   -0.017727526   -0.013133938
      3        6          -0.004013166    0.011253094    0.012030077
      4        6          -0.015444521   -0.026420945    0.018512415
      5        6          -0.026594227    0.009202628   -0.012270486
      6        6           0.019314259    0.011828846   -0.022616500
      7        1           0.005808783    0.001656824    0.002801029
      8        6           0.001657809    0.000937336   -0.005081592
      9        1           0.002220916   -0.002555879   -0.001108906
     10        1          -0.000758107   -0.000261371   -0.002522405
     11        6          -0.003390586   -0.005860119   -0.001161279
     12        1           0.003032603    0.002905728    0.001729454
     13        1           0.004223484    0.002464380    0.000436157
     14        6          -0.001007151    0.017650265    0.020851685
     15        8          -0.000225498   -0.015667330   -0.014650338
     16        1          -0.002889838    0.000264605    0.005496587
     17        1          -0.001781892   -0.004202983   -0.003233709
     18        1           0.002527266   -0.001393833    0.002521423
     19        6           0.002539864    0.013452048    0.008106030
     20        1          -0.000900812   -0.003742391    0.002144088
     21        1          -0.000776032    0.001098765   -0.003233338
     22       17          -0.007778692   -0.001216664   -0.004597757
     23        6          -0.000816474    0.007158721    0.000000853
     24        1          -0.002430944    0.002562911   -0.002124180
     25        1          -0.001422148   -0.003064756   -0.001138100
     26        1          -0.001453949    0.000107074    0.002108550
 -------------------------------------------------------------------
 Cartesian Forces:  Max     0.026594227 RMS     0.009153353

 GradGradGradGradGradGradGradGradGradGradGradGradGradGradGradGradGradGrad
 Berny optimization.
 Search for a saddle point.
 Step number   3 out of a maximum of   50
 All quantities printed in internal units (Hartrees-Bohrs-Radians)
 Swapping is turned off.
 Second derivative matrix not updated -- analytic derivatives used.
 ITU=  0  0  0
     Eigenvalues ---   -0.29617  -0.00794  -0.00316  -0.00111   0.00123
     Eigenvalues ---    0.00231   0.00253   0.00484   0.00750   0.00947
     Eigenvalues ---    0.01150   0.01504   0.01683   0.01985   0.02174
     Eigenvalues ---    0.03039   0.03133   0.03326   0.03880   0.04031
     Eigenvalues ---    0.04440   0.04590   0.04827   0.05016   0.05326
     Eigenvalues ---    0.05459   0.06350   0.06375   0.07424   0.08494
     Eigenvalues ---    0.09043   0.09600   0.09818   0.10412   0.10896
     Eigenvalues ---    0.12671   0.12936   0.15167   0.16719   0.18255
     Eigenvalues ---    0.19285   0.20099   0.23084   0.23767   0.25820
     Eigenvalues ---    0.27298   0.29718   0.32837   0.35764   0.45246
     Eigenvalues ---    0.46652   0.52995   0.60184   0.65048   0.69692
     Eigenvalues ---    0.71624   0.74239   0.76374   0.78968   0.80008
     Eigenvalues ---    0.81764   0.83014   0.83778   0.87478   0.89363
     Eigenvalues ---    0.92779   1.01026   1.04096   1.12025   1.18000
     Eigenvalues ---    1.60392   2.31179
 Eigenvectors required to have negative eigenvalues:
                          Y4        Y3        Y2        Y1        X2
   1                    0.50185  -0.48989   0.45497  -0.39892   0.23917
                          X4        X5        Z6        X3        Z4
   1                   -0.12199  -0.12021  -0.10321   0.09447   0.07937
 RFO step:  Lambda0=3.586904579D-04 Lambda=-1.53873061D-02.
 Linear search not attempted -- option 19 set.
 Maximum step size (   0.100) exceeded in Quadratic search.
    -- Step size scaled by   0.150
 B after Tr=    -0.000876   -0.003504   -0.000393
         Rot=    1.000000   -0.000019    0.000257   -0.000158 Ang=  -0.03 deg.
 Variable       Old X    -DE/DX   Delta X   Delta X   Delta X     New X
                                 (Linear)    (Quad)   (Total)
    X1       -2.59053   0.01224   0.00000   0.00182   0.00143  -2.58911
    Y1       -2.17697  -0.00043   0.00000  -0.00192  -0.00625  -2.18322
    Z1        0.39413   0.01013   0.00000   0.00406   0.00225   0.39639
    X2       -1.41479   0.01812   0.00000   0.00511   0.00317  -1.41163
    Y2        2.02108  -0.01773   0.00000  -0.00152  -0.00550   2.01558
    Z2        0.84564  -0.01313   0.00000  -0.00222  -0.00326   0.84237
    X3        1.56182  -0.00401   0.00000   0.00440   0.00462   1.56644
    Y3       -1.98259   0.01125   0.00000  -0.00145  -0.00443  -1.98701
    Z3       -0.92308   0.01203   0.00000  -0.00151  -0.00118  -0.92426
    X4        0.90262  -0.01544   0.00000  -0.00312  -0.00429   0.89833
    Y4        1.88147  -0.02642   0.00000  -0.00700  -0.01020   1.87128
    Z4       -0.59015   0.01851   0.00000   0.00923   0.00937  -0.58078
    X5       -0.98241  -0.02659   0.00000   0.00015  -0.00095  -0.98337
    Y5       -3.16409   0.00920   0.00000   0.01624   0.01233  -3.15175
    Z5        2.37291  -0.01227   0.00000  -0.00115  -0.00216   2.37075
    X6        1.44967   0.01931   0.00000   0.00837   0.00764   1.45731
    Y6       -3.07744   0.01183   0.00000   0.01547   0.01237  -3.06507
    Z6        1.60246  -0.02262   0.00000  -0.00604  -0.00580   1.59666
    X7        3.07218   0.00581   0.00000   0.00820   0.00705   3.07923
    Y7       -3.60398   0.00166   0.00000   0.02631   0.02367  -3.58031
    Z7        2.73504   0.00280   0.00000   0.00318   0.00423   2.73927
    X8        4.03992   0.00166   0.00000   0.00169   0.00248   4.04240
    Y8       -1.60133   0.00094   0.00000   0.00305   0.00091  -1.60042
    Z8       -2.24781  -0.00508   0.00000  -0.01008  -0.00845  -2.25626
    X9        5.17297   0.00222   0.00000   0.00420   0.00555   5.17852
    Y9       -3.33582  -0.00256   0.00000   0.00341   0.00162  -3.33420
    Z9       -2.28091  -0.00111   0.00000  -0.01623  -0.01409  -2.29500
   X10        3.69984  -0.00076   0.00000  -0.00563  -0.00400   3.69584
   Y10       -1.05251  -0.00026   0.00000   0.00510   0.00293  -1.04959
   Z10       -4.21778  -0.00252   0.00000  -0.00855  -0.00708  -4.22486
   X11        5.44005  -0.00339   0.00000  -0.00062  -0.00123   5.43882
   Y11        0.53005  -0.00586   0.00000   0.00060  -0.00116   0.52889
   Z11       -0.84178  -0.00116   0.00000  -0.00545  -0.00302  -0.84480
   X12        6.68574   0.00303   0.00000   0.00941   0.00830   6.69404
   Y12       -0.25669   0.00291   0.00000   0.00649   0.00507  -0.25162
   Z12        0.61606   0.00173   0.00000  -0.00952  -0.00648   0.60958
   X13        6.58813   0.00422   0.00000  -0.00273  -0.00303   6.58509
   Y13        1.66679   0.00246   0.00000   0.01251   0.01116   1.67795
   Z13       -2.13680   0.00044   0.00000   0.00111   0.00416  -2.13264
   X14        3.49809  -0.00101   0.00000  -0.00282  -0.00463   3.49346
   Y14        2.20968   0.01765   0.00000  -0.00955  -0.01197   2.19771
   Z14        0.46376   0.02085   0.00000   0.01067   0.01215   0.47592
   X15        3.98212  -0.00023   0.00000   0.00243  -0.00074   3.98138
   Y15        3.61500  -0.01567   0.00000  -0.03233  -0.03467   3.58033
   Z15        2.22408  -0.01465   0.00000   0.02358   0.02537   2.24945
   X16       -1.63291  -0.00289   0.00000   0.00721   0.00535  -1.62756
   Y16       -3.77640   0.00026   0.00000   0.02975   0.02557  -3.75083
   Z16        4.21506   0.00550   0.00000   0.00852   0.00715   4.22221
   X17        0.77751  -0.00178   0.00000   0.00127   0.00093   0.77844
   Y17        2.50165  -0.00420   0.00000  -0.02538  -0.02854   2.47310
   Z17       -2.56015  -0.00323   0.00000   0.00114   0.00124  -2.55891
   X18       -1.34434   0.00253   0.00000  -0.00141  -0.00444  -1.34878
   Y18        2.12243  -0.00139   0.00000   0.00104  -0.00300   2.11943
   Z18        2.89648   0.00252   0.00000  -0.00101  -0.00201   2.89447
   X19       -1.03954   0.00254   0.00000   0.00057   0.00150  -1.03804
   Y19       -2.46077   0.01345   0.00000   0.00904   0.00528  -2.45549
   Z19       -2.01146   0.00811   0.00000   0.00338   0.00236  -2.00910
   X20       -1.18389  -0.00090   0.00000  -0.00378  -0.00186  -1.18575
   Y20       -4.40620  -0.00374   0.00000   0.00347  -0.00030  -4.40650
   Z20       -2.73282   0.00214   0.00000   0.01186   0.01068  -2.72213
   X21       -1.60159  -0.00078   0.00000  -0.00039   0.00091  -1.60068
   Y21       -1.16089   0.00110   0.00000   0.00284  -0.00103  -1.16192
   Z21       -3.51672  -0.00323   0.00000  -0.00211  -0.00337  -3.52009
   X22       -3.83622  -0.00778   0.00000  -0.01238  -0.01430  -3.85052
   Y22        3.90930  -0.00122   0.00000  -0.02656  -0.03127   3.87803
   Z22       -0.33299  -0.00460   0.00000  -0.01801  -0.02023  -0.35322
   X23       -5.37741  -0.00082   0.00000  -0.00129  -0.00158  -5.37898
   Y23       -2.57228   0.00716   0.00000   0.01396   0.00874  -2.56354
   Z23        0.42534   0.00000   0.00000   0.00321  -0.00005   0.42529
   X24       -6.32407  -0.00243   0.00000   0.00016   0.00014  -6.32393
   Y24       -1.29678   0.00256   0.00000   0.03190   0.02643  -1.27034
   Z24       -0.90014  -0.00212   0.00000   0.01801   0.01432  -0.88582
   X25       -5.83411  -0.00142   0.00000  -0.00964  -0.00903  -5.84314
   Y25       -4.52136  -0.00306   0.00000   0.01990   0.01455  -4.50681
   Z25       -0.11447  -0.00114   0.00000  -0.01814  -0.02171  -0.13618
   X26       -6.15071  -0.00145   0.00000   0.00239   0.00103  -6.14968
   Y26       -2.22793   0.00011   0.00000  -0.00679  -0.01232  -2.24025
   Z26        2.31525   0.00211   0.00000   0.00925   0.00561   2.32085
         Item               Value     Threshold  Converged?
 Maximum Force            0.026594     0.000450     NO 
 RMS     Force            0.009153     0.000300     NO 
 Maximum Displacement     0.034667     0.001800     NO 
 RMS     Displacement     0.011034     0.001200     NO 
 Predicted change in Energy=-2.209311D-03
 GradGradGradGradGradGradGradGradGradGradGradGradGradGradGradGradGradGrad

                          Input orientation:                          
 ---------------------------------------------------------------------
 Center     Atomic      Atomic             Coordinates (Angstroms)
 Number     Number       Type             X           Y           Z
 ---------------------------------------------------------------------
      1          6           0       -1.370096   -1.155311    0.209759
      2          6           0       -0.747001    1.066600    0.445765
      3          6           0        0.828925   -1.051482   -0.489095
      4          6           0        0.475375    0.990237   -0.307335
      5          6           0       -0.520374   -1.667835    1.254546
      6          6           0        0.771176   -1.621964    0.844917
      7          1           0        1.629460   -1.894618    1.449561
      8          6           0        2.139144   -0.846905   -1.193960
      9          1           0        2.740355   -1.764383   -1.214462
     10          1           0        1.955754   -0.555418   -2.235702
     11          6           0        2.878100    0.279876   -0.447050
     12          1           0        3.542334   -0.133150    0.322575
     13          1           0        3.484682    0.887935   -1.128542
     14          6           0        1.848657    1.162977    0.251845
     15          8           0        2.106857    1.894628    1.190359
     16          1           0       -0.861265   -1.984852    2.234296
     17          1           0        0.411931    1.308710   -1.354116
     18          1           0       -0.713745    1.121553    1.531687
     19          6           0       -0.549306   -1.299389   -1.063169
     20          1           0       -0.627471   -2.331818   -1.440492
     21          1           0       -0.847046   -0.614863   -1.862749
     22         17           0       -2.037607    2.052166   -0.186918
     23          6           0       -2.846435   -1.356566    0.225055
     24          1           0       -3.346478   -0.672236   -0.468755
     25          1           0       -3.092057   -2.384901   -0.072062
     26          1           0       -3.254269   -1.185490    1.228142
 ---------------------------------------------------------------------
                    Distance matrix (angstroms):
                    1          2          3          4          5
     1  C    0.000000
     2  C    2.319663   0.000000
     3  C    2.309735   2.800675   0.000000
     4  C    2.876895   1.437774   2.080060   0.000000
     5  C    1.440932   2.860528   2.289276   3.239805   0.000000
     6  C    2.281717   3.113287   1.452024   2.870327   1.355729
     7  H    3.328816   3.927337   2.260558   3.569451   2.170541
     8  C    3.792137   3.831453   1.501785   2.632360   3.707040
     9  H    4.392629   4.788785   2.165167   3.679802   4.091171
    10  H    4.171502   4.138368   2.136927   2.880828   4.421596
    11  C    4.531923   3.815417   2.444054   2.509426   4.270672
    12  H    5.018915   4.455667   2.977369   3.326413   4.441782
[...]
     8   6    -0.03   0.04  -0.03     0.00  -0.00   0.00     0.03  -0.05   0.03
     9   1     0.29  -0.42  -0.05    -0.00   0.00   0.00    -0.31   0.45   0.05
    10   1     0.09  -0.13   0.45    -0.00   0.00  -0.00    -0.08   0.12  -0.43
    11   6     0.00  -0.04   0.05    -0.00   0.00  -0.00     0.00  -0.04   0.05
    12   1    -0.32   0.16  -0.27     0.00  -0.00   0.00    -0.29   0.14  -0.24
    13   1     0.27   0.35  -0.32    -0.00  -0.00   0.00     0.28   0.37  -0.34
    14   6     0.00  -0.00   0.00     0.00  -0.00   0.00     0.00  -0.00   0.00
    15   8     0.00  -0.00  -0.00    -0.00   0.00   0.00    -0.00  -0.00  -0.00
    16   1    -0.00  -0.00   0.00     0.00  -0.00   0.00     0.00   0.00  -0.00
    17   1     0.00  -0.00   0.00    -0.00  -0.00   0.00    -0.00  -0.00   0.01
    18   1     0.00  -0.00  -0.00     0.00  -0.00  -0.00     0.00  -0.00  -0.00
    19   6     0.00   0.00  -0.00    -0.00  -0.00   0.00    -0.00  -0.00  -0.00
    20   1    -0.00  -0.01  -0.00     0.00   0.02   0.01     0.00   0.00   0.00
    21   1     0.00  -0.00   0.00    -0.00   0.01  -0.01    -0.00   0.00  -0.00
    22  17     0.00   0.00   0.00     0.00   0.00  -0.00     0.00   0.00   0.00
    23   6    -0.00  -0.00  -0.00     0.00  -0.08  -0.02     0.00  -0.00  -0.00
    24   1    -0.00   0.00  -0.00    -0.20   0.30  -0.28    -0.00   0.00  -0.00
    25   1     0.00   0.00   0.00     0.27   0.75   0.32     0.00   0.00   0.00
    26   1    -0.00  -0.00   0.00    -0.09  -0.02   0.22    -0.00  -0.00   0.00
                     64                     65                     66
                      A                      A                      A
 Frequencies --   3182.1463              3206.7945              3225.1011
 Red. masses --      1.0918                 1.0757                 1.0808
 Frc consts  --      6.5138                 6.5172                 6.6234
 IR Inten    --      0.0000                 0.0000                 0.0000
  Atom  AN      X      Y      Z        X      Y      Z        X      Y      Z
     1   6    -0.00   0.00  -0.00    -0.00   0.00  -0.00    -0.00  -0.00   0.00
     2   6     0.00  -0.00  -0.00     0.01  -0.01  -0.06     0.01  -0.00  -0.05
     3   6     0.00   0.00  -0.00     0.00  -0.00  -0.00    -0.00   0.00  -0.00
     4   6    -0.00  -0.00   0.00    -0.00  -0.01   0.05     0.00   0.01  -0.06
     5   6     0.00  -0.00   0.00     0.00  -0.00   0.00     0.00  -0.00  -0.00
     6   6    -0.00  -0.00   0.00     0.00  -0.00   0.00     0.00  -0.00   0.00
     7   1    -0.00  -0.00   0.00    -0.01   0.00  -0.01    -0.01   0.00  -0.01
     8   6     0.00  -0.00   0.00     0.00  -0.00   0.00     0.00  -0.00  -0.00
     9   1     0.00  -0.00  -0.00    -0.00   0.00   0.00    -0.00   0.01  -0.00
    10   1    -0.00   0.00  -0.00    -0.00   0.00  -0.01     0.00  -0.00   0.01
    11   6     0.00   0.00  -0.00     0.00  -0.00   0.00     0.00   0.00  -0.00
    12   1    -0.00   0.00  -0.00    -0.00   0.00  -0.00    -0.00   0.00  -0.00
    13   1     0.00  -0.00   0.00     0.00   0.00  -0.00    -0.00  -0.01   0.01
    14   6     0.00   0.00   0.00     0.00   0.00   0.00    -0.00  -0.00  -0.00
    15   8    -0.00  -0.00  -0.00    -0.00  -0.00  -0.00     0.00   0.00   0.00
    16   1     0.00  -0.00   0.00     0.00   0.00  -0.01    -0.00  -0.00   0.01
    17   1     0.00   0.00  -0.00     0.00   0.13  -0.63    -0.01  -0.15   0.75
    18   1    -0.00   0.00   0.00    -0.06   0.06   0.76    -0.06   0.05   0.64
    19   6    -0.00  -0.00   0.00    -0.00  -0.00  -0.00     0.00   0.00   0.00
    20   1    -0.00  -0.00  -0.00     0.00   0.01   0.00    -0.00  -0.01  -0.00
    21   1    -0.00   0.00  -0.00     0.00  -0.01   0.01    -0.00   0.01  -0.01
    22  17    -0.00   0.00  -0.00    -0.00   0.00  -0.00    -0.00   0.00  -0.00
    23   6    -0.00   0.02  -0.08    -0.00  -0.00   0.00    -0.00   0.00   0.00
    24   1     0.28  -0.49   0.34    -0.00   0.00  -0.00     0.00  -0.00   0.00
    25   1     0.04   0.15   0.01     0.00   0.00   0.00     0.00   0.00   0.00
    26   1    -0.27   0.07   0.67     0.00  -0.00  -0.00     0.00  -0.00  -0.00
                     67                     68                     69
                      A                      A                      A
 Frequencies --   3239.1628              3239.6169              3245.2825
 Red. masses --      1.0478                 1.0575                 1.0811
 Frc consts  --      6.4770                 6.5390                 6.7082
 IR Inten    --      0.0000                 0.0000                 0.0000
  Atom  AN      X      Y      Z        X      Y      Z        X      Y      Z
     1   6    -0.00  -0.00   0.00     0.00   0.00  -0.00     0.00   0.00  -0.00
     2   6     0.00   0.00   0.00     0.00   0.00  -0.00    -0.00  -0.00   0.00
     3   6     0.00  -0.00  -0.00    -0.00  -0.00  -0.00     0.00  -0.00   0.00
     4   6    -0.00   0.00   0.00    -0.00   0.00  -0.00    -0.00  -0.00   0.00
     5   6    -0.00  -0.00  -0.00     0.00   0.00  -0.01     0.02   0.01  -0.06
     6   6    -0.00   0.00  -0.00    -0.01   0.00  -0.00     0.04  -0.01   0.03
     7   1     0.02  -0.00   0.01     0.08  -0.01   0.06    -0.49   0.09  -0.35
     8   6     0.02  -0.02  -0.04     0.00  -0.00  -0.00     0.00  -0.00  -0.00
     9   1    -0.33   0.47   0.02    -0.01   0.02   0.00    -0.00   0.00   0.00
    10   1     0.13  -0.20   0.57     0.01  -0.01   0.03     0.00  -0.00   0.00
    11   6     0.03   0.00   0.00     0.00   0.00  -0.00     0.00   0.00   0.00
    12   1    -0.27   0.16  -0.26    -0.01   0.00  -0.00    -0.01   0.00  -0.01
    13   1    -0.15  -0.23   0.21    -0.00  -0.01   0.01    -0.00  -0.00   0.00
    14   6     0.00  -0.00  -0.00     0.00  -0.00  -0.00     0.00  -0.00   0.00
    15   8     0.00   0.00   0.00     0.00   0.00   0.00     0.00  -0.00   0.00
    16   1     0.00   0.00  -0.00    -0.04  -0.03   0.14    -0.23  -0.15   0.74
    17   1     0.00   0.00  -0.02     0.00  -0.00   0.02     0.00   0.00  -0.01
    18   1     0.00  -0.00  -0.01    -0.00  -0.00   0.00     0.00  -0.00  -0.01
    19   6     0.00  -0.00   0.00    -0.02   0.02  -0.06     0.00  -0.00   0.00
    20   1    -0.00  -0.01  -0.00     0.02   0.38   0.11    -0.00  -0.02  -0.01
    21   1    -0.01   0.02  -0.03     0.25  -0.56   0.65    -0.02   0.03  -0.04
    22  17    -0.00   0.00   0.00    -0.00   0.00  -0.00     0.00   0.00  -0.00
    23   6     0.00  -0.00  -0.00    -0.00   0.00  -0.00    -0.00   0.00   0.00
    24   1    -0.00   0.00  -0.00     0.00  -0.00   0.00     0.00  -0.00   0.00
    25   1    -0.00  -0.00  -0.00    -0.00  -0.00  -0.00     0.00   0.00   0.00
    26   1    -0.00   0.00   0.00    -0.00   0.00   0.00     0.00  -0.00  -0.01
                     70                     71                     72
                      A                      A                      A
 Frequencies --   3246.0732              3254.8786              3274.4859
 Red. masses --      1.0527                 1.0918                 1.0288
 Frc consts  --      6.5353                 6.8151                 6.4994
 IR Inten    --      0.0000                 0.0000                 0.0000
  Atom  AN      X      Y      Z        X      Y      Z        X      Y      Z
     1   6    -0.00  -0.00   0.00     0.00  -0.00   0.00     0.01   0.00  -0.00
     2   6     0.00   0.00   0.00     0.00  -0.00  -0.00    -0.00  -0.00  -0.00
     3   6     0.00   0.00  -0.00    -0.00  -0.00   0.00    -0.00  -0.00   0.00
     4   6     0.00  -0.00   0.00    -0.00  -0.00   0.00    -0.00   0.00   0.00
     5   6     0.00   0.00  -0.00     0.02   0.01  -0.05    -0.00   0.00  -0.00
     6   6     0.00  -0.00   0.00    -0.05   0.01  -0.04    -0.00   0.00  -0.00
     7   1    -0.00   0.00  -0.00     0.63  -0.11   0.45     0.01  -0.00   0.01
     8   6     0.01  -0.01  -0.03    -0.00   0.00   0.00    -0.00   0.00   0.00
     9   1    -0.19   0.27   0.01     0.01  -0.01  -0.00     0.00  -0.00  -0.00
    10   1     0.09  -0.13   0.39    -0.00   0.01  -0.02    -0.00   0.00  -0.00
    11   6    -0.05  -0.01  -0.01    -0.00   0.00  -0.00    -0.00  -0.00   0.00
    12   1     0.45  -0.26   0.43     0.01  -0.00   0.01     0.00  -0.00   0.00
    13   1     0.22   0.33  -0.32     0.00   0.00  -0.00     0.00   0.00  -0.00
    14   6    -0.00   0.00   0.00     0.00   0.00   0.00     0.00   0.00   0.00
    15   8    -0.00  -0.00  -0.00    -0.00  -0.00  -0.00    -0.00  -0.00  -0.00
    16   1    -0.00  -0.00   0.01    -0.18  -0.11   0.55    -0.00  -0.00   0.02
    17   1     0.00   0.00  -0.00    -0.00   0.00  -0.01    -0.00   0.00  -0.00
    18   1    -0.00  -0.00   0.00    -0.00   0.00   0.02    -0.00   0.00   0.00
    19   6     0.00  -0.00   0.00     0.00  -0.00   0.01    -0.00  -0.00   0.00
    20   1    -0.00  -0.00  -0.00    -0.00  -0.06  -0.02    -0.00  -0.00  -0.00
    21   1    -0.00   0.01  -0.01    -0.04   0.10  -0.11    -0.00   0.00  -0.00
    22  17     0.00  -0.00  -0.00     0.00  -0.00  -0.00     0.00  -0.00   0.00
    23   6    -0.00   0.00  -0.00    -0.00   0.00   0.00     0.04  -0.00  -0.01
    24   1     0.00  -0.00   0.00     0.00  -0.01   0.01    -0.23   0.43  -0.33
    25   1     0.00   0.00   0.00     0.00   0.01   0.00    -0.13  -0.44  -0.19
    26   1     0.00  -0.00  -0.00     0.00  -0.00  -0.01    -0.21   0.05   0.60

 -------------------
 - Thermochemistry -
 -------------------
 Temperature   298.150 Kelvin.  Pressure   1.00000 Atm.
 Atom     1 has atomic number  6 and mass  12.00000
 Atom     2 has atomic number  6 and mass  12.00000
 Atom     3 has atomic number  6 and mass  12.00000
 Atom     4 has atomic number  6 and mass  12.00000
 Atom     5 has atomic number  6 and mass  12.00000
 Atom     6 has atomic number  6 and mass  12.00000
 Atom     7 has atomic number  1 and mass   1.00783
 Atom     8 has atomic number  6 and mass  12.00000
 Atom     9 has atomic number  1 and mass   1.00783
 Atom    10 has atomic number  1 and mass   1.00783
 Atom    11 has atomic number  6 and mass  12.00000
 Atom    12 has atomic number  1 and mass   1.00783
 Atom    13 has atomic number  1 and mass   1.00783
 Atom    14 has atomic number  6 and mass  12.00000
 Atom    15 has atomic number  8 and mass  15.99491
 Atom    16 has atomic number  1 and mass   1.00783
 Atom    17 has atomic number  1 and mass   1.00783
 Atom    18 has atomic number  1 and mass   1.00783
 Atom    19 has atomic number  6 and mass  12.00000
 Atom    20 has atomic number  1 and mass   1.00783
 Atom    21 has atomic number  1 and mass   1.00783
 Atom    22 has atomic number 17 and mass  34.96885
 Atom    23 has atomic number  6 and mass  12.00000
 Atom    24 has atomic number  1 and mass   1.00783
 Atom    25 has atomic number  1 and mass   1.00783
 Atom    26 has atomic number  1 and mass   1.00783
 Molecular mass:   196.06549 amu.
 Principal axes and moments of inertia in atomic units:
                           1         2         3
     Eigenvalues --  1766.279962770.986093553.59677
           X            0.99851   0.04794  -0.02593
           Y           -0.04796   0.99885  -0.00041
           Z            0.02588   0.00165   0.99966
 This molecule is an asymmetric top.
 Rotational symmetry number  1.
 Warning -- assumption of classical behavior for rotation
           may cause significant error
 Rotational temperatures (Kelvin)      0.04904     0.03126     0.02437
 Rotational constants (GHZ):           1.02178     0.65130     0.50786
    4 imaginary frequencies ignored.
 Zero-point vibrational energy     564763.3 (Joules/Mol)
                                  134.98166 (Kcal/Mol)
 Warning -- explicit consideration of  15 degrees of freedom as
           vibrations may cause significant error
 Vibrational temperatures:    151.84   210.81   240.75   297.40   352.90
          (Kelvin)            384.32   411.85   471.59   547.65   607.26
                              621.47   695.27   780.65   815.64   888.88
                              964.62  1074.99  1139.84  1172.79  1232.37
                             1252.60  1276.80  1329.49  1371.37  1378.64
                             1378.96  1416.24  1467.13  1488.14  1499.78
                             1515.09  1543.54  1578.07  1623.33  1640.68
                             1673.10  1713.01  1766.61  1804.61  1813.77
                             1878.72  1895.00  1945.62  1948.38  1959.59
                             1981.05  1985.93  1992.02  2037.69  2070.39
                             2228.67  2342.74  2385.33  2418.72  3124.80
                             4522.26  4540.99  4546.71  4564.50  4578.40
                             4613.86  4640.20  4660.43  4661.09  4669.24
                             4670.38  4683.04  4711.25
 
 Zero-point correction=                           0.215107 (Hartree/Particle)
 Thermal correction to Energy=                    0.225090
 Thermal correction to Enthalpy=                  0.226034
 Thermal correction to Gibbs Free Energy=         0.179612
 Sum of electronic and zero-point Energies=           -961.449187
 Sum of electronic and thermal Energies=              -961.439204
 Sum of electronic and thermal Enthalpies=            -961.438260
 Sum of electronic and thermal Free Energies=         -961.484681
 
                     E (Thermal)             CV                S
                      KCal/Mol        Cal/Mol-Kelvin    Cal/Mol-Kelvin
 Total                  141.246             40.705             97.702
 Electronic               0.000              0.000              0.000
 Translational            0.889              2.981             41.725
 Rotational               0.889              2.981             31.231
 Vibrational            139.468             34.744             24.746
 Vibration     1          0.605              1.945              3.349
 Vibration     2          0.617              1.906              2.717
 Vibration     3          0.624              1.883              2.465
 Vibration     4          0.641              1.830              2.073
 Vibration     5          0.660              1.771              1.764
 Vibration     6          0.672              1.733              1.615
 Vibration     7          0.684              1.699              1.496
 Vibration     8          0.711              1.620              1.271
 Vibration     9          0.750              1.511              1.037
 Vibration    10          0.784              1.422              0.885
 Vibration    11          0.793              1.401              0.852
 Vibration    12          0.839              1.287              0.701
 Vibration    13          0.898              1.156              0.560
 Vibration    14          0.923              1.103              0.510
 Vibration    15          0.978              0.994              0.420
                       Q            Log10(Q)             Ln(Q)
 Total Bot       0.242146D-82        -82.615922       -190.230192
 Total V=0       0.211997D+17         16.326329         37.592762
 Vib (Bot)       0.150313D-96        -96.823005       -222.943207
 Vib (Bot)    1  0.194252D+01          0.288365          0.663985
 Vib (Bot)    2  0.138528D+01          0.141538          0.325903
 Vib (Bot)    3  0.120540D+01          0.081130          0.186810
 Vib (Bot)    4  0.962152D+00         -0.016756         -0.038583
 Vib (Bot)    5  0.797491D+00         -0.098274         -0.226285
 Vib (Bot)    6  0.724571D+00         -0.139919         -0.322175
 Vib (Bot)    7  0.669429D+00         -0.174295         -0.401330
 Vib (Bot)    8  0.570826D+00         -0.243497         -0.560672
 Vib (Bot)    9  0.474796D+00         -0.323493         -0.744869
 Vib (Bot)   10  0.415365D+00         -0.381570         -0.878597
 Vib (Bot)   11  0.402770D+00         -0.394943         -0.909390
 Vib (Bot)   12  0.345132D+00         -0.462015         -1.063830
 Vib (Bot)   13  0.291291D+00         -0.535673         -1.233433
 Vib (Bot)   14  0.272320D+00         -0.564920         -1.300777
 Vib (Bot)   15  0.237259D+00         -0.624778         -1.438604
 Vib (V=0)       0.131597D+03          2.119247          4.879746
 Vib (V=0)    1  0.250583D+01          0.398952          0.918622
 Vib (V=0)    2  0.197275D+01          0.295073          0.679430
 Vib (V=0)    3  0.180498D+01          0.256473          0.590552
 Vib (V=0)    4  0.158431D+01          0.199841          0.460151
 Vib (V=0)    5  0.144127D+01          0.158746          0.365526
 Vib (V=0)    6  0.138034D+01          0.139987          0.322332
 Vib (V=0)    7  0.133555D+01          0.125659          0.289340
 Vib (V=0)    8  0.125884D+01          0.099971          0.230193
 Vib (V=0)    9  0.118952D+01          0.075370          0.173546
 Vib (V=0)   10  0.115002D+01          0.060706          0.139781
 Vib (V=0)   11  0.114205D+01          0.057684          0.132822
 Vib (V=0)   12  0.110755D+01          0.044363          0.102149
 Vib (V=0)   13  0.107866D+01          0.032886          0.075722
 Vib (V=0)   14  0.106935D+01          0.029119          0.067050
 Vib (V=0)   15  0.105344D+01          0.022608          0.052057
 Electronic      0.100000D+01          0.000000          0.000000
 Translational   0.107908D+09          8.033056         18.496794
 Rotational      0.149289D+07          6.174027         14.216222
 ***** Axes restored to original set *****
 -------------------------------------------------------------------
 Center     Atomic                   Forces (Hartrees/Bohr)
 Number     Number              X              Y              Z
 -------------------------------------------------------------------
      1        6          -0.000051314   -0.000094195    0.000045450
      2        6          -0.000011998    0.000083118   -0.000168818
      3        6          -0.000109519   -0.000011568   -0.000065181
      4        6           0.000152914   -0.000074474    0.000187049
      5        6           0.000063651   -0.000001888    0.000026040
      6        6          -0.000059418    0.000013218   -0.000011013
      7        1           0.000053039    0.000000716   -0.000007431
      8        6           0.000028758   -0.000098509   -0.000004338
      9        1          -0.000054399    0.000043401   -0.000046181
     10        1          -0.000002860    0.000039114    0.000051694
     11        6          -0.000032306    0.000162279    0.000153083
     12        1          -0.000007190   -0.000053784   -0.000000029
     13        1          -0.000034977   -0.000015135    0.000162996
     14        6           0.000881246    0.002177602    0.002665054
     15        8          -0.000901867   -0.002152656   -0.003243311
     16        1           0.000000340    0.000014124   -0.000002977
     17        1           0.000055061    0.000018510    0.000098952
     18        1          -0.000025270   -0.000001074    0.000033833
     19        6          -0.000020131   -0.000015211    0.000039540
     20        1          -0.000013512   -0.000006378    0.000046199
     21        1          -0.000005764   -0.000050965    0.000019858
     22       17           0.000026530   -0.000003718   -0.000060810
     23        6          -0.000192295   -0.000001651   -0.000008983
     24        1           0.000085529   -0.000251817    0.000192347
     25        1           0.000083019    0.000300378    0.000142801
     26        1           0.000092733   -0.000019436   -0.000245824
 -------------------------------------------------------------------
 Cartesian Forces:  Max     0.003243311 RMS     0.000611751


 PATIENCE IS THE ABILITY TO IDLE YOUR MOTOR WHEN
 YOU FEEL LIKE STRIPPING YOUR GEARS.
 Error termination request processed by link 9999.
 Error termination via Lnk1e in /apps/gaussian/g16/C.01/g16/l9999.exe at Mon May 20 13:56:06 2024.
 Job cpu time:       0 days  7 hours 20 minutes 29.8 seconds.
 Elapsed time:       0 days  1 hours 11 minutes 24.5 seconds.
 File lengths (MBytes):  RWF=      6 Int=      0 D2E=      0 Chk=      2 Scr=      1
