Unloading slurm/anatra/current
  ERROR: No such file or directory on
    '/cm/local/modulefiles/slurm/anatra/current'
environment: line 0: unalias: gv: not found
environment: line 0: unalias: sl: not found
 Entering Gaussian System, Link 0=g16
 Initial command:
 /apps/gaussian/g16/C.01/g16/l1.exe "/local/jobs/1157669/Gau-303283.inp" -scrdir="/local/jobs/1157669/"
 Entering Link 1 = /apps/gaussian/g16/C.01/g16/l1.exe PID=    303284.
  
 Copyright (c) 1988-2019, Gaussian, Inc.  All Rights Reserved.
  
 This is part of the Gaussian(R) 16 program.  It is based on
 the Gaussian(R) 09 system (copyright 2009, Gaussian, Inc.),
 the Gaussian(R) 03 system (copyright 2003, Gaussian, Inc.),
 the Gaussian(R) 98 system (copyright 1998, Gaussian, Inc.),
 the Gaussian(R) 94 system (copyright 1995, Gaussian, Inc.),
 the Gaussian 92(TM) system (copyright 1992, Gaussian, Inc.),
 the Gaussian 90(TM) system (copyright 1990, Gaussian, Inc.),
 the Gaussian 88(TM) system (copyright 1988, Gaussian, Inc.),
 the Gaussian 86(TM) system (copyright 1986, Carnegie Mellon
 University), and the Gaussian 82(TM) system (copyright 1983,
 Carnegie Mellon University). Gaussian is a federally registered
 trademark of Gaussian, Inc.
  
 This software contains proprietary and confidential information,
 including trade secrets, belonging to Gaussian, Inc.
  
 This software is provided under written license and may be
 used, copied, transmitted, or stored only in accord with that
 written license.
  
 The following legend is applicable only to US Government
 contracts under FAR:
  
                    RESTRICTED RIGHTS LEGEND
  
 Use, reproduction and disclosure by the US Government is
 subject to restrictions as set forth in subparagraphs (a)
 and (c) of the Commercial Computer Software - Restricted
 Rights clause in FAR 52.227-19.
  
 Gaussian, Inc.
 340 Quinnipiac St., Bldg. 40, Wallingford CT 06492
  
  
 ---------------------------------------------------------------
 Warning -- This program may not be used in any manner that
 competes with the business of Gaussian, Inc. or will provide
 assistance to any competitor of Gaussian, Inc.  The licensee
 of this program is prohibited from giving any competitor of
 Gaussian, Inc. access to this program.  By using this program,
 the user acknowledges that Gaussian, Inc. is engaged in the
 business of creating and licensing software in the field of
 computational chemistry and represents and warrants to the
 licensee that it is not a competitor of Gaussian, Inc. and that
 it will not use this program in any manner prohibited above.
 ---------------------------------------------------------------
  

 Cite this work as:
 Gaussian 16, Revision C.01,
 M. J. Frisch, G. W. Trucks, H. B. Schlegel, G. E. Scuseria, 
 M. A. Robb, J. R. Cheeseman, G. Scalmani, V. Barone, 
 G. A. Petersson, H. Nakatsuji, X. Li, M. Caricato, A. V. Marenich, 
 J. Bloino, B. G. Janesko, R. Gomperts, B. Mennucci, H. P. Hratchian, 
 J. V. Ortiz, A. F. Izmaylov, J. L. Sonnenberg, D. Williams-Young, 
 F. Ding, F. Lipparini, F. Egidi, J. Goings, B. Peng, A. Petrone, 
 T. Henderson, D. Ranasinghe, V. G. Zakrzewski, J. Gao, N. Rega, 
 G. Zheng, W. Liang, M. Hada, M. Ehara, K. Toyota, R. Fukuda, 
 J. Hasegawa, M. Ishida, T. Nakajima, Y. Honda, O. Kitao, H. Nakai, 
 T. Vreven, K. Throssell, J. A. Montgomery, Jr., J. E. Peralta, 
 F. Ogliaro, M. J. Bearpark, J. J. Heyd, E. N. Brothers, K. N. Kudin, 
 V. N. Staroverov, T. A. Keith, R. Kobayashi, J. Normand, 
 K. Raghavachari, A. P. Rendell, J. C. Burant, S. S. Iyengar, 
 J. Tomasi, M. Cossi, J. M. Millam, M. Klene, C. Adamo, R. Cammi, 
 J. W. Ochterski, R. L. Martin, K. Morokuma, O. Farkas, 
 J. B. Foresman, and D. J. Fox, Gaussian, Inc., Wallingford CT, 2019.
 
 ******************************************
 Gaussian 16:  ES64L-G16RevC.01  3-Jul-2019
                16-Jan-2024 
 ******************************************
 %nprocshared=12
 Will use up to   12 processors via shared memory.
 %mem=48GB
 ----------------------------------------------------------------------
 # external="~/scripts/MiMe -H 'hf 6-31g(d)' -EF 'wb97xd def2svp' -c 12
  -m 48GB" opt=(calcall,ts,noeigen,maxcycles=50,maxstep=10,nomicro)
 ----------------------------------------------------------------------
 1/5=1,6=50,8=10,10=4,11=1,18=20,26=1,38=1/1,3;
 2/9=110,12=2,17=6,18=5,40=1/2;
 3/11=9,25=1,30=1,41=9900000,43=2,71=2,140=1/1;
 4/20=17,22=2,24=3,113=1,114=1/2;
 6/7=2,8=2,9=2,10=2,18=1/1;
 7/25=1,44=-1/16;
 1/5=1,6=50,8=10,10=4,11=1,18=20,26=1/3(3);
 2/9=110/2;
 7/8=1,9=1,25=1,44=-1/16;
 99//99;
 2/9=110/2;
 3/11=9,25=1,30=1,41=9900000,43=2,71=2,140=1/1;
 4/16=2,20=17,22=2,24=3,113=1,114=1/2;
 7/25=1,44=-1/16;
 1/5=1,6=50,8=10,10=4,11=1,18=20,26=1/3(-4);
 2/9=110/2;
 6/7=2,8=2,9=2,10=2,18=1/1;
 7/8=1,9=1,25=1,44=-1/16;
 99//99;
 ----------
 TS-249.out
 ----------
 Symbolic Z-matrix:
 Charge =  0 Multiplicity = 1
 C                    -0.98025   0.69195  -0.20894 
 C                    -1.92168  -0.31      0.32291 
 O                    -3.01226  -0.50219  -0.2006 
 C                     0.22829   0.86754   0.36619 
 C                     2.98171  -0.36432   0.09422 
 H                     3.0227   -0.73989   1.12039 
 H                     3.50996  -1.0641   -0.55969 
 H                     3.48667   0.6048    0.05611 
 N                     1.58522  -0.22082  -0.33301 
 H                     1.18839  -1.16551  -0.35932 
 H                     1.60848   0.04987  -1.32227 
 H                     0.80126   1.75285   0.06792 
 H                     0.42254   0.43147   1.35258 
 H                    -1.29964   1.25724  -1.0751 
 H                    -1.5872   -0.87442   1.20893 
 
 Add virtual bond connecting atoms N9         and C4         Dist= 3.54D+00.

 GradGradGradGradGradGradGradGradGradGradGradGradGradGradGradGradGradGrad
 Berny optimization.
 Initialization pass.
                           ----------------------------
                           !    Initial Parameters    !
                           ! (Angstroms and Degrees)  !
 --------------------------                            --------------------------
 ! Name  Definition              Value          Derivative Info.                !
 --------------------------------------------------------------------------------
 ! R1    R(1,2)                  1.4741         calculate D2E/DX2 analytically  !
 ! R2    R(1,4)                  1.3499         calculate D2E/DX2 analytically  !
 ! R3    R(1,14)                 1.0825         calculate D2E/DX2 analytically  !
 ! R4    R(2,3)                  1.2249         calculate D2E/DX2 analytically  !
 ! R5    R(2,15)                 1.1025         calculate D2E/DX2 analytically  !
 ! R6    R(4,9)                  1.8747         calculate D2E/DX2 analytically  !
 ! R7    R(4,12)                 1.0959         calculate D2E/DX2 analytically  !
 ! R8    R(4,13)                 1.0958         calculate D2E/DX2 analytically  !
 ! R9    R(5,6)                  1.0935         calculate D2E/DX2 analytically  !
 ! R10   R(5,7)                  1.0938         calculate D2E/DX2 analytically  !
 ! R11   R(5,8)                  1.0934         calculate D2E/DX2 analytically  !
 ! R12   R(5,9)                  1.4674         calculate D2E/DX2 analytically  !
 ! R13   R(9,10)                 1.025          calculate D2E/DX2 analytically  !
 ! R14   R(9,11)                 1.0259         calculate D2E/DX2 analytically  !
 ! A1    A(2,1,4)              120.4284         calculate D2E/DX2 analytically  !
 ! A2    A(2,1,14)             117.0776         calculate D2E/DX2 analytically  !
 ! A3    A(4,1,14)             122.4892         calculate D2E/DX2 analytically  !
 ! A4    A(1,2,3)              121.4029         calculate D2E/DX2 analytically  !
 ! A5    A(1,2,15)             116.3699         calculate D2E/DX2 analytically  !
 ! A6    A(3,2,15)             122.2266         calculate D2E/DX2 analytically  !
 ! A7    A(1,4,9)              114.4307         calculate D2E/DX2 analytically  !
 ! A8    A(1,4,12)             117.2067         calculate D2E/DX2 analytically  !
 ! A9    A(1,4,13)             119.37           calculate D2E/DX2 analytically  !
 ! A10   A(9,4,12)              89.3727         calculate D2E/DX2 analytically  !
 ! A11   A(9,4,13)              88.6472         calculate D2E/DX2 analytically  !
 ! A12   A(12,4,13)            118.2791         calculate D2E/DX2 analytically  !
 ! A13   A(6,5,7)              108.8561         calculate D2E/DX2 analytically  !
 ! A14   A(6,5,8)              108.6508         calculate D2E/DX2 analytically  !
 ! A15   A(6,5,9)              110.0278         calculate D2E/DX2 analytically  !
 ! A16   A(7,5,8)              108.8547         calculate D2E/DX2 analytically  !
 ! A17   A(7,5,9)              110.3726         calculate D2E/DX2 analytically  !
 ! A18   A(8,5,9)              110.0394         calculate D2E/DX2 analytically  !
 ! A19   A(4,9,5)              129.5684         calculate D2E/DX2 analytically  !
 ! A20   A(4,9,10)             105.3319         calculate D2E/DX2 analytically  !
 ! A21   A(4,9,11)             102.8777         calculate D2E/DX2 analytically  !
 ! A22   A(5,9,10)             106.6058         calculate D2E/DX2 analytically  !
 ! A23   A(5,9,11)             106.5574         calculate D2E/DX2 analytically  !
 ! A24   A(10,9,11)            103.1331         calculate D2E/DX2 analytically  !
 ! D1    D(4,1,2,3)           -178.5729         calculate D2E/DX2 analytically  !
 ! D2    D(4,1,2,15)             1.151          calculate D2E/DX2 analytically  !
 ! D3    D(14,1,2,3)             0.6526         calculate D2E/DX2 analytically  !
 ! D4    D(14,1,2,15)         -179.6235         calculate D2E/DX2 analytically  !
 ! D5    D(2,1,4,9)             89.4706         calculate D2E/DX2 analytically  !
 ! D6    D(2,1,4,12)          -167.82           calculate D2E/DX2 analytically  !
 ! D7    D(2,1,4,13)           -13.5851         calculate D2E/DX2 analytically  !
 ! D8    D(14,1,4,9)           -89.7119         calculate D2E/DX2 analytically  !
 ! D9    D(14,1,4,12)           12.9975         calculate D2E/DX2 analytically  !
 ! D10   D(14,1,4,13)          167.2324         calculate D2E/DX2 analytically  !
 ! D11   D(1,4,9,5)           -175.7245         calculate D2E/DX2 analytically  !
 ! D12   D(1,4,9,10)           -48.0647         calculate D2E/DX2 analytically  !
 ! D13   D(1,4,9,11)            59.6548         calculate D2E/DX2 analytically  !
 ! D14   D(12,4,9,5)            64.4592         calculate D2E/DX2 analytically  !
 ! D15   D(12,4,9,10)         -167.881          calculate D2E/DX2 analytically  !
 ! D16   D(12,4,9,11)          -60.1615         calculate D2E/DX2 analytically  !
 ! D17   D(13,4,9,5)           -53.8472         calculate D2E/DX2 analytically  !
 ! D18   D(13,4,9,10)           73.8126         calculate D2E/DX2 analytically  !
 ! D19   D(13,4,9,11)         -178.4679         calculate D2E/DX2 analytically  !
 ! D20   D(6,5,9,4)             61.8552         calculate D2E/DX2 analytically  !
 ! D21   D(6,5,9,10)           -65.3281         calculate D2E/DX2 analytically  !
 ! D22   D(6,5,9,11)          -174.9628         calculate D2E/DX2 analytically  !
 ! D23   D(7,5,9,4)           -177.9916         calculate D2E/DX2 analytically  !
 ! D24   D(7,5,9,10)            54.8251         calculate D2E/DX2 analytically  !
 ! D25   D(7,5,9,11)           -54.8096         calculate D2E/DX2 analytically  !
 ! D26   D(8,5,9,4)            -57.8328         calculate D2E/DX2 analytically  !
 ! D27   D(8,5,9,10)           174.9839         calculate D2E/DX2 analytically  !
 ! D28   D(8,5,9,11)            65.3492         calculate D2E/DX2 analytically  !
 --------------------------------------------------------------------------------
 Trust Radius=1.00D-01 FncErr=1.00D-07 GrdErr=1.00D-07 EigMax=2.50D+02 EigMin=1.00D-04
 Number of steps in this run=     50 maximum allowed number of steps=    100.
 Search for a saddle point of order  1.
 GradGradGradGradGradGradGradGradGradGradGradGradGradGradGradGradGradGrad

                          Input orientation:                          
 ---------------------------------------------------------------------
 Center     Atomic      Atomic             Coordinates (Angstroms)
 Number     Number       Type             X           Y           Z
 ---------------------------------------------------------------------
      1          6           0       -0.980250    0.691950   -0.208940
      2          6           0       -1.921680   -0.310000    0.322910
      3          8           0       -3.012260   -0.502190   -0.200600
      4          6           0        0.228290    0.867540    0.366190
      5          6           0        2.981710   -0.364320    0.094220
      6          1           0        3.022700   -0.739890    1.120390
      7          1           0        3.509960   -1.064100   -0.559690
      8          1           0        3.486670    0.604800    0.056110
      9          7           0        1.585220   -0.220820   -0.333010
     10          1           0        1.188390   -1.165510   -0.359320
     11          1           0        1.608480    0.049870   -1.322270
     12          1           0        0.801260    1.752850    0.067920
     13          1           0        0.422540    0.431470    1.352580
     14          1           0       -1.299640    1.257240   -1.075100
     15          1           0       -1.587200   -0.874420    1.208930
 ---------------------------------------------------------------------
                    Distance matrix (angstroms):
                    1          2          3          4          5
     1  C    0.000000
     2  C    1.474130   0.000000
     3  O    2.356927   1.224894   0.000000
     4  C    1.349880   2.451702   3.563506   0.000000
     5  C    4.111537   4.909021   6.002800   3.028658   0.000000
     6  H    4.454312   5.026696   6.182415   3.310797   1.093507
     7  H    4.834121   5.554310   6.556222   3.918909   1.093773
     8  H    4.475625   5.491656   6.597531   3.283629   1.093449
     9  N    2.725835   3.568828   4.607985   1.874745   1.467413
    10  H    2.859331   3.296949   4.255660   2.362509   2.015837
    11  H    2.890206   3.911285   4.786873   2.329035   2.015876
    12  H    2.091874   3.425605   4.438496   1.095917   3.039319
    13  H    2.115187   2.665589   3.883547   1.095835   2.960760
    14  H    1.082495   2.190344   2.606417   2.136294   4.725116
    15  H    2.198240   1.102487   2.038658   2.653420   4.730509
                    6          7          8          9         10
     6  H    0.000000
     7  H    1.779102   0.000000
     8  H    1.776556   1.779039   0.000000
     9  N    2.109065   2.113558   2.109164   0.000000
    10  H    2.394867   2.332406   2.930643   1.024990   0.000000
    11  H    2.930926   2.331970   2.394885   1.025890   1.606517
    12  H    3.500892   3.958050   2.920545   2.161183   2.974765
    13  H    2.861263   3.927552   3.331632   2.149074   2.463224
    14  H    5.243217   5.365307   4.961258   3.325323   3.545751
    15  H    4.612712   5.398614   5.409366   3.587342   3.201256
                   11         12         13         14         15
    11  H    0.000000
    12  H    2.341874   0.000000
    13  H    2.950745   1.881442   0.000000
    14  H    3.158480   2.442520   3.088921   0.000000
    15  H    4.180150   3.729503   2.401050   3.137429   0.000000
 Stoichiometry    C4H9NO
 Framework group  C1[X(C4H9NO)]
 Deg. of freedom    39
 Full point group                 C1      NOp   1
 Largest Abelian subgroup         C1      NOp   1
 Largest concise Abelian subgroup C1      NOp   1
                         Standard orientation:                         
 ---------------------------------------------------------------------
 Center     Atomic      Atomic             Coordinates (Angstroms)
 Number     Number       Type             X           Y           Z
 ---------------------------------------------------------------------
      1          6           0       -0.980252    0.691948   -0.208939
      2          6           0       -1.921681   -0.310003    0.322911
      3          8           0       -3.012260   -0.502195   -0.200599
      4          6           0        0.228288    0.867539    0.366191
      5          6           0        2.981710   -0.364318    0.094221
      6          1           0        3.022700   -0.739888    1.120391
      7          1           0        3.509960   -1.064098   -0.559689
      8          1           0        3.486669    0.604802    0.056111
      9          7           0        1.585219   -0.220820   -0.333009
     10          1           0        1.188390   -1.165510   -0.359319
     11          1           0        1.608479    0.049870   -1.322269
     12          1           0        0.801257    1.752849    0.067921
     13          1           0        0.422539    0.431469    1.352581
     14          1           0       -1.299642    1.257237   -1.075099
     15          1           0       -1.587200   -0.874423    1.208931
 ---------------------------------------------------------------------
 Rotational constants (GHZ):          11.2493120           1.2678582           1.2133754
 Standard basis: STO-3G (5D, 7F)
 There are    39 symmetry adapted cartesian basis functions of A   symmetry.
 There are    39 symmetry adapted basis functions of A   symmetry.
    39 basis functions,   117 primitive gaussians,    39 cartesian basis functions
    24 alpha electrons       24 beta electrons
       nuclear repulsion energy       225.5433525727 Hartrees.
 NAtoms=   15 NActive=   15 NUniq=   15 SFac= 1.00D+00 NAtFMM=   60 NAOKFM=F Big=F
 Integral buffers will be    131072 words long.
 Raffenetti 1 integral format.
 Two-electron integral symmetry is turned on.
 External calculation of energy, first and second derivatives.
 Running external command "~/scripts/MiMe -H 'hf 6-31g(d)' -EF 'wb97xd def2svp' -c 12 -m 48GB R"
         input file       "/local/jobs/1157669/Gau-303284.EIn"
         output file      "/local/jobs/1157669/Gau-303284.EOu"
         message file     "/local/jobs/1157669/Gau-303284.EMs"
         fchk file        "/local/jobs/1157669/Gau-303284.EFC"
         mat. el file     "/local/jobs/1157669/Gau-303284.EUF"
 Read checkpoint file Gau-303284_H.chk type G16
 Write formatted file Gau-303284_H.fchk

deriv: 2

spelevel: wb97xd def2svp
gradlevel: wb97xd def2svp
hesslevel: hf 6-31g(d)

runspe: False
runforce: True
runfreq: True

Running Gaussian ...

Parsing files ...
SPE file: Gau-303284_F.out
FORCE file: Gau-303284_F.out
HESS file: Gau-303284_H.out

 ExternalExternalExternalExternalExternalExternalExternalExternalExternalExternal
 Output from external command:
 "~/scripts/MiMe -H 'hf 6-31g(d)' -EF 'wb97xd def2svp' -c 12 -m 48GB R /local/jobs/1157669/Gau-303284.EIn /local/jobs/1157669/Gau-303284.EOu /local/jobs/1157669/Gau-303284.EMs /local/jobs/1157669/Gau-303284.EFC /local/jobs/1157669/Gau-303284.EUF"
  
 --------------------------------------------------
 Force calculation at wb97xd def2svp
 Hessian calculation at hf 6-31g(d)
 ExternalExternalExternalExternalExternalExternalExternalExternalExternalExternal

 Recovered energy= -287.426760468     dipole=      8.415600000000     -0.577200000000     -0.120000000000
 Energy=    -287.426760     NIter=   0.
 Dipole moment=       8.415600      -0.577200      -0.120000
 ***** Axes restored to original set *****
 -------------------------------------------------------------------
 Center     Atomic                   Forces (Hartrees/Bohr)
 Number     Number              X              Y              Z
 -------------------------------------------------------------------
      1        6          -0.029535983   -0.026595630    0.010298304
      2        6          -0.009035727    0.028900797   -0.043154025
      3        8           0.008860569   -0.007357827    0.015452622
      4        6           0.011655787    0.021171765    0.018317996
      5        6          -0.003867037    0.003316247    0.002181510
      6        1          -0.000045462   -0.000595644    0.003631452
      7        1           0.006034692   -0.002672707   -0.000695759
      8        1           0.001406577    0.003444236    0.000465617
      9        7           0.029103802   -0.031928544   -0.030626883
     10        1          -0.006355600    0.003774919    0.001432871
     11        1          -0.005256800    0.000904813    0.002447337
     12        1          -0.000803377    0.003067415    0.010436860
     13        1          -0.002982058    0.008275508    0.004241660
     14        1          -0.002349430    0.002750514   -0.005852073
     15        1           0.003170046   -0.006455863    0.011422512
 -------------------------------------------------------------------
 Cartesian Forces:  Max     0.043154025 RMS     0.014296742
 FormGI is forming the generalized inverse of G from B-inverse, IUseBI=4.

 GradGradGradGradGradGradGradGradGradGradGradGradGradGradGradGradGradGrad
 Berny optimization.
 Internal  Forces:  Max     0.036899791 RMS     0.008491535
 Search for a saddle point.
 Step number   1 out of a maximum of   50
 All quantities printed in internal units (Hartrees-Bohrs-Radians)
 Swapping is turned off.
 Second derivative matrix not updated -- analytic derivatives used.
 ITU=  0
     Eigenvalues ---   -0.03218   0.00480   0.00943   0.01577   0.01754
     Eigenvalues ---    0.02037   0.03399   0.04430   0.05824   0.06163
     Eigenvalues ---    0.06201   0.06817   0.07209   0.11244   0.11506
     Eigenvalues ---    0.12262   0.12702   0.13325   0.14189   0.16705
     Eigenvalues ---    0.17504   0.21100   0.21797   0.23755   0.24729
     Eigenvalues ---    0.27924   0.33602   0.34410   0.35129   0.35148
     Eigenvalues ---    0.35404   0.35618   0.36216   0.38716   0.39510
     Eigenvalues ---    0.43615   0.43915   0.63356   0.84888
 Eigenvectors required to have negative eigenvalues:
                          R6        A19       A11       A10       D6
   1                    0.82716   0.22833  -0.19565  -0.18123  -0.17280
                          D9        D10       D7        R2        A21
   1                   -0.16716   0.16221   0.15657  -0.12702  -0.10355
 RFO step:  Lambda0=5.062093868D-03 Lambda=-1.83587124D-02.
 Linear search not attempted -- option 19 set.
 Maximum step size (   0.100) exceeded in Quadratic search.
    -- Step size scaled by   0.243
 Iteration  1 RMS(Cart)=  0.02720061 RMS(Int)=  0.00037530
 Iteration  2 RMS(Cart)=  0.00047805 RMS(Int)=  0.00016827
 Iteration  3 RMS(Cart)=  0.00000022 RMS(Int)=  0.00016827
 Variable       Old X    -DE/DX   Delta X   Delta X   Delta X     New X
                                 (Linear)    (Quad)   (Total)
    R1        2.78570  -0.01804   0.00000  -0.02393  -0.02393   2.76177
    R2        2.55090   0.03205   0.00000   0.02283   0.02283   2.57373
    R3        2.04562   0.00681   0.00000   0.00467   0.00467   2.05029
    R4        2.31471  -0.01334   0.00000  -0.00125  -0.00125   2.31346
    R5        2.08340   0.01345   0.00000   0.01245   0.01245   2.09585
    R6        3.54275   0.03690   0.00000  -0.03827  -0.03827   3.50449
    R7        2.07098  -0.00078   0.00000   0.00127   0.00127   2.07225
    R8        2.07083  -0.00000   0.00000   0.00249   0.00249   2.07332
    R9        2.06643   0.00361   0.00000   0.00198   0.00198   2.06840
   R10        2.06693   0.00504   0.00000   0.00245   0.00245   2.06938
   R11        2.06632   0.00369   0.00000   0.00210   0.00210   2.06842
   R12        2.77301   0.00464   0.00000  -0.00249  -0.00249   2.77052
   R13        1.93695  -0.00106   0.00000  -0.00131  -0.00131   1.93564
   R14        1.93865  -0.00224   0.00000  -0.00176  -0.00176   1.93689
    A1        2.10187   0.00351   0.00000   0.00330   0.00330   2.10517
    A2        2.04339  -0.00246   0.00000   0.00415   0.00415   2.04754
    A3        2.13784  -0.00106   0.00000  -0.00749  -0.00749   2.13035
    A4        2.11888   0.02106   0.00000   0.02201   0.02201   2.14089
    A5        2.03104  -0.00993   0.00000  -0.01084  -0.01084   2.02020
    A6        2.13326  -0.01112   0.00000  -0.01116  -0.01116   2.12209
    A7        1.99719  -0.01324   0.00000  -0.01643  -0.01637   1.98083
    A8        2.04564   0.00289   0.00000   0.00114   0.00110   2.04675
    A9        2.08340  -0.00158   0.00000  -0.00579  -0.00584   2.07756
   A10        1.55985   0.00746   0.00000   0.02710   0.02714   1.58699
   A11        1.54719   0.01067   0.00000   0.03198   0.03202   1.57920
   A12        2.06436  -0.00372   0.00000  -0.01546  -0.01637   2.04799
   A13        1.89990  -0.00201   0.00000  -0.00027  -0.00027   1.89963
   A14        1.89631  -0.00011   0.00000   0.00008   0.00008   1.89639
   A15        1.92035  -0.00145   0.00000  -0.00130  -0.00130   1.91905
   A16        1.89987  -0.00202   0.00000  -0.00030  -0.00030   1.89958
   A17        1.92637   0.00685   0.00000   0.00369   0.00369   1.93005
   A18        1.92055  -0.00138   0.00000  -0.00193  -0.00193   1.91862
   A19        2.26139  -0.01272   0.00000  -0.05447  -0.05449   2.20691
   A20        1.83839  -0.00158   0.00000   0.00434   0.00429   1.84268
   A21        1.79556   0.00053   0.00000   0.01448   0.01466   1.81022
   A22        1.86062   0.00939   0.00000   0.02164   0.02122   1.88184
   A23        1.85978   0.00737   0.00000   0.01867   0.01862   1.87840
   A24        1.80001  -0.00158   0.00000   0.00617   0.00583   1.80584
    D1       -3.11669  -0.00031   0.00000   0.00873   0.00874  -3.10795
    D2        0.02009   0.00111   0.00000   0.00999   0.01000   0.03009
    D3        0.01139  -0.00056   0.00000   0.00517   0.00516   0.01655
    D4       -3.13502   0.00086   0.00000   0.00643   0.00642  -3.12860
    D5        1.56156   0.00055   0.00000   0.00156   0.00156   1.56312
    D6       -2.92901   0.00333   0.00000   0.02618   0.02615  -2.90286
    D7       -0.23710  -0.00327   0.00000  -0.02513  -0.02508  -0.26219
    D8       -1.56577   0.00082   0.00000   0.00522   0.00521  -1.56056
    D9        0.22685   0.00360   0.00000   0.02984   0.02980   0.25665
   D10        2.91876  -0.00300   0.00000  -0.02147  -0.02143   2.89732
   D11       -3.06697   0.00113   0.00000   0.00189   0.00179  -3.06518
   D12       -0.83889   0.00192   0.00000  -0.01103  -0.01092  -0.84980
   D13        1.04117  -0.00012   0.00000   0.00232   0.00230   1.04347
   D14        1.12502  -0.00270   0.00000  -0.00935  -0.00917   1.11585
   D15       -2.93008  -0.00191   0.00000  -0.02227  -0.02187  -2.95195
   D16       -1.05002  -0.00396   0.00000  -0.00892  -0.00866  -1.05868
   D17       -0.93981   0.00153   0.00000   0.00781   0.00743  -0.93238
   D18        1.28827   0.00232   0.00000  -0.00511  -0.00527   1.28300
   D19       -3.11485   0.00028   0.00000   0.00824   0.00794  -3.10691
   D20        1.07958  -0.00150   0.00000  -0.00699  -0.00701   1.07256
   D21       -1.14019   0.00196   0.00000   0.01309   0.01326  -1.12693
   D22       -3.05368  -0.00334   0.00000  -0.01088  -0.01103  -3.06470
   D23       -3.10654  -0.00056   0.00000  -0.00581  -0.00583  -3.11237
   D24        0.95688   0.00290   0.00000   0.01427   0.01445   0.97133
   D25       -0.95661  -0.00241   0.00000  -0.00969  -0.00984  -0.96645
   D26       -1.00937   0.00041   0.00000  -0.00506  -0.00509  -1.01446
   D27        3.05405   0.00387   0.00000   0.01502   0.01519   3.06924
   D28        1.14056  -0.00143   0.00000  -0.00895  -0.00910   1.13146
         Item               Value     Threshold  Converged?
 Maximum Force            0.036900     0.000450     NO 
 RMS     Force            0.008492     0.000300     NO 
 Maximum Displacement     0.082030     0.001800     NO 
 RMS     Displacement     0.027392     0.001200     NO 
 Predicted change in Energy=-2.880809D-03
 GradGradGradGradGradGradGradGradGradGradGradGradGradGradGradGradGradGrad

                          Input orientation:                          
 ---------------------------------------------------------------------
 Center     Atomic      Atomic             Coordinates (Angstroms)
 Number     Number       Type             X           Y           Z
 ---------------------------------------------------------------------
      1          6           0       -0.966260    0.686240   -0.207633
      2          6           0       -1.905072   -0.303601    0.316511
      3          8           0       -3.000290   -0.508885   -0.190534
      4          6           0        0.257700    0.853237    0.365928
      5          6           0        2.957130   -0.355184    0.097983
      6          1           0        2.979292   -0.721114    1.129316
      7          1           0        3.514702   -1.052051   -0.536575
      8          1           0        3.446311    0.623359    0.063092
      9          7           0        1.569840   -0.237011   -0.361259
     10          1           0        1.165320   -1.177817   -0.382157
     11          1           0        1.592095    0.035246   -1.349148
     12          1           0        0.824299    1.750247    0.088725
     13          1           0        0.442312    0.427882    1.360282
     14          1           0       -1.280218    1.261107   -1.072567
     15          1           0       -1.562972   -0.867186    1.208356
 ---------------------------------------------------------------------
                    Distance matrix (angstroms):
                    1          2          3          4          5
     1  C    0.000000
     2  C    1.461464   0.000000
     3  O    2.359215   1.224230   0.000000
     4  C    1.361961   2.453222   3.574847   0.000000
     5  C    4.070744   4.867384   5.966383   2.969680   0.000000
     6  H    4.397211   4.969102   6.127189   3.235491   1.094553
     7  H    4.817560   5.537317   6.546748   3.879780   1.095068
     8  H    4.421315   5.436982   6.550189   3.211198   1.094560
     9  N    2.703294   3.541019   4.581392   1.854495   1.466098
    10  H    2.837041   3.267981   4.223329   2.347038   2.029247
    11  H    2.876114   3.888369   4.767439   2.321896   2.027299
    12  H    2.103816   3.423396   4.450747   1.096587   2.996981
    13  H    2.123483   2.671093   3.890254   1.097155   2.920771
    14  H    1.084967   2.183641   2.620974   2.144951   4.683770
    15  H    2.184999   1.109075   2.037438   2.642799   4.682564
                    6          7          8          9         10
     6  H    0.000000
     7  H    1.780836   0.000000
     8  H    1.778356   1.780808   0.000000
     9  N    2.107777   2.116014   2.107476   0.000000
    10  H    2.404916   2.357808   2.940306   1.024299   0.000000
    11  H    2.939248   2.353488   2.403833   1.024961   1.608953
    12  H    3.440124   3.934736   2.854029   2.169681   2.985228
    13  H    2.794602   3.902287   3.277944   2.162661   2.477318
    14  H    5.188537   5.350630   4.902705   3.297445   3.522169
    15  H    4.545299   5.372312   5.350352   3.560242   3.173296
                   11         12         13         14         15
    11  H    0.000000
    12  H    2.366056   0.000000
    13  H    2.969372   1.873878   0.000000
    14  H    3.135190   2.452926   3.095178   0.000000
    15  H    4.160488   3.715319   2.391955   3.132441   0.000000
 Stoichiometry    C4H9NO
 Framework group  C1[X(C4H9NO)]
 Deg. of freedom    39
 Full point group                 C1      NOp   1
 Largest Abelian subgroup         C1      NOp   1
 Largest concise Abelian subgroup C1      NOp   1
                         Standard orientation:                         
 ---------------------------------------------------------------------
 Center     Atomic      Atomic             Coordinates (Angstroms)
 Number     Number       Type             X           Y           Z
 ---------------------------------------------------------------------
      1          6           0       -0.967800    0.688908   -0.217063
      2          6           0       -1.909715   -0.290531    0.320869
      3          8           0       -3.004826   -0.500775   -0.184372
      4          6           0        0.255877    0.861561    0.355428
      5          6           0        2.952605   -0.357475    0.109239
      6          1           0        2.972600   -0.707758    1.146035
      7          1           0        3.509205   -1.065275   -0.513969
      8          1           0        3.444269    0.619210    0.060111
      9          7           0        1.566172   -0.242851   -0.353480
     10          1           0        1.159331   -1.182860   -0.360602
     11          1           0        1.590307    0.014320   -1.345360
     12          1           0        0.825049    1.752852    0.065352
     13          1           0        0.438218    0.450895    1.356355
     14          1           0       -1.279270    1.251353   -1.091017
     15          1           0       -1.570107   -0.841357    1.221594
 ---------------------------------------------------------------------
 Rotational constants (GHZ):          11.2692842           1.2835111           1.2292667
 Standard basis: STO-3G (5D, 7F)
 There are    39 symmetry adapted cartesian basis functions of A   symmetry.
 There are    39 symmetry adapted basis functions of A   symmetry.
    39 basis functions,   117 primitive gaussians,    39 cartesian basis functions
    24 alpha electrons       24 beta electrons
       nuclear repulsion energy       226.1693012720 Hartrees.
 NAtoms=   15 NActive=   15 NUniq=   15 SFac= 1.00D+00 NAtFMM=   60 NAOKFM=F Big=F
 Integral buffers will be    131072 words long.
 Raffenetti 1 integral format.
 Two-electron integral symmetry is turned on.
 External calculation of energy, first and second derivatives.
 Running external command "~/scripts/MiMe -H 'hf 6-31g(d)' -EF 'wb97xd def2svp' -c 12 -m 48GB R"
         input file       "/local/jobs/1157669/Gau-303284.EIn"
         output file      "/local/jobs/1157669/Gau-303284.EOu"
         message file     "/local/jobs/1157669/Gau-303284.EMs"
         fchk file        "/local/jobs/1157669/Gau-303284.EFC"
         mat. el file     "/local/jobs/1157669/Gau-303284.EUF"
 Read checkpoint file Gau-303284_H.chk type G16
 Write formatted file Gau-303284_H.fchk

deriv: 2

spelevel: wb97xd def2svp
gradlevel: wb97xd def2svp
hesslevel: hf 6-31g(d)

runspe: False
runforce: True
runfreq: True

Running Gaussian ...

Parsing files ...
SPE file: Gau-303284_F.out
FORCE file: Gau-303284_F.out
HESS file: Gau-303284_H.out

 ExternalExternalExternalExternalExternalExternalExternalExternalExternalExternal
 Output from external command:
 "~/scripts/MiMe -H 'hf 6-31g(d)' -EF 'wb97xd def2svp' -c 12 -m 48GB R /local/jobs/1157669/Gau-303284.EIn /local/jobs/1157669/Gau-303284.EOu /local/jobs/1157669/Gau-303284.EMs /local/jobs/1157669/Gau-303284.EFC /local/jobs/1157669/Gau-303284.EUF"
  
 --------------------------------------------------
 Force calculation at wb97xd def2svp
 Hessian calculation at hf 6-31g(d)
 ExternalExternalExternalExternalExternalExternalExternalExternalExternalExternal

 Recovered energy= -287.429610947     dipole=      8.794000000000     -0.570300000000     -0.169200000000
 Energy=    -287.429611     NIter=   0.
 Dipole moment=       8.794000      -0.570300      -0.169200
 ***** Axes restored to original set *****
 -------------------------------------------------------------------
 Center     Atomic                   Forces (Hartrees/Bohr)
 Number     Number              X              Y              Z
 -------------------------------------------------------------------
      1        6          -0.021485654   -0.019395162    0.009050618
      2        6          -0.008271781    0.021901190   -0.034047693
      3        8           0.007368823   -0.005819019    0.012561175
      4        6           0.006524236    0.016726838    0.013508021
      5        6          -0.003165354    0.002272822    0.001219858
      6        1          -0.000326633   -0.000333776    0.002883461
      7        1           0.005091675   -0.001982470   -0.000200752
      8        1           0.000844151    0.002795928    0.000414667
      9        7           0.025303467   -0.026752662   -0.025644261
     10        1          -0.005513047    0.003063179    0.001737701
     11        1          -0.004450376    0.001175641    0.001920251
     12        1          -0.000493607    0.002235793    0.008911910
     13        1          -0.002309358    0.006760107    0.003227949
     14        1          -0.001700141    0.002202046   -0.004462685
     15        1           0.002583597   -0.004850455    0.008919781
 -------------------------------------------------------------------
 Cartesian Forces:  Max     0.034047693 RMS     0.011359207
 FormGI is forming the generalized inverse of G from B-inverse, IUseBI=4.

 GradGradGradGradGradGradGradGradGradGradGradGradGradGradGradGradGradGrad
 Berny optimization.
 Internal  Forces:  Max     0.031129515 RMS     0.006734658
 Search for a saddle point.
 Step number   2 out of a maximum of   50
 All quantities printed in internal units (Hartrees-Bohrs-Radians)
 Swapping is turned off.
 Second derivative matrix not updated -- analytic derivatives used.
 ITU=  0  0
     Eigenvalues ---   -0.03783   0.00502   0.00917   0.01514   0.01811
     Eigenvalues ---    0.02171   0.03399   0.04486   0.05874   0.06154
     Eigenvalues ---    0.06175   0.06814   0.07406   0.11153   0.11540
     Eigenvalues ---    0.12181   0.12631   0.13321   0.14242   0.16672
     Eigenvalues ---    0.17792   0.21083   0.21777   0.23783   0.25206
     Eigenvalues ---    0.27640   0.33157   0.34631   0.34934   0.35092
     Eigenvalues ---    0.35425   0.35785   0.36042   0.38175   0.39413
     Eigenvalues ---    0.43957   0.44182   0.59931   0.85127
 Eigenvectors required to have negative eigenvalues:
                          R6        A11       A10       A19       D6
   1                    0.85483  -0.18515  -0.17553   0.17292  -0.17222
                          D9        D10       D7        R2        R1
   1                   -0.15967   0.15906   0.14651  -0.14270   0.09452
 RFO step:  Lambda0=4.764233318D-03 Lambda=-1.22569160D-02.
 Linear search not attempted -- option 19 set.
 Maximum step size (   0.100) exceeded in Quadratic search.
    -- Step size scaled by   0.280
 Iteration  1 RMS(Cart)=  0.02577146 RMS(Int)=  0.00033780
 Iteration  2 RMS(Cart)=  0.00038057 RMS(Int)=  0.00017391
 Iteration  3 RMS(Cart)=  0.00000022 RMS(Int)=  0.00017391
 Variable       Old X    -DE/DX   Delta X   Delta X   Delta X     New X
                                 (Linear)    (Quad)   (Total)
    R1        2.76177  -0.01319   0.00000  -0.02173  -0.02173   2.74003
    R2        2.57373   0.02342   0.00000   0.02386   0.02386   2.59760
    R3        2.05029   0.00522   0.00000   0.00431   0.00431   2.05460
    R4        2.31346  -0.01082   0.00000  -0.00077  -0.00077   2.31269
    R5        2.09585   0.01043   0.00000   0.01243   0.01243   2.10828
    R6        3.50449   0.03113   0.00000  -0.04821  -0.04821   3.45627
    R7        2.07225  -0.00068   0.00000   0.00149   0.00149   2.07373
    R8        2.07332  -0.00008   0.00000   0.00246   0.00246   2.07578
    R9        2.06840   0.00282   0.00000   0.00168   0.00168   2.07009
   R10        2.06938   0.00397   0.00000   0.00206   0.00206   2.07144
   R11        2.06842   0.00286   0.00000   0.00179   0.00179   2.07021
   R12        2.77052   0.00344   0.00000  -0.00182  -0.00182   2.76870
   R13        1.93564  -0.00067   0.00000  -0.00111  -0.00111   1.93454
   R14        1.93689  -0.00164   0.00000  -0.00156  -0.00156   1.93534
    A1        2.10517   0.00221   0.00000   0.00233   0.00233   2.10750
    A2        2.04754  -0.00155   0.00000   0.00491   0.00491   2.05245
    A3        2.13035  -0.00066   0.00000  -0.00729  -0.00729   2.12306
    A4        2.14089   0.01727   0.00000   0.02178   0.02178   2.16267
    A5        2.02020  -0.00830   0.00000  -0.01110  -0.01110   2.00909
    A6        2.12209  -0.00897   0.00000  -0.01067  -0.01067   2.11142
    A7        1.98083  -0.00902   0.00000  -0.01237  -0.01230   1.96853
    A8        2.04675   0.00249   0.00000   0.00063   0.00050   2.04725
    A9        2.07756  -0.00138   0.00000  -0.00746  -0.00759   2.06997
   A10        1.58699   0.00554   0.00000   0.02821   0.02823   1.61522
   A11        1.57920   0.00794   0.00000   0.03220   0.03222   1.61142
   A12        2.04799  -0.00345   0.00000  -0.01783  -0.01878   2.02922
   A13        1.89963  -0.00163   0.00000   0.00027   0.00027   1.89990
   A14        1.89639   0.00007   0.00000   0.00022   0.00021   1.89660
   A15        1.91905  -0.00156   0.00000  -0.00203  -0.00203   1.91702
   A16        1.89958  -0.00165   0.00000   0.00022   0.00023   1.89980
   A17        1.93005   0.00609   0.00000   0.00379   0.00379   1.93385
   A18        1.91862  -0.00142   0.00000  -0.00248  -0.00249   1.91613
   A19        2.20691  -0.01017   0.00000  -0.04746  -0.04748   2.15943
   A20        1.84268  -0.00152   0.00000  -0.00115  -0.00116   1.84153
   A21        1.81022   0.00036   0.00000   0.01080   0.01101   1.82123
   A22        1.88184   0.00752   0.00000   0.02079   0.02032   1.90216
   A23        1.87840   0.00599   0.00000   0.01850   0.01840   1.89679
   A24        1.80584  -0.00118   0.00000   0.00724   0.00695   1.81279
    D1       -3.10795  -0.00031   0.00000   0.00894   0.00895  -3.09900
    D2        0.03009   0.00094   0.00000   0.01034   0.01035   0.04044
    D3        0.01655  -0.00049   0.00000   0.00573   0.00573   0.02228
    D4       -3.12860   0.00076   0.00000   0.00714   0.00713  -3.12147
    D5        1.56312   0.00037   0.00000   0.00213   0.00213   1.56525
    D6       -2.90286   0.00303   0.00000   0.03025   0.03018  -2.87268
    D7       -0.26219  -0.00285   0.00000  -0.02644  -0.02636  -0.28855
    D8       -1.56056   0.00056   0.00000   0.00536   0.00535  -1.55520
    D9        0.25665   0.00322   0.00000   0.03348   0.03341   0.29006
   D10        2.89732  -0.00266   0.00000  -0.02320  -0.02313   2.87419
   D11       -3.06518   0.00103   0.00000   0.00125   0.00114  -3.06404
   D12       -0.84980   0.00167   0.00000  -0.01100  -0.01085  -0.86065
   D13        1.04347  -0.00003   0.00000   0.00059   0.00053   1.04400
   D14        1.11585  -0.00214   0.00000  -0.01056  -0.01041   1.10544
   D15       -2.95195  -0.00150   0.00000  -0.02281  -0.02241  -2.97436
   D16       -1.05868  -0.00320   0.00000  -0.01122  -0.01102  -1.06970
   D17       -0.93238   0.00103   0.00000   0.00605   0.00569  -0.92669
   D18        1.28300   0.00167   0.00000  -0.00621  -0.00630   1.27670
   D19       -3.10691  -0.00002   0.00000   0.00538   0.00508  -3.10183
   D20        1.07256  -0.00141   0.00000  -0.00765  -0.00767   1.06489
   D21       -1.12693   0.00184   0.00000   0.01465   0.01485  -1.11208
   D22       -3.06470  -0.00309   0.00000  -0.01194  -0.01210  -3.07681
   D23       -3.11237  -0.00055   0.00000  -0.00620  -0.00623  -3.11859
   D24        0.97133   0.00269   0.00000   0.01610   0.01629   0.98762
   D25       -0.96645  -0.00223   0.00000  -0.01049  -0.01066  -0.97711
   D26       -1.01446   0.00036   0.00000  -0.00511  -0.00513  -1.01959
   D27        3.06924   0.00360   0.00000   0.01720   0.01738   3.08662
   D28        1.13146  -0.00132   0.00000  -0.00940  -0.00956   1.12189
         Item               Value     Threshold  Converged?
 Maximum Force            0.031130     0.000450     NO 
 RMS     Force            0.006735     0.000300     NO 
 Maximum Displacement     0.077916     0.001800     NO 
 RMS     Displacement     0.025888     0.001200     NO 
 Predicted change in Energy=-1.824777D-03
 GradGradGradGradGradGradGradGradGradGradGradGradGradGradGradGradGradGrad

                          Input orientation:                          
 ---------------------------------------------------------------------
 Center     Atomic      Atomic             Coordinates (Angstroms)
 Number     Number       Type             X           Y           Z
 ---------------------------------------------------------------------
      1          6           0       -0.952207    0.679607   -0.208626
      2          6           0       -1.889118   -0.298068    0.309777
      3          8           0       -2.989429   -0.515841   -0.179752
      4          6           0        0.288074    0.836419    0.362872
      5          6           0        2.933804   -0.346444    0.101356
      6          1           0        2.938060   -0.703307    1.137032
      7          1           0        3.516401   -1.040859   -0.515031
      8          1           0        3.408936    0.640119    0.068467
      9          7           0        1.555315   -0.249524   -0.385460
     10          1           0        1.140412   -1.185286   -0.399261
     11          1           0        1.574390    0.025052   -1.371918
     12          1           0        0.847553    1.745867    0.109662
     13          1           0        0.461149    0.422566    1.365556
     14          1           0       -1.260534    1.264332   -1.071841
     15          1           0       -1.538614   -0.860161    1.207486
 ---------------------------------------------------------------------
                    Distance matrix (angstroms):
                    1          2          3          4          5
     1  C    0.000000
     2  C    1.449963   0.000000
     3  O    2.362245   1.223825   0.000000
     4  C    1.374590   2.455615   3.586791   0.000000
     5  C    4.031123   4.827666   5.932319   2.909887   0.000000
     6  H    4.342514   4.914287   6.074882   3.161093   1.095442
     7  H    4.798161   5.518305   6.535586   3.836272   1.096159
     8  H    4.370116   5.385889   6.506684   3.140858   1.095509
     9  N    2.679967   3.514232   4.557185   1.828981   1.465133
    10  H    2.809488   3.235420   4.189502   2.322632   2.042187
    11  H    2.857514   3.863728   4.747870   2.307038   2.038763
    12  H    2.115975   3.421561   4.463352   1.097373   2.954704
    13  H    2.131125   2.675395   3.895519   1.098456   2.881597
    14  H    1.087249   2.178320   2.637028   2.153996   4.643648
    15  H    2.172586   1.115654   2.036627   2.632213   4.635725
                    6          7          8          9         10
     6  H    0.000000
     7  H    1.782619   0.000000
     8  H    1.779985   1.782612   0.000000
     9  N    2.106154   2.118693   2.105570   0.000000
    10  H    2.413305   2.383189   2.949081   1.023712   0.000000
    11  H    2.947021   2.375254   2.412173   1.024137   1.612240
    12  H    3.379965   3.908815   2.790172   2.174317   2.989386
    13  H    2.730367   3.874634   3.227881   2.171396   2.482170
    14  H    5.136041   5.333203   4.847051   3.269845   3.495359
    15  H    4.479975   5.343490   5.294001   3.533093   3.140783
                   11         12         13         14         15
    11  H    0.000000
    12  H    2.384235   0.000000
    13  H    2.981793   1.864860   0.000000
    14  H    3.108481   2.464114   3.100592   0.000000
    15  H    4.138565   3.700052   2.381055   3.128279   0.000000
 Stoichiometry    C4H9NO
 Framework group  C1[X(C4H9NO)]
 Deg. of freedom    39
 Full point group                 C1      NOp   1
 Largest Abelian subgroup         C1      NOp   1
 Largest concise Abelian subgroup C1      NOp   1
                         Standard orientation:                         
 ---------------------------------------------------------------------
 Center     Atomic      Atomic             Coordinates (Angstroms)
 Number     Number       Type             X           Y           Z
 ---------------------------------------------------------------------
      1          6           0       -0.955200    0.686401   -0.223413
      2          6           0       -1.898487   -0.273116    0.316893
      3          8           0       -2.998858   -0.497143   -0.169669
      4          6           0        0.284630    0.850781    0.346936
      5          6           0        2.924558   -0.352224    0.121098
      6          1           0        2.924600   -0.683270    1.165321
      7          1           0        3.504795   -1.064813   -0.476486
      8          1           0        3.405042    0.630685    0.064847
      9          7           0        1.547694   -0.260117   -0.371220
     10          1           0        1.127814   -1.193721   -0.362764
     11          1           0        1.570433   -0.010233   -1.364143
     12          1           0        0.849535    1.750680    0.072545
     13          1           0        0.453255    0.461047    1.359990
     14          1           0       -1.258470    1.251131   -1.101602
     15          1           0       -1.552996   -0.814590    1.229102
 ---------------------------------------------------------------------
 Rotational constants (GHZ):          11.3256871           1.2985357           1.2448298
 Standard basis: STO-3G (5D, 7F)
 There are    39 symmetry adapted cartesian basis functions of A   symmetry.
 There are    39 symmetry adapted basis functions of A   symmetry.
    39 basis functions,   117 primitive gaussians,    39 cartesian basis functions
    24 alpha electrons       24 beta electrons
       nuclear repulsion energy       226.8391671036 Hartrees.
 NAtoms=   15 NActive=   15 NUniq=   15 SFac= 1.00D+00 NAtFMM=   60 NAOKFM=F Big=F
 Integral buffers will be    131072 words long.
 Raffenetti 1 integral format.
 Two-electron integral symmetry is turned on.
 External calculation of energy, first and second derivatives.
 Running external command "~/scripts/MiMe -H 'hf 6-31g(d)' -EF 'wb97xd def2svp' -c 12 -m 48GB R"
         input file       "/local/jobs/1157669/Gau-303284.EIn"
         output file      "/local/jobs/1157669/Gau-303284.EOu"
         message file     "/local/jobs/1157669/Gau-303284.EMs"
         fchk file        "/local/jobs/1157669/Gau-303284.EFC"
         mat. el file     "/local/jobs/1157669/Gau-303284.EUF"
 Read checkpoint file Gau-303284_H.chk type G16
 Write formatted file Gau-303284_H.fchk

deriv: 2

spelevel: wb97xd def2svp
gradlevel: wb97xd def2svp
hesslevel: hf 6-31g(d)

runspe: False
runforce: True
runfreq: True

Running Gaussian ...

Parsing files ...
SPE file: Gau-303284_F.out
FORCE file: Gau-303284_F.out
HESS file: Gau-303284_H.out

 ExternalExternalExternalExternalExternalExternalExternalExternalExternalExternal
 Output from external command:
 "~/scripts/MiMe -H 'hf 6-31g(d)' -EF 'wb97xd def2svp' -c 12 -m 48GB R /local/jobs/1157669/Gau-303284.EIn /local/jobs/1157669/Gau-303284.EOu /local/jobs/1157669/Gau-303284.EMs /local/jobs/1157669/Gau-303284.EFC /local/jobs/1157669/Gau-303284.EUF"
  
 --------------------------------------------------
 Force calculation at wb97xd def2svp
 Hessian calculation at hf 6-31g(d)
 ExternalExternalExternalExternalExternalExternalExternalExternalExternalExternal

 Recovered energy= -287.431387603     dipole=      9.198900000000     -0.573000000000     -0.226100000000
 Energy=    -287.431388     NIter=   0.
 Dipole moment=       9.198900      -0.573000      -0.226100
 ***** Axes restored to original set *****
 -------------------------------------------------------------------
 Center     Atomic                   Forces (Hartrees/Bohr)
 Number     Number              X              Y              Z
 -------------------------------------------------------------------
      1        6          -0.014011159   -0.012970503    0.007588857
      2        6          -0.007638933    0.015400390   -0.025630533
      3        8           0.006083859   -0.004349036    0.009921384
      4        6           0.001861535    0.012920877    0.009304081
      5        6          -0.002331130    0.001337105    0.000405607
      6        1          -0.000512424   -0.000135499    0.002193384
      7        1           0.004105764   -0.001389920    0.000143777
      8        1           0.000406335    0.002182003    0.000354253
      9        7           0.021450604   -0.021632424   -0.020516918
     10        1          -0.004618627    0.002374882    0.001824435
     11        1          -0.003653132    0.001271676    0.001412072
     12        1          -0.000272452    0.001484896    0.007317463
     13        1          -0.001746420    0.005246100    0.002286920
     14        1          -0.001153016    0.001679646   -0.003215010
     15        1           0.002029195   -0.003420190    0.006610229
 -------------------------------------------------------------------
 Cartesian Forces:  Max     0.025630533 RMS     0.008672027
 FormGI is forming the generalized inverse of G from B-inverse, IUseBI=4.

 GradGradGradGradGradGradGradGradGradGradGradGradGradGradGradGradGradGrad
 Berny optimization.
 Internal  Forces:  Max     0.025585939 RMS     0.005140716
 Search for a saddle point.
 Step number   3 out of a maximum of   50
 All quantities printed in internal units (Hartrees-Bohrs-Radians)
 Swapping is turned off.
 Second derivative matrix not updated -- analytic derivatives used.
 ITU=  0  0  0
     Eigenvalues ---   -0.04324   0.00525   0.00893   0.01447   0.01817
     Eigenvalues ---    0.02382   0.03426   0.04550   0.05895   0.06146
     Eigenvalues ---    0.06155   0.06793   0.07672   0.11118   0.11647
     Eigenvalues ---    0.12137   0.12779   0.13370   0.14346   0.16652
     Eigenvalues ---    0.18053   0.21088   0.21777   0.23824   0.25651
     Eigenvalues ---    0.27183   0.32208   0.34558   0.34787   0.34977
     Eigenvalues ---    0.35270   0.35882   0.37130   0.37709   0.39322
     Eigenvalues ---    0.44269   0.44414   0.56759   0.85214
 Eigenvectors required to have negative eigenvalues:
                          R6        A11       A10       D6        R2
   1                    0.87247  -0.17647  -0.17133  -0.16876  -0.15804
                          D10       D9        D7        A19       R1
   1                    0.15412  -0.15082   0.13618   0.12803   0.09405
 RFO step:  Lambda0=4.040292427D-03 Lambda=-7.52605598D-03.
 Linear search not attempted -- option 19 set.
 Maximum step size (   0.100) exceeded in Quadratic search.
    -- Step size scaled by   0.331
 Iteration  1 RMS(Cart)=  0.02382387 RMS(Int)=  0.00029926
 Iteration  2 RMS(Cart)=  0.00030907 RMS(Int)=  0.00017171
 Iteration  3 RMS(Cart)=  0.00000019 RMS(Int)=  0.00017171
 Variable       Old X    -DE/DX   Delta X   Delta X   Delta X     New X
                                 (Linear)    (Quad)   (Total)
    R1        2.74003  -0.00871   0.00000  -0.01909  -0.01909   2.72094
    R2        2.59760   0.01564   0.00000   0.02440   0.02440   2.62200
    R3        2.05460   0.00378   0.00000   0.00387   0.00387   2.05848
    R4        2.31269  -0.00866   0.00000  -0.00045  -0.00045   2.31225
    R5        2.10828   0.00768   0.00000   0.01220   0.01220   2.12048
    R6        3.45627   0.02559   0.00000  -0.05679  -0.05679   3.39948
    R7        2.07373  -0.00060   0.00000   0.00168   0.00168   2.07542
    R8        2.07578  -0.00016   0.00000   0.00237   0.00237   2.07815
    R9        2.07009   0.00212   0.00000   0.00137   0.00137   2.07145
   R10        2.07144   0.00298   0.00000   0.00163   0.00163   2.07307
   R11        2.07021   0.00213   0.00000   0.00147   0.00147   2.07168
   R12        2.76870   0.00247   0.00000  -0.00092  -0.00092   2.76778
   R13        1.93454  -0.00032   0.00000  -0.00077  -0.00077   1.93376
   R14        1.93534  -0.00109   0.00000  -0.00124  -0.00124   1.93409
    A1        2.10750   0.00106   0.00000   0.00113   0.00113   2.10862
    A2        2.05245  -0.00077   0.00000   0.00559   0.00559   2.05804
    A3        2.12306  -0.00029   0.00000  -0.00676  -0.00676   2.11630
    A4        2.16267   0.01364   0.00000   0.02128   0.02128   2.18395
    A5        2.00909  -0.00670   0.00000  -0.01130  -0.01130   1.99779
    A6        2.11142  -0.00693   0.00000  -0.00998  -0.00998   2.10144
    A7        1.96853  -0.00552   0.00000  -0.00906  -0.00898   1.95955
    A8        2.04725   0.00202   0.00000   0.00018  -0.00002   2.04723
    A9        2.06997  -0.00124   0.00000  -0.00927  -0.00946   2.06051
   A10        1.61522   0.00385   0.00000   0.02910   0.02909   1.64431
   A11        1.61142   0.00552   0.00000   0.03182   0.03183   1.64325
   A12        2.02922  -0.00296   0.00000  -0.01996  -0.02091   2.00831
   A13        1.89990  -0.00126   0.00000   0.00086   0.00087   1.90077
   A14        1.89660   0.00020   0.00000   0.00030   0.00029   1.89690
   A15        1.91702  -0.00157   0.00000  -0.00284  -0.00284   1.91417
   A16        1.89980  -0.00129   0.00000   0.00083   0.00083   1.90063
   A17        1.93385   0.00522   0.00000   0.00383   0.00383   1.93768
   A18        1.91613  -0.00138   0.00000  -0.00298  -0.00298   1.91315
   A19        2.15943  -0.00761   0.00000  -0.03901  -0.03902   2.12041
   A20        1.84153  -0.00146   0.00000  -0.00605  -0.00601   1.83551
   A21        1.82123   0.00014   0.00000   0.00656   0.00676   1.82799
   A22        1.90216   0.00573   0.00000   0.01932   0.01886   1.92102
   A23        1.89679   0.00463   0.00000   0.01783   0.01770   1.91449
   A24        1.81279  -0.00083   0.00000   0.00759   0.00733   1.82011
    D1       -3.09900  -0.00033   0.00000   0.00826   0.00826  -3.09074
    D2        0.04044   0.00075   0.00000   0.00976   0.00976   0.05020
    D3        0.02228  -0.00043   0.00000   0.00606   0.00606   0.02834
    D4       -3.12147   0.00065   0.00000   0.00756   0.00756  -3.11391
    D5        1.56525   0.00020   0.00000   0.00284   0.00283   1.56807
    D6       -2.87268   0.00263   0.00000   0.03388   0.03379  -2.83889
    D7       -0.28855  -0.00235   0.00000  -0.02630  -0.02619  -0.31473
    D8       -1.55520   0.00031   0.00000   0.00497   0.00495  -1.55025
    D9        0.29006   0.00274   0.00000   0.03601   0.03592   0.32597
   D10        2.87419  -0.00224   0.00000  -0.02416  -0.02406   2.85013
   D11       -3.06404   0.00090   0.00000  -0.00032  -0.00041  -3.06446
   D12       -0.86065   0.00143   0.00000  -0.01081  -0.01066  -0.87131
   D13        1.04400   0.00003   0.00000  -0.00217  -0.00224   1.04177
   D14        1.10544  -0.00168   0.00000  -0.01281  -0.01269   1.09275
   D15       -2.97436  -0.00115   0.00000  -0.02331  -0.02293  -2.99729
   D16       -1.06970  -0.00255   0.00000  -0.01467  -0.01451  -1.08421
   D17       -0.92669   0.00065   0.00000   0.00302   0.00271  -0.92398
   D18        1.27670   0.00117   0.00000  -0.00747  -0.00753   1.26917
   D19       -3.10183  -0.00023   0.00000   0.00117   0.00089  -3.10094
   D20        1.06489  -0.00126   0.00000  -0.00756  -0.00758   1.05732
   D21       -1.11208   0.00161   0.00000   0.01555   0.01574  -1.09634
   D22       -3.07681  -0.00270   0.00000  -0.01234  -0.01250  -3.08931
   D23       -3.11859  -0.00052   0.00000  -0.00588  -0.00590  -3.12449
   D24        0.98762   0.00235   0.00000   0.01723   0.01742   1.00504
   D25       -0.97711  -0.00196   0.00000  -0.01066  -0.01082  -0.98793
   D26       -1.01959   0.00031   0.00000  -0.00434  -0.00437  -1.02396
   D27        3.08662   0.00318   0.00000   0.01877   0.01895   3.10557
   D28        1.12189  -0.00113   0.00000  -0.00912  -0.00929   1.11261
         Item               Value     Threshold  Converged?
 Maximum Force            0.025586     0.000450     NO 
 RMS     Force            0.005141     0.000300     NO 
 Maximum Displacement     0.069436     0.001800     NO 
 RMS     Displacement     0.023863     0.001200     NO 
 Predicted change in Energy=-9.706980D-04
 GradGradGradGradGradGradGradGradGradGradGradGradGradGradGradGradGradGrad

                          Input orientation:                          
 ---------------------------------------------------------------------
 Center     Atomic      Atomic             Coordinates (Angstroms)
 Number     Number       Type             X           Y           Z
 ---------------------------------------------------------------------
      1          6           0       -0.938386    0.672307   -0.212234
      2          6           0       -1.874117   -0.293497    0.302378
      3          8           0       -2.979688   -0.523198   -0.168920
      4          6           0        0.318249    0.818111    0.357653
      5          6           0        2.912844   -0.338460    0.103991
      6          1           0        2.901317   -0.686958    1.143220
      7          1           0        3.515355   -1.031140   -0.496538
      8          1           0        3.375957    0.654679    0.071734
      9          7           0        1.541623   -0.258310   -0.404458
     10          1           0        1.114127   -1.188026   -0.409514
     11          1           0        1.554732    0.018975   -1.389571
     12          1           0        0.870039    1.740316    0.131271
     13          1           0        0.477453    0.416185    1.368824
     14          1           0       -1.240822    1.266761   -1.073471
     15          1           0       -1.514494   -0.853277    1.205954
 ---------------------------------------------------------------------
                    Distance matrix (angstroms):
                    1          2          3          4          5
     1  C    0.000000
     2  C    1.439860   0.000000
     3  O    2.366014   1.223589   0.000000
     4  C    1.387501   2.458698   3.598996   0.000000
     5  C    3.994198   4.791281   5.901740   2.852003   0.000000
     6  H    4.292804   4.864833   6.027830   3.091049   1.096166
     7  H    4.776857   5.498072   6.523106   3.790891   1.097024
     8  H    4.323714   5.339992   6.468348   3.075393   1.096284
     9  N    2.655832   3.488286   4.535184   1.798927   1.464647
    10  H    2.777151   3.199465   4.154419   2.290536   2.054467
    11  H    2.833478   3.836318   4.727039   2.284797   2.050111
    12  H    2.128154   3.419951   4.475936   1.098264   2.914636
    13  H    2.137742   2.677843   3.898579   1.099708   2.846123
    14  H    1.089299   2.174495   2.654396   2.163355   4.606093
    15  H    2.161149   1.122111   2.036179   2.621469   4.591370
                    6          7          8          9         10
     6  H    0.000000
     7  H    1.784464   0.000000
     8  H    1.781392   1.784475   0.000000
     9  N    2.104236   2.121641   2.103590   0.000000
    10  H    2.419938   2.407921   2.956864   1.023304   0.000000
    11  H    2.954092   2.396725   2.419999   1.023478   1.616013
    12  H    3.322919   3.882372   2.731626   2.175440   2.987845
    13  H    2.672627   3.847489   3.184438   2.175300   2.478171
    14  H    5.088030   5.313607   4.795914   3.242749   3.465920
    15  H    4.419387   5.313144   5.241842   3.505320   3.103456
                   11         12         13         14         15
    11  H    0.000000
    12  H    2.396827   0.000000
    13  H    2.987816   1.854449   0.000000
    14  H    3.077663   2.476165   3.104956   0.000000
    15  H    4.113116   3.683431   2.367682   3.124938   0.000000
 Stoichiometry    C4H9NO
 Framework group  C1[X(C4H9NO)]
 Deg. of freedom    39
 Full point group                 C1      NOp   1
 Largest Abelian subgroup         C1      NOp   1
 Largest concise Abelian subgroup C1      NOp   1
                         Standard orientation:                         
 ---------------------------------------------------------------------
 Center     Atomic      Atomic             Coordinates (Angstroms)
 Number     Number       Type             X           Y           Z
 ---------------------------------------------------------------------
      1          6           0       -0.942777    0.684593   -0.228056
      2          6           0       -1.888152   -0.258158    0.311091
      3          8           0       -2.994254   -0.492011   -0.156905
      4          6           0        0.313386    0.836150    0.341370
      5          6           0        2.898812   -0.348948    0.129157
      6          1           0        2.881310   -0.667364    1.177912
      7          1           0        3.497175   -1.063610   -0.449359
      8          1           0        3.370418    0.638936    0.069890
      9          7           0        1.529805   -0.271928   -0.385698
     10          1           0        1.094461   -1.197787   -0.365436
     11          1           0        1.548128   -0.023154   -1.378312
     12          1           0        0.873628    1.746816    0.090373
     13          1           0        0.466237    0.462094    1.364149
     14          1           0       -1.237658    1.256596   -1.106936
     15          1           0       -1.535916   -0.794768    1.231479
 ---------------------------------------------------------------------
 Rotational constants (GHZ):          11.4152347           1.3125490           1.2596046
 Standard basis: STO-3G (5D, 7F)
 There are    39 symmetry adapted cartesian basis functions of A   symmetry.
 There are    39 symmetry adapted basis functions of A   symmetry.
    39 basis functions,   117 primitive gaussians,    39 cartesian basis functions
    24 alpha electrons       24 beta electrons
       nuclear repulsion energy       227.5370826592 Hartrees.
 NAtoms=   15 NActive=   15 NUniq=   15 SFac= 1.00D+00 NAtFMM=   60 NAOKFM=F Big=F
 Integral buffers will be    131072 words long.
 Raffenetti 1 integral format.
 Two-electron integral symmetry is turned on.
 External calculation of energy, first and second derivatives.
 Running external command "~/scripts/MiMe -H 'hf 6-31g(d)' -EF 'wb97xd def2svp' -c 12 -m 48GB R"
         input file       "/local/jobs/1157669/Gau-303284.EIn"
         output file      "/local/jobs/1157669/Gau-303284.EOu"
         message file     "/local/jobs/1157669/Gau-303284.EMs"
         fchk file        "/local/jobs/1157669/Gau-303284.EFC"
         mat. el file     "/local/jobs/1157669/Gau-303284.EUF"
 Read checkpoint file Gau-303284_H.chk type G16
 Write formatted file Gau-303284_H.fchk

deriv: 2

spelevel: wb97xd def2svp
gradlevel: wb97xd def2svp
hesslevel: hf 6-31g(d)

runspe: False
runforce: True
runfreq: True

Running Gaussian ...

Parsing files ...
SPE file: Gau-303284_F.out
FORCE file: Gau-303284_F.out
HESS file: Gau-303284_H.out

 ExternalExternalExternalExternalExternalExternalExternalExternalExternalExternal
 Output from external command:
 "~/scripts/MiMe -H 'hf 6-31g(d)' -EF 'wb97xd def2svp' -c 12 -m 48GB R /local/jobs/1157669/Gau-303284.EIn /local/jobs/1157669/Gau-303284.EOu /local/jobs/1157669/Gau-303284.EMs /local/jobs/1157669/Gau-303284.EFC /local/jobs/1157669/Gau-303284.EUF"
  
 --------------------------------------------------
 Force calculation at wb97xd def2svp
 Hessian calculation at hf 6-31g(d)
 ExternalExternalExternalExternalExternalExternalExternalExternalExternalExternal

 Recovered energy= -287.432288227     dipole=      9.619100000000     -0.582400000000     -0.287300000000
 Energy=    -287.432288     NIter=   0.
 Dipole moment=       9.619100      -0.582400      -0.287300
 ***** Axes restored to original set *****
 -------------------------------------------------------------------
 Center     Atomic                   Forces (Hartrees/Bohr)
 Number     Number              X              Y              Z
 -------------------------------------------------------------------
      1        6          -0.007405577   -0.007537804    0.005938346
      2        6          -0.006988375    0.009610652   -0.018023388
      3        8           0.004948715   -0.002984217    0.007522227
      4        6          -0.002153822    0.009855382    0.005889629
      5        6          -0.001459461    0.000552245   -0.000218175
      6        1          -0.000591312    0.000002250    0.001571515
      7        1           0.003110761   -0.000901905    0.000336284
      8        1           0.000094140    0.001611046    0.000285774
      9        7           0.017578615   -0.016713683   -0.015437838
     10        1          -0.003666942    0.001716009    0.001686443
     11        1          -0.002866800    0.001184516    0.000933970
     12        1          -0.000124456    0.000822695    0.005674650
     13        1          -0.001281854    0.003772395    0.001435286
     14        1          -0.000703956    0.001199662   -0.002124688
     15        1           0.001510327   -0.002189244    0.004529965
 -------------------------------------------------------------------
 Cartesian Forces:  Max     0.018023388 RMS     0.006323286
 FormGI is forming the generalized inverse of G from B-inverse, IUseBI=4.

 GradGradGradGradGradGradGradGradGradGradGradGradGradGradGradGradGradGrad
 Berny optimization.
 Internal  Forces:  Max     0.020398241 RMS     0.003750857
 Search for a saddle point.
 Step number   4 out of a maximum of   50
 All quantities printed in internal units (Hartrees-Bohrs-Radians)
 Swapping is turned off.
 Second derivative matrix not updated -- analytic derivatives used.
 ITU=  0  0  0  0
     Eigenvalues ---   -0.04621   0.00547   0.00872   0.01381   0.01789
     Eigenvalues ---    0.02634   0.03473   0.04612   0.05897   0.06117
     Eigenvalues ---    0.06162   0.06758   0.07945   0.11082   0.11827
     Eigenvalues ---    0.12153   0.13196   0.13530   0.14502   0.16645
     Eigenvalues ---    0.18284   0.21109   0.21796   0.23896   0.25764
     Eigenvalues ---    0.26886   0.31360   0.34362   0.34690   0.34819
     Eigenvalues ---    0.35153   0.35771   0.37213   0.38499   0.39323
     Eigenvalues ---    0.44531   0.44586   0.53945   0.85199
 Eigenvectors required to have negative eigenvalues:
                          R6        R2        A11       A10       D6
   1                    0.88129  -0.17189  -0.17118  -0.16982  -0.16565
                          D10       D9        D7        A19       R1
   1                    0.15000  -0.14338   0.12773   0.09461   0.09247
 RFO step:  Lambda0=3.286689929D-03 Lambda=-4.15476037D-03.
 Linear search not attempted -- option 19 set.
 Maximum step size (   0.100) exceeded in Quadratic search.
    -- Step size scaled by   0.391
 Iteration  1 RMS(Cart)=  0.02170008 RMS(Int)=  0.00026048
 Iteration  2 RMS(Cart)=  0.00027289 RMS(Int)=  0.00015576
 Iteration  3 RMS(Cart)=  0.00000015 RMS(Int)=  0.00015576
 Variable       Old X    -DE/DX   Delta X   Delta X   Delta X     New X
                                 (Linear)    (Quad)   (Total)
    R1        2.72094  -0.00477   0.00000  -0.01580  -0.01580   2.70514
    R2        2.62200   0.00891   0.00000   0.02401   0.02401   2.64600
    R3        2.05848   0.00253   0.00000   0.00320   0.00320   2.06168
    R4        2.31225  -0.00681   0.00000  -0.00013  -0.00013   2.31212
    R5        2.12048   0.00522   0.00000   0.01127   0.01127   2.13176
    R6        3.39948   0.02040   0.00000  -0.06567  -0.06567   3.33381
    R7        2.07542  -0.00054   0.00000   0.00190   0.00190   2.07731
    R8        2.07815  -0.00024   0.00000   0.00226   0.00226   2.08041
    R9        2.07145   0.00150   0.00000   0.00098   0.00098   2.07243
   R10        2.07307   0.00209   0.00000   0.00106   0.00106   2.07413
   R11        2.07168   0.00149   0.00000   0.00104   0.00104   2.07272
   R12        2.76778   0.00170   0.00000   0.00026   0.00026   2.76804
   R13        1.93376  -0.00004   0.00000  -0.00023  -0.00023   1.93353
   R14        1.93409  -0.00061   0.00000  -0.00073  -0.00073   1.93336
    A1        2.10862   0.00010   0.00000  -0.00031  -0.00031   2.10832
    A2        2.05804  -0.00014   0.00000   0.00612   0.00612   2.06416
    A3        2.11630   0.00003   0.00000  -0.00581  -0.00581   2.11049
    A4        2.18395   0.01021   0.00000   0.01981   0.01981   2.20377
    A5        1.99779  -0.00517   0.00000  -0.01101  -0.01101   1.98678
    A6        2.10144  -0.00504   0.00000  -0.00880  -0.00880   2.09264
    A7        1.95955  -0.00283   0.00000  -0.00645  -0.00637   1.95318
    A8        2.04723   0.00152   0.00000  -0.00057  -0.00082   2.04640
    A9        2.06051  -0.00111   0.00000  -0.01107  -0.01129   2.04921
   A10        1.64431   0.00243   0.00000   0.02950   0.02947   1.67377
   A11        1.64325   0.00348   0.00000   0.03065   0.03066   1.67392
   A12        2.00831  -0.00231   0.00000  -0.02102  -0.02192   1.98639
   A13        1.90077  -0.00090   0.00000   0.00153   0.00153   1.90230
   A14        1.89690   0.00026   0.00000   0.00044   0.00043   1.89733
   A15        1.91417  -0.00147   0.00000  -0.00354  -0.00354   1.91063
   A16        1.90063  -0.00094   0.00000   0.00154   0.00155   1.90218
   A17        1.93768   0.00423   0.00000   0.00327   0.00327   1.94095
   A18        1.91315  -0.00124   0.00000  -0.00323  -0.00323   1.90992
   A19        2.12041  -0.00514   0.00000  -0.02948  -0.02947   2.09093
   A20        1.83551  -0.00137   0.00000  -0.00874  -0.00868   1.82683
   A21        1.82799  -0.00009   0.00000   0.00272   0.00287   1.83086
   A22        1.92102   0.00406   0.00000   0.01665   0.01629   1.93731
   A23        1.91449   0.00332   0.00000   0.01596   0.01583   1.93032
   A24        1.82011  -0.00054   0.00000   0.00653   0.00632   1.82643
    D1       -3.09074  -0.00036   0.00000   0.00654   0.00654  -3.08421
    D2        0.05020   0.00055   0.00000   0.00785   0.00785   0.05805
    D3        0.02834  -0.00039   0.00000   0.00664   0.00664   0.03497
    D4       -3.11391   0.00052   0.00000   0.00795   0.00795  -3.10596
    D5        1.56807   0.00004   0.00000   0.00387   0.00386   1.57193
    D6       -2.83889   0.00214   0.00000   0.03673   0.03661  -2.80228
    D7       -0.31473  -0.00179   0.00000  -0.02433  -0.02420  -0.33894
    D8       -1.55025   0.00007   0.00000   0.00361   0.00360  -1.54665
    D9        0.32597   0.00217   0.00000   0.03646   0.03635   0.36232
   D10        2.85013  -0.00176   0.00000  -0.02459  -0.02446   2.82567
   D11       -3.06446   0.00075   0.00000  -0.00302  -0.00309  -3.06754
   D12       -0.87131   0.00118   0.00000  -0.01071  -0.01059  -0.88190
   D13        1.04177   0.00004   0.00000  -0.00576  -0.00581   1.03595
   D14        1.09275  -0.00128   0.00000  -0.01574  -0.01563   1.07712
   D15       -2.99729  -0.00086   0.00000  -0.02344  -0.02313  -3.02042
   D16       -1.08421  -0.00200   0.00000  -0.01848  -0.01836  -1.10257
   D17       -0.92398   0.00036   0.00000  -0.00150  -0.00176  -0.92573
   D18        1.26917   0.00079   0.00000  -0.00920  -0.00926   1.25991
   D19       -3.10094  -0.00035   0.00000  -0.00424  -0.00448  -3.10542
   D20        1.05732  -0.00107   0.00000  -0.00621  -0.00622   1.05110
   D21       -1.09634   0.00128   0.00000   0.01498   0.01513  -1.08121
   D22       -3.08931  -0.00220   0.00000  -0.01109  -0.01121  -3.10052
   D23       -3.12449  -0.00045   0.00000  -0.00453  -0.00455  -3.12904
   D24        1.00504   0.00190   0.00000   0.01666   0.01681   1.02184
   D25       -0.98793  -0.00158   0.00000  -0.00941  -0.00954  -0.99747
   D26       -1.02396   0.00026   0.00000  -0.00263  -0.00265  -1.02661
   D27        3.10557   0.00261   0.00000   0.01856   0.01870   3.12427
   D28        1.11261  -0.00087   0.00000  -0.00751  -0.00764   1.10496
         Item               Value     Threshold  Converged?
 Maximum Force            0.020398     0.000450     NO 
 RMS     Force            0.003751     0.000300     NO 
 Maximum Displacement     0.056993     0.001800     NO 
 RMS     Displacement     0.021675     0.001200     NO 
 Predicted change in Energy=-2.695094D-04
 GradGradGradGradGradGradGradGradGradGradGradGradGradGradGradGradGradGrad

                          Input orientation:                          
 ---------------------------------------------------------------------
 Center     Atomic      Atomic             Coordinates (Angstroms)
 Number     Number       Type             X           Y           Z
 ---------------------------------------------------------------------
      1          6           0       -0.924628    0.664430   -0.218686
      2          6           0       -1.860170   -0.289918    0.294313
      3          8           0       -2.970993   -0.530198   -0.158835
      4          6           0        0.347404    0.798981    0.350878
      5          6           0        2.894830   -0.331103    0.105783
      6          1           0        2.871157   -0.672317    1.147765
      7          1           0        3.511196   -1.022818   -0.482700
      8          1           0        3.348068    0.667162    0.072691
      9          7           0        1.528181   -0.263328   -0.416966
     10          1           0        1.087584   -1.186774   -0.412265
     11          1           0        1.532689    0.016149   -1.401134
     12          1           0        0.891055    1.733747    0.153276
     13          1           0        0.490070    0.408839    1.370399
     14          1           0       -1.221052    1.268342   -1.077573
     15          1           0       -1.491201   -0.846722    1.203373
 ---------------------------------------------------------------------
                    Distance matrix (angstroms):
                    1          2          3          4          5
     1  C    0.000000
     2  C    1.431498   0.000000
     3  O    2.370301   1.223522   0.000000
     4  C    1.400205   2.462171   3.610857   0.000000
     5  C    3.960383   4.758915   5.875164   2.797595   0.000000
     6  H    4.249949   4.822869   5.988165   3.028048   1.096684
     7  H    4.753215   5.476538   6.508943   3.744781   1.097583
     8  H    4.282621   5.300081   6.435667   3.016412   1.096837
     9  N    2.629891   3.462304   4.514468   1.764177   1.464783
    10  H    2.741063   3.161148   4.119147   2.252438   2.065596
    11  H    2.803010   3.805222   4.703717   2.255498   2.060779
    12  H    2.139743   3.418238   4.487569   1.099267   2.877668
    13  H    2.142870   2.677658   3.898629   1.100904   2.815961
    14  H    1.090992   2.172261   2.672287   2.172747   4.571548
    15  H    2.151008   1.128077   2.036070   2.610662   4.550587
                    6          7          8          9         10
     6  H    0.000000
     7  H    1.786314   0.000000
     8  H    1.782536   1.786365   0.000000
     9  N    2.102199   2.124498   2.101800   0.000000
    10  H    2.424766   2.430172   2.963451   1.023181   0.000000
    11  H    2.960130   2.416084   2.427257   1.023091   1.619569
    12  H    3.270926   3.855937   2.679741   2.172421   2.981258
    13  H    2.624507   3.822410   3.149433   2.173513   2.465947
    14  H    5.046233   5.291263   4.749882   3.215696   3.435117
    15  H    4.366197   5.281840   5.195076   3.475992   3.062035
                   11         12         13         14         15
    11  H    0.000000
    12  H    2.403753   0.000000
    13  H    2.987082   1.843247   0.000000
    14  H    3.042330   2.488491   3.107934   0.000000
    15  H    4.083126   3.665606   2.351546   3.122369   0.000000
 Stoichiometry    C4H9NO
 Framework group  C1[X(C4H9NO)]
 Deg. of freedom    39
 Full point group                 C1      NOp   1
 Largest Abelian subgroup         C1      NOp   1
 Largest concise Abelian subgroup C1      NOp   1
                         Standard orientation:                         
 ---------------------------------------------------------------------
 Center     Atomic      Atomic             Coordinates (Angstroms)
 Number     Number       Type             X           Y           Z
 ---------------------------------------------------------------------
      1          6           0       -0.930409    0.683412   -0.230814
      2          6           0       -1.878660   -0.246209    0.303799
      3          8           0       -2.990800   -0.485367   -0.146707
      4          6           0        0.341326    0.818066    0.339388
      5          6           0        2.876098   -0.347595    0.132724
      6          1           0        2.845175   -0.661055    1.183201
      7          1           0        3.486157   -1.061629   -0.435318
[...]
     8   1     0.37  -0.14   0.01    -0.27   0.12   0.08     0.06  -0.00   0.13
     9   7    -0.09  -0.02  -0.02     0.03   0.04   0.06    -0.00  -0.04   0.05
    10   1     0.17  -0.16  -0.15    -0.17   0.15   0.10     0.11  -0.09  -0.12
    11   1    -0.00   0.01  -0.01    -0.19   0.14   0.10    -0.12   0.20   0.15
    12   1     0.11  -0.05  -0.03    -0.16   0.02  -0.08    -0.03   0.08   0.17
    13   1    -0.26  -0.12  -0.16    -0.21  -0.02  -0.08    -0.47  -0.14  -0.17
    14   1     0.45   0.17   0.08     0.42   0.18   0.01    -0.41  -0.29   0.20
    15   1    -0.14  -0.17  -0.00    -0.11  -0.15   0.02     0.06   0.17  -0.10
                     19                     20                     21
                      A                      A                      A
 Frequencies --   1436.4681              1490.9643              1498.8147
 Red. masses --      1.2918                 1.3211                 1.1037
 Frc consts  --      1.5705                 1.7302                 1.4608
 IR Inten    --      0.0000                 0.0000                 0.0000
  Atom  AN      X      Y      Z        X      Y      Z        X      Y      Z
     1   6    -0.07  -0.02  -0.02    -0.07  -0.08   0.02     0.04   0.02  -0.01
     2   6    -0.00  -0.01   0.02     0.00  -0.00  -0.01    -0.01   0.01  -0.01
     3   8     0.01   0.01  -0.01     0.01   0.01  -0.00     0.01  -0.01   0.01
     4   6     0.03   0.05  -0.02    -0.04   0.05  -0.01    -0.03   0.03  -0.01
     5   6     0.02   0.06  -0.05     0.00  -0.05  -0.03    -0.03  -0.05   0.03
     6   1    -0.22  -0.08  -0.10    -0.01   0.12   0.01     0.19   0.05   0.08
     7   1    -0.08  -0.12   0.12     0.21   0.01   0.09     0.09   0.08  -0.04
     8   1     0.19  -0.02   0.17    -0.11   0.03   0.05    -0.12  -0.01  -0.09
     9   7    -0.02  -0.07   0.05    -0.05   0.07   0.03     0.01   0.02   0.01
    10   1    -0.06  -0.04  -0.19     0.36  -0.16  -0.06     0.28  -0.13   0.06
    11   1     0.17   0.07   0.12     0.21  -0.17  -0.06    -0.47   0.21   0.08
    12   1    -0.35   0.26   0.29     0.57  -0.28  -0.01    -0.02   0.02  -0.05
    13   1     0.45  -0.27  -0.19     0.13  -0.06  -0.07     0.52  -0.37  -0.23
    14   1     0.30   0.09  -0.05     0.33   0.13   0.08    -0.16  -0.12  -0.07
    15   1     0.16   0.07  -0.00     0.25   0.16  -0.00    -0.11  -0.07  -0.03
                     22                     23                     24
                      A                      A                      A
 Frequencies --   1502.1157              1520.7742              1580.9080
 Red. masses --      1.2419                 1.2338                 1.5850
 Frc consts  --      1.6509                 1.6812                 2.3340
 IR Inten    --      0.0000                 0.0000                 0.0000
  Atom  AN      X      Y      Z        X      Y      Z        X      Y      Z
     1   6     0.07   0.03  -0.01     0.06   0.05  -0.02     0.10   0.05   0.00
     2   6    -0.01   0.02  -0.02     0.01  -0.00   0.02     0.06  -0.04   0.08
     3   8     0.01  -0.01   0.02    -0.01  -0.01   0.00    -0.12  -0.00  -0.07
     4   6    -0.07  -0.02   0.03     0.03  -0.02   0.02    -0.02  -0.02   0.02
     5   6     0.02   0.04  -0.05     0.01  -0.04  -0.03    -0.00   0.00  -0.01
     6   1    -0.12  -0.03  -0.08    -0.04   0.10  -0.00     0.04   0.00  -0.00
     7   1     0.01  -0.10   0.15     0.13  -0.02   0.06     0.02  -0.01   0.04
     8   1     0.15   0.00   0.19    -0.12   0.04   0.05     0.02  -0.01   0.05
     9   7    -0.04   0.01   0.04    -0.08   0.04   0.01    -0.01   0.01   0.01
    10   1    -0.32   0.17  -0.02     0.53  -0.30  -0.20    -0.02   0.02   0.00
    11   1     0.39  -0.12   0.01     0.33  -0.28  -0.12     0.04  -0.02  -0.00
    12   1     0.27  -0.21  -0.30    -0.37   0.21   0.10    -0.09   0.00  -0.23
    13   1     0.32  -0.20  -0.08    -0.05   0.09   0.07    -0.02  -0.16  -0.05
    14   1    -0.31  -0.14  -0.03    -0.20  -0.07  -0.05    -0.26  -0.12  -0.02
    15   1    -0.29  -0.15  -0.02    -0.22  -0.14   0.01     0.81   0.34   0.04
                     25                     26                     27
                      A                      A                      A
 Frequencies --   1628.9132              1646.1204              1655.4062
 Red. masses --      1.1917                 1.2271                 1.0524
 Frc consts  --      1.8631                 1.9590                 1.6992
 IR Inten    --      0.0000                 0.0000                 0.0000
  Atom  AN      X      Y      Z        X      Y      Z        X      Y      Z
     1   6    -0.02  -0.00   0.00     0.06   0.01   0.01     0.01   0.00   0.00
     2   6    -0.00   0.00  -0.00     0.01   0.00   0.01     0.00   0.00  -0.00
     3   8     0.01   0.00   0.00    -0.02  -0.01  -0.01    -0.00  -0.00  -0.00
     4   6     0.02  -0.00  -0.00    -0.08  -0.04  -0.08    -0.02  -0.01  -0.02
     5   6    -0.12   0.01  -0.04    -0.01   0.02   0.01     0.01  -0.02  -0.04
     6   1     0.56  -0.02   0.01    -0.01  -0.24  -0.05     0.35   0.38   0.09
     7   1     0.44   0.14   0.32     0.11   0.01   0.14    -0.34  -0.25  -0.02
     8   1     0.45  -0.28   0.23     0.03  -0.03  -0.20    -0.19   0.18   0.63
     9   7    -0.00  -0.00  -0.01     0.00   0.00   0.00     0.01  -0.01  -0.02
    10   1    -0.01  -0.00   0.04    -0.03   0.02   0.03    -0.03   0.01   0.02
    11   1     0.01   0.03   0.01    -0.01   0.02   0.01    -0.07   0.04  -0.00
    12   1    -0.06   0.04  -0.00     0.11  -0.12   0.60     0.03  -0.03   0.17
    13   1    -0.10   0.02   0.01     0.38   0.52   0.15     0.08   0.15   0.05
    14   1     0.03   0.02   0.00    -0.10  -0.06   0.01    -0.01  -0.01   0.01
    15   1    -0.02  -0.01   0.00     0.06   0.04  -0.00     0.01   0.01  -0.00
                     28                     29                     30
                      A                      A                      A
 Frequencies --   1659.0540              1833.8756              1845.9715
 Red. masses --      1.0427                 3.7367                 1.1644
 Frc consts  --      1.6909                 7.4042                 2.3377
 IR Inten    --      0.0000                 0.0000                 0.0000
  Atom  AN      X      Y      Z        X      Y      Z        X      Y      Z
     1   6     0.01   0.00   0.00    -0.09  -0.04  -0.01     0.02   0.01  -0.00
     2   6     0.00  -0.00   0.00     0.39   0.12   0.08    -0.07  -0.02  -0.01
     3   8    -0.00  -0.00  -0.00    -0.20  -0.05  -0.06     0.03   0.01   0.01
     4   6    -0.02  -0.01  -0.01    -0.02   0.01   0.00     0.01  -0.00   0.00
     5   6    -0.01  -0.04   0.01     0.00  -0.00  -0.00     0.01  -0.01  -0.00
     6   1    -0.27   0.54   0.11    -0.01   0.00  -0.00    -0.04  -0.00  -0.01
     7   1     0.13   0.39  -0.50     0.01  -0.01   0.01     0.00  -0.02  -0.00
     8   1     0.33  -0.21   0.11    -0.01   0.00  -0.00    -0.03   0.02  -0.01
     9   7    -0.00  -0.02   0.01    -0.01  -0.02  -0.03    -0.05  -0.02  -0.06
    10   1    -0.07   0.02  -0.01     0.02  -0.06   0.38     0.13  -0.16   0.67
    11   1     0.06   0.00   0.02     0.17   0.32   0.13     0.42   0.52   0.20
    12   1     0.00  -0.01   0.11     0.06  -0.04  -0.03    -0.02   0.02  -0.00
    13   1     0.10   0.08   0.02     0.02  -0.04  -0.04    -0.02   0.01   0.01
    14   1    -0.03  -0.02  -0.00     0.23   0.10   0.04    -0.04  -0.01  -0.00
    15   1     0.01   0.01  -0.00    -0.56  -0.30   0.03     0.09   0.04   0.00
                     31                     32                     33
                      A                      A                      A
 Frequencies --   2675.3692              3054.7485              3105.5296
 Red. masses --      1.0741                 1.0589                 1.0373
 Frc consts  --      4.5295                 5.8217                 5.8940
 IR Inten    --      0.0000                 0.0000                 0.0000
  Atom  AN      X      Y      Z        X      Y      Z        X      Y      Z
     1   6    -0.00   0.00  -0.00     0.00   0.00  -0.00    -0.00  -0.00   0.00
     2   6    -0.01   0.05  -0.06     0.00   0.00  -0.00     0.00   0.00  -0.00
     3   8    -0.01  -0.00  -0.00    -0.00  -0.00  -0.00    -0.00  -0.00  -0.00
     4   6    -0.00   0.00   0.00    -0.03  -0.02  -0.06     0.01   0.02  -0.02
     5   6    -0.00  -0.00  -0.00     0.00  -0.00   0.00    -0.04   0.01  -0.02
     6   1     0.00   0.00  -0.00     0.01   0.01  -0.04    -0.06  -0.12   0.55
     7   1     0.00   0.00   0.00    -0.01   0.02   0.01     0.28  -0.43  -0.28
     8   1    -0.00  -0.00   0.00    -0.01  -0.03   0.00     0.26   0.45  -0.06
     9   7     0.00  -0.00   0.00     0.00  -0.00  -0.00     0.00   0.00   0.00
    10   1    -0.00  -0.00  -0.01    -0.01  -0.00  -0.00    -0.00  -0.00  -0.00
    11   1    -0.01  -0.00   0.00    -0.00   0.00  -0.01    -0.00   0.00  -0.01
    12   1     0.00  -0.01   0.01     0.28   0.53  -0.02    -0.08  -0.14   0.00
    13   1     0.01   0.01  -0.03     0.04  -0.33   0.72     0.01  -0.07   0.17
    14   1     0.01   0.00  -0.00     0.01  -0.02   0.01    -0.00   0.01  -0.02
    15   1     0.30  -0.56   0.77     0.01  -0.02   0.02     0.00  -0.00   0.00
                     34                     35                     36
                      A                      A                      A
 Frequencies --   3106.6956              3176.8704              3184.1113
 Red. masses --      1.1055                 1.1081                 1.1079
 Frc consts  --      6.2864                 6.5891                 6.6182
 IR Inten    --      0.0000                 0.0000                 0.0000
  Atom  AN      X      Y      Z        X      Y      Z        X      Y      Z
     1   6    -0.00   0.01  -0.01     0.00  -0.00   0.00    -0.00   0.00  -0.00
     2   6    -0.00  -0.00   0.00     0.00   0.00  -0.00    -0.00  -0.00   0.00
     3   8     0.00   0.00  -0.00    -0.00  -0.00   0.00     0.00   0.00  -0.00
     4   6    -0.03  -0.08   0.04     0.00   0.00  -0.00    -0.00  -0.00   0.00
     5   6    -0.01   0.00  -0.01     0.03  -0.03  -0.08    -0.02  -0.09   0.02
     6   1    -0.02  -0.04   0.17    -0.07  -0.16   0.68     0.04   0.07  -0.38
     7   1     0.08  -0.12  -0.08    -0.34   0.52   0.32    -0.18   0.26   0.18
     8   1     0.06   0.10  -0.01     0.02   0.02  -0.02     0.42   0.73  -0.09
     9   7     0.00   0.00  -0.00    -0.00   0.00   0.00     0.00   0.00  -0.00
    10   1    -0.01  -0.01   0.00    -0.00  -0.01   0.00    -0.00  -0.02   0.00
    11   1     0.00  -0.01   0.00     0.01   0.01  -0.02    -0.01  -0.00   0.01
    12   1     0.37   0.68  -0.02    -0.00   0.00   0.00     0.01   0.02   0.00
    13   1    -0.03   0.23  -0.51    -0.00  -0.01   0.02    -0.00   0.00  -0.01
    14   1     0.02  -0.06   0.07    -0.01   0.02  -0.02     0.01  -0.02   0.02
    15   1    -0.00   0.01  -0.01     0.00  -0.00   0.00    -0.00   0.00  -0.00
                     37                     38                     39
                      A                      A                      A
 Frequencies --   3190.1051              3488.8804              3558.9950
 Red. masses --      1.0893                 1.0567                 1.0962
 Frc consts  --      6.5315                 7.5787                 8.1808
 IR Inten    --      0.0000                 0.0000                 0.0000
  Atom  AN      X      Y      Z        X      Y      Z        X      Y      Z
     1   6    -0.02   0.06  -0.06    -0.00  -0.00   0.00     0.00  -0.00   0.00
     2   6    -0.00  -0.00   0.00     0.00   0.00  -0.00     0.00  -0.00   0.00
     3   8     0.00   0.00   0.00    -0.00  -0.00  -0.00     0.00   0.00  -0.00
     4   6     0.01   0.01  -0.00     0.00  -0.00  -0.00     0.00   0.00  -0.00
     5   6     0.00   0.00  -0.00     0.00  -0.00  -0.00     0.00   0.00  -0.00
     6   1    -0.00  -0.01   0.03     0.00  -0.00   0.01     0.00  -0.00   0.02
     7   1    -0.00   0.00   0.00    -0.01   0.01   0.00     0.00  -0.00  -0.00
     8   1    -0.01  -0.02   0.00     0.01   0.01   0.00    -0.01  -0.01  -0.00
     9   7    -0.00  -0.00  -0.00    -0.03  -0.03  -0.04     0.02   0.06  -0.05
    10   1     0.00   0.00  -0.00     0.39   0.69   0.04    -0.29  -0.52  -0.05
    11   1    -0.00   0.00   0.00    -0.02  -0.25   0.55    -0.02  -0.31   0.74
    12   1    -0.05  -0.08   0.00    -0.00   0.01   0.00    -0.00  -0.01  -0.00
    13   1     0.00  -0.02   0.04    -0.00   0.00   0.01    -0.00  -0.00   0.01
    14   1     0.25  -0.65   0.70    -0.00   0.00  -0.00    -0.00   0.00  -0.00
    15   1     0.00   0.00   0.00     0.00  -0.00   0.00    -0.00   0.00  -0.00

 -------------------
 - Thermochemistry -
 -------------------
 Temperature   298.150 Kelvin.  Pressure   1.00000 Atm.
 Atom     1 has atomic number  6 and mass  12.00000
 Atom     2 has atomic number  6 and mass  12.00000
 Atom     3 has atomic number  8 and mass  15.99491
 Atom     4 has atomic number  6 and mass  12.00000
 Atom     5 has atomic number  6 and mass  12.00000
 Atom     6 has atomic number  1 and mass   1.00783
 Atom     7 has atomic number  1 and mass   1.00783
 Atom     8 has atomic number  1 and mass   1.00783
 Atom     9 has atomic number  7 and mass  14.00307
 Atom    10 has atomic number  1 and mass   1.00783
 Atom    11 has atomic number  1 and mass   1.00783
 Atom    12 has atomic number  1 and mass   1.00783
 Atom    13 has atomic number  1 and mass   1.00783
 Atom    14 has atomic number  1 and mass   1.00783
 Atom    15 has atomic number  1 and mass   1.00783
 Molecular mass:    87.06841 amu.
 Principal axes and moments of inertia in atomic units:
                           1         2         3
     Eigenvalues --   149.397491327.067141374.60917
           X            0.99996  -0.00935   0.00113
           Y            0.00942   0.99539  -0.09541
           Z           -0.00023   0.09541   0.99544
 This molecule is an asymmetric top.
 Rotational symmetry number  1.
 Rotational temperatures (Kelvin)      0.57975     0.06527     0.06301
 Rotational constants (GHZ):          12.08013     1.35995     1.31291
 Zero-point vibrational energy     366227.2 (Joules/Mol)
                                   87.53041 (Kcal/Mol)
 Warning -- explicit consideration of   8 degrees of freedom as
           vibrations may cause significant error
 Vibrational temperatures:    197.10   277.21   304.91   442.19   523.74
          (Kelvin)            594.30   617.30   797.15  1029.09  1166.80
                             1314.32  1489.17  1562.08  1687.60  1723.55
                             1810.83  1838.91  1885.70  2066.76  2145.17
                             2156.46  2161.21  2188.05  2274.57  2343.64
                             2368.40  2381.76  2387.01  2638.54  2655.94
                             3849.26  4395.10  4468.16  4469.84  4570.81
                             4581.23  4589.85  5019.72  5120.60
 
 Zero-point correction=                           0.139489 (Hartree/Particle)
 Thermal correction to Energy=                    0.146031
 Thermal correction to Enthalpy=                  0.146975
 Thermal correction to Gibbs Free Energy=         0.109287
 Sum of electronic and zero-point Energies=           -287.291016
 Sum of electronic and thermal Energies=              -287.284473
 Sum of electronic and thermal Enthalpies=            -287.283529
 Sum of electronic and thermal Free Energies=         -287.321217
 
                     E (Thermal)             CV                S
                      KCal/Mol        Cal/Mol-Kelvin    Cal/Mol-Kelvin
 Total                   91.636             22.854             79.321
 Electronic               0.000              0.000              0.000
 Translational            0.889              2.981             39.305
 Rotational               0.889              2.981             27.102
 Vibrational             89.858             16.893             12.914
 Vibration     1          0.614              1.916              2.845
 Vibration     2          0.635              1.850              2.202
 Vibration     3          0.643              1.823              2.027
 Vibration     4          0.697              1.660              1.377
 Vibration     5          0.738              1.546              1.105
 Vibration     6          0.777              1.442              0.916
 Vibration     7          0.790              1.407              0.862
 Vibration     8          0.909              1.131              0.536
                       Q            Log10(Q)             Ln(Q)
 Total Bot       0.538671D-50        -50.268676       -115.747905
 Total V=0       0.779047D+14         13.891563         31.986507
 Vib (Bot)       0.902663D-63        -63.044474       -145.165267
 Vib (Bot)    1  0.148551D+01          0.171874          0.395755
 Vib (Bot)    2  0.103777D+01          0.016101          0.037075
 Vib (Bot)    3  0.936479D+00         -0.028502         -0.065628
 Vib (Bot)    4  0.616208D+00         -0.210273         -0.484171
 Vib (Bot)    5  0.502171D+00         -0.299149         -0.688815
 Vib (Bot)    6  0.427341D+00         -0.369225         -0.850172
 Vib (Bot)    7  0.406414D+00         -0.391031         -0.900382
 Vib (Bot)    8  0.282145D+00         -0.549528         -1.265335
 Vib (V=0)       0.130547D+02          1.115765          2.569144
 Vib (V=0)    1  0.206740D+01          0.315423          0.726289
 Vib (V=0)    2  0.165194D+01          0.217994          0.501951
 Vib (V=0)    3  0.156160D+01          0.193570          0.445711
 Vib (V=0)    4  0.129354D+01          0.111781          0.257386
 Vib (V=0)    5  0.120864D+01          0.082298          0.189499
 Vib (V=0)    6  0.115774D+01          0.063611          0.146469
 Vib (V=0)    7  0.114434D+01          0.058555          0.134827
 Vib (V=0)    8  0.107411D+01          0.031050          0.071495
 Electronic      0.100000D+01          0.000000          0.000000
 Translational   0.319334D+08          7.504245         17.279162
 Rotational      0.186876D+06          5.271553         12.138200
 ***** Axes restored to original set *****
 -------------------------------------------------------------------
 Center     Atomic                   Forces (Hartrees/Bohr)
 Number     Number              X              Y              Z
 -------------------------------------------------------------------
      1        6           0.002300664    0.001716856   -0.000103682
      2        6          -0.001747582   -0.001837719    0.000380457
      3        8           0.000963086    0.000435857    0.000294952
      4        6          -0.007600351    0.006052238    0.003769081
      5        6           0.000109266   -0.000272126   -0.000566619
      6        1           0.000032030   -0.000517291    0.000035402
      7        1           0.000354467    0.000266259   -0.000353028
      8        1          -0.000145093    0.000231397    0.000466779
      9        7           0.005578316   -0.003640001   -0.003233445
     10        1           0.000009719   -0.000181997    0.000766163
     11        1          -0.000061593   -0.001033689   -0.000437398
     12        1           0.000355888   -0.000564485   -0.000387149
     13        1          -0.000083802   -0.000657080   -0.000454359
     14        1          -0.000054404   -0.000021659   -0.000004940
     15        1          -0.000010611    0.000023439   -0.000172213
 -------------------------------------------------------------------
 Cartesian Forces:  Max     0.007600351 RMS     0.002021571


 REALITY IS FOR PEOPLE WHO CAN'T FACE SCIENCE FICTION.
 Error termination request processed by link 9999.
 Error termination via Lnk1e in /apps/gaussian/g16/C.01/g16/l9999.exe at Tue Jan 16 23:08:12 2024.
 Job cpu time:       0 days  4 hours 36 minutes 53.6 seconds.
 Elapsed time:       0 days  0 hours 41 minutes  1.7 seconds.
 File lengths (MBytes):  RWF=      6 Int=      0 D2E=      0 Chk=      1 Scr=      1
