Unloading slurm/anatra/current
  ERROR: No such file or directory on
    '/cm/local/modulefiles/slurm/anatra/current'
environment: line 0: unalias: gv: not found
environment: line 0: unalias: sl: not found
 Entering Gaussian System, Link 0=g16
 Initial command:
 /apps/gaussian/g16/C.01/g16/l1.exe "/local/jobs/1157670/Gau-2283026.inp" -scrdir="/local/jobs/1157670/"
 Entering Link 1 = /apps/gaussian/g16/C.01/g16/l1.exe PID=   2283029.
  
 Copyright (c) 1988-2019, Gaussian, Inc.  All Rights Reserved.
  
 This is part of the Gaussian(R) 16 program.  It is based on
 the Gaussian(R) 09 system (copyright 2009, Gaussian, Inc.),
 the Gaussian(R) 03 system (copyright 2003, Gaussian, Inc.),
 the Gaussian(R) 98 system (copyright 1998, Gaussian, Inc.),
 the Gaussian(R) 94 system (copyright 1995, Gaussian, Inc.),
 the Gaussian 92(TM) system (copyright 1992, Gaussian, Inc.),
 the Gaussian 90(TM) system (copyright 1990, Gaussian, Inc.),
 the Gaussian 88(TM) system (copyright 1988, Gaussian, Inc.),
 the Gaussian 86(TM) system (copyright 1986, Carnegie Mellon
 University), and the Gaussian 82(TM) system (copyright 1983,
 Carnegie Mellon University). Gaussian is a federally registered
 trademark of Gaussian, Inc.
  
 This software contains proprietary and confidential information,
 including trade secrets, belonging to Gaussian, Inc.
  
 This software is provided under written license and may be
 used, copied, transmitted, or stored only in accord with that
 written license.
  
 The following legend is applicable only to US Government
 contracts under FAR:
  
                    RESTRICTED RIGHTS LEGEND
  
 Use, reproduction and disclosure by the US Government is
 subject to restrictions as set forth in subparagraphs (a)
 and (c) of the Commercial Computer Software - Restricted
 Rights clause in FAR 52.227-19.
  
 Gaussian, Inc.
 340 Quinnipiac St., Bldg. 40, Wallingford CT 06492
  
  
 ---------------------------------------------------------------
 Warning -- This program may not be used in any manner that
 competes with the business of Gaussian, Inc. or will provide
 assistance to any competitor of Gaussian, Inc.  The licensee
 of this program is prohibited from giving any competitor of
 Gaussian, Inc. access to this program.  By using this program,
 the user acknowledges that Gaussian, Inc. is engaged in the
 business of creating and licensing software in the field of
 computational chemistry and represents and warrants to the
 licensee that it is not a competitor of Gaussian, Inc. and that
 it will not use this program in any manner prohibited above.
 ---------------------------------------------------------------
  

 Cite this work as:
 Gaussian 16, Revision C.01,
 M. J. Frisch, G. W. Trucks, H. B. Schlegel, G. E. Scuseria, 
 M. A. Robb, J. R. Cheeseman, G. Scalmani, V. Barone, 
 G. A. Petersson, H. Nakatsuji, X. Li, M. Caricato, A. V. Marenich, 
 J. Bloino, B. G. Janesko, R. Gomperts, B. Mennucci, H. P. Hratchian, 
 J. V. Ortiz, A. F. Izmaylov, J. L. Sonnenberg, D. Williams-Young, 
 F. Ding, F. Lipparini, F. Egidi, J. Goings, B. Peng, A. Petrone, 
 T. Henderson, D. Ranasinghe, V. G. Zakrzewski, J. Gao, N. Rega, 
 G. Zheng, W. Liang, M. Hada, M. Ehara, K. Toyota, R. Fukuda, 
 J. Hasegawa, M. Ishida, T. Nakajima, Y. Honda, O. Kitao, H. Nakai, 
 T. Vreven, K. Throssell, J. A. Montgomery, Jr., J. E. Peralta, 
 F. Ogliaro, M. J. Bearpark, J. J. Heyd, E. N. Brothers, K. N. Kudin, 
 V. N. Staroverov, T. A. Keith, R. Kobayashi, J. Normand, 
 K. Raghavachari, A. P. Rendell, J. C. Burant, S. S. Iyengar, 
 J. Tomasi, M. Cossi, J. M. Millam, M. Klene, C. Adamo, R. Cammi, 
 J. W. Ochterski, R. L. Martin, K. Morokuma, O. Farkas, 
 J. B. Foresman, and D. J. Fox, Gaussian, Inc., Wallingford CT, 2019.
 
 ******************************************
 Gaussian 16:  ES64L-G16RevC.01  3-Jul-2019
                16-Jan-2024 
 ******************************************
 %nprocshared=12
 Will use up to   12 processors via shared memory.
 %mem=48GB
 ----------------------------------------------------------------------
 # external="~/scripts/MiMe -H 'hf 6-31g(d)' -EF 'wb97xd def2svp' -c 12
  -m 48GB" opt=(calcall,ts,noeigen,maxcycles=50,maxstep=10,nomicro)
 ----------------------------------------------------------------------
 1/5=1,6=50,8=10,10=4,11=1,18=20,26=1,38=1/1,3;
 2/9=110,12=2,17=6,18=5,40=1/2;
 3/11=9,25=1,30=1,41=9900000,43=2,71=2,140=1/1;
 4/20=17,22=2,24=3,113=1,114=1/2;
 6/7=2,8=2,9=2,10=2,18=1/1;
 7/25=1,44=-1/16;
 1/5=1,6=50,8=10,10=4,11=1,18=20,26=1/3(3);
 2/9=110/2;
 7/8=1,9=1,25=1,44=-1/16;
 99//99;
 2/9=110/2;
 3/11=9,25=1,30=1,41=9900000,43=2,71=2,140=1/1;
 4/16=2,20=17,22=2,24=3,113=1,114=1/2;
 7/25=1,44=-1/16;
 1/5=1,6=50,8=10,10=4,11=1,18=20,26=1/3(-4);
 2/9=110/2;
 6/7=2,8=2,9=2,10=2,18=1/1;
 7/8=1,9=1,25=1,44=-1/16;
 99//99;
 ----------
 TS-325.out
 ----------
 Symbolic Z-matrix:
 Charge =  0 Multiplicity = 1
 C                     0.06177   0.16222  -0.05987 
 C                    -0.40074   1.45584   0.53163 
 O                    -1.15429   1.50254   1.49781 
 C                    -0.85367  -0.80502  -0.34582 
 C                    -0.17766  -2.94069   1.77398 
 H                    -0.63118  -3.30064   2.7018 
 H                    -0.07938  -3.77989   1.08005 
 H                     0.82018  -2.55382   1.99723 
 N                    -1.00546  -1.89012   1.17544 
 H                    -1.95493  -2.2718    1.0865 
 H                    -1.12869  -1.1636    1.89783 
 H                    -0.54188  -1.70552  -0.88485 
 Br                   -2.6779   -0.38746  -0.7648 
 C                     1.50834  -0.10668  -0.22143 
 C                     2.39043   0.13335   0.84219 
 C                     3.76031  -0.0945    0.69505 
 C                     4.26366  -0.56034  -0.51778 
 C                     3.39924  -0.79839  -1.58439 
 C                     2.02876  -0.57131  -1.43866 
 H                     2.01427   0.49002   1.7996 
 H                     4.43291   0.08937   1.52903 
 H                     5.33005  -0.7391   -0.63114 
 H                     3.79175  -1.16099  -2.5311 
 H                     1.37285  -0.75516  -2.28698 
 N                     0.13935   2.56268  -0.08207 
 C                    -0.10745   3.88962   0.41632 
 H                     0.84287   2.43119  -0.79729 
 H                    -1.14152   3.98435   0.75836 
 H                     0.57131   4.07921   1.25198 
 H                     0.08687   4.60465  -0.38633 
 
 Add virtual bond connecting atoms N9         and C4         Dist= 3.54D+00.

 GradGradGradGradGradGradGradGradGradGradGradGradGradGradGradGradGradGrad
 Berny optimization.
 Initialization pass.
                           ----------------------------
                           !    Initial Parameters    !
                           ! (Angstroms and Degrees)  !
 --------------------------                            --------------------------
 ! Name  Definition              Value          Derivative Info.                !
 --------------------------------------------------------------------------------
 ! R1    R(1,2)                  1.4957         calculate D2E/DX2 analytically  !
 ! R2    R(1,4)                  1.3621         calculate D2E/DX2 analytically  !
 ! R3    R(1,14)                 1.4802         calculate D2E/DX2 analytically  !
 ! R4    R(2,3)                  1.2262         calculate D2E/DX2 analytically  !
 ! R5    R(2,25)                 1.376          calculate D2E/DX2 analytically  !
 ! R6    R(4,9)                  1.8748         calculate D2E/DX2 analytically  !
 ! R7    R(4,12)                 1.0948         calculate D2E/DX2 analytically  !
 ! R8    R(4,13)                 1.9177         calculate D2E/DX2 analytically  !
 ! R9    R(5,6)                  1.0937         calculate D2E/DX2 analytically  !
 ! R10   R(5,7)                  1.0934         calculate D2E/DX2 analytically  !
 ! R11   R(5,8)                  1.0932         calculate D2E/DX2 analytically  !
 ! R12   R(5,9)                  1.4653         calculate D2E/DX2 analytically  !
 ! R13   R(9,10)                 1.0272         calculate D2E/DX2 analytically  !
 ! R14   R(9,11)                 1.0319         calculate D2E/DX2 analytically  !
 ! R15   R(14,15)                1.4025         calculate D2E/DX2 analytically  !
 ! R16   R(14,19)                1.403          calculate D2E/DX2 analytically  !
 ! R17   R(15,16)                1.3965         calculate D2E/DX2 analytically  !
 ! R18   R(15,20)                1.0887         calculate D2E/DX2 analytically  !
 ! R19   R(16,17)                1.3933         calculate D2E/DX2 analytically  !
 ! R20   R(16,21)                1.0871         calculate D2E/DX2 analytically  !
 ! R21   R(17,18)                1.3934         calculate D2E/DX2 analytically  !
 ! R22   R(17,22)                1.0872         calculate D2E/DX2 analytically  !
 ! R23   R(18,19)                1.3968         calculate D2E/DX2 analytically  !
 ! R24   R(18,23)                1.0871         calculate D2E/DX2 analytically  !
 ! R25   R(19,24)                1.088          calculate D2E/DX2 analytically  !
 ! R26   R(25,26)                1.4388         calculate D2E/DX2 analytically  !
 ! R27   R(25,27)                1.0118         calculate D2E/DX2 analytically  !
 ! R28   R(26,28)                1.0933         calculate D2E/DX2 analytically  !
 ! R29   R(26,29)                1.0932         calculate D2E/DX2 analytically  !
 ! R30   R(26,30)                1.0924         calculate D2E/DX2 analytically  !
 ! A1    A(2,1,4)              119.2977         calculate D2E/DX2 analytically  !
 ! A2    A(2,1,14)             120.1638         calculate D2E/DX2 analytically  !
 ! A3    A(4,1,14)             120.3242         calculate D2E/DX2 analytically  !
 ! A4    A(1,2,3)              122.3149         calculate D2E/DX2 analytically  !
 ! A5    A(1,2,25)             113.4496         calculate D2E/DX2 analytically  !
 ! A6    A(3,2,25)             124.1945         calculate D2E/DX2 analytically  !
 ! A7    A(1,4,9)              107.1618         calculate D2E/DX2 analytically  !
 ! A8    A(1,4,12)             119.737          calculate D2E/DX2 analytically  !
 ! A9    A(1,4,13)             122.0429         calculate D2E/DX2 analytically  !
 ! A10   A(9,4,12)              86.9335         calculate D2E/DX2 analytically  !
 ! A11   A(9,4,13)             103.0786         calculate D2E/DX2 analytically  !
 ! A12   A(12,4,13)            110.0243         calculate D2E/DX2 analytically  !
 ! A13   A(6,5,7)              108.85           calculate D2E/DX2 analytically  !
 ! A14   A(6,5,8)              108.7668         calculate D2E/DX2 analytically  !
 ! A15   A(6,5,9)              110.3791         calculate D2E/DX2 analytically  !
 ! A16   A(7,5,8)              108.6128         calculate D2E/DX2 analytically  !
 ! A17   A(7,5,9)              109.9879         calculate D2E/DX2 analytically  !
 ! A18   A(8,5,9)              110.2017         calculate D2E/DX2 analytically  !
 ! A19   A(4,9,5)              134.4812         calculate D2E/DX2 analytically  !
 ! A20   A(4,9,10)             102.6885         calculate D2E/DX2 analytically  !
 ! A21   A(4,9,11)              99.8004         calculate D2E/DX2 analytically  !
 ! A22   A(5,9,10)             106.9268         calculate D2E/DX2 analytically  !
 ! A23   A(5,9,11)             106.6355         calculate D2E/DX2 analytically  !
 ! A24   A(10,9,11)            102.2303         calculate D2E/DX2 analytically  !
 ! A25   A(1,14,15)            120.0524         calculate D2E/DX2 analytically  !
 ! A26   A(1,14,19)            121.1561         calculate D2E/DX2 analytically  !
 ! A27   A(15,14,19)           118.7735         calculate D2E/DX2 analytically  !
 ! A28   A(14,15,16)           120.6063         calculate D2E/DX2 analytically  !
 ! A29   A(14,15,20)           120.3757         calculate D2E/DX2 analytically  !
 ! A30   A(16,15,20)           119.0145         calculate D2E/DX2 analytically  !
 ! A31   A(15,16,17)           120.043          calculate D2E/DX2 analytically  !
 ! A32   A(15,16,21)           119.9017         calculate D2E/DX2 analytically  !
 ! A33   A(17,16,21)           120.0551         calculate D2E/DX2 analytically  !
 ! A34   A(16,17,18)           119.9552         calculate D2E/DX2 analytically  !
 ! A35   A(16,17,22)           120.0055         calculate D2E/DX2 analytically  !
 ! A36   A(18,17,22)           120.0393         calculate D2E/DX2 analytically  !
 ! A37   A(17,18,19)           120.0693         calculate D2E/DX2 analytically  !
 ! A38   A(17,18,23)           119.9742         calculate D2E/DX2 analytically  !
 ! A39   A(19,18,23)           119.9565         calculate D2E/DX2 analytically  !
 ! A40   A(14,19,18)           120.5513         calculate D2E/DX2 analytically  !
 ! A41   A(14,19,24)           120.5858         calculate D2E/DX2 analytically  !
 ! A42   A(18,19,24)           118.8619         calculate D2E/DX2 analytically  !
 ! A43   A(2,25,26)            121.3346         calculate D2E/DX2 analytically  !
 ! A44   A(2,25,27)            118.9233         calculate D2E/DX2 analytically  !
 ! A45   A(26,25,27)           118.9457         calculate D2E/DX2 analytically  !
 ! A46   A(25,26,28)           110.5197         calculate D2E/DX2 analytically  !
 ! A47   A(25,26,29)           108.557          calculate D2E/DX2 analytically  !
 ! A48   A(25,26,30)           108.5812         calculate D2E/DX2 analytically  !
 ! A49   A(28,26,29)           109.457          calculate D2E/DX2 analytically  !
 ! A50   A(28,26,30)           109.9632         calculate D2E/DX2 analytically  !
 ! A51   A(29,26,30)           109.7381         calculate D2E/DX2 analytically  !
 ! D1    D(4,1,2,3)             49.1418         calculate D2E/DX2 analytically  !
 ! D2    D(4,1,2,25)          -133.0961         calculate D2E/DX2 analytically  !
 ! D3    D(14,1,2,3)          -125.5571         calculate D2E/DX2 analytically  !
 ! D4    D(14,1,2,25)           52.2051         calculate D2E/DX2 analytically  !
 ! D5    D(2,1,4,9)            -90.7057         calculate D2E/DX2 analytically  !
 ! D6    D(2,1,4,12)           172.8674         calculate D2E/DX2 analytically  !
 ! D7    D(2,1,4,13)            27.5036         calculate D2E/DX2 analytically  !
 ! D8    D(14,1,4,9)            83.9844         calculate D2E/DX2 analytically  !
 ! D9    D(14,1,4,12)          -12.4424         calculate D2E/DX2 analytically  !
 ! D10   D(14,1,4,13)         -157.8063         calculate D2E/DX2 analytically  !
 ! D11   D(2,1,14,15)           47.5529         calculate D2E/DX2 analytically  !
 ! D12   D(2,1,14,19)         -130.8817         calculate D2E/DX2 analytically  !
 ! D13   D(4,1,14,15)         -127.091          calculate D2E/DX2 analytically  !
 ! D14   D(4,1,14,19)           54.4743         calculate D2E/DX2 analytically  !
 ! D15   D(1,2,25,26)         -175.0909         calculate D2E/DX2 analytically  !
 ! D16   D(1,2,25,27)           -5.4202         calculate D2E/DX2 analytically  !
 ! D17   D(3,2,25,26)            2.6225         calculate D2E/DX2 analytically  !
 ! D18   D(3,2,25,27)          172.2932         calculate D2E/DX2 analytically  !
 ! D19   D(1,4,9,5)            -76.1611         calculate D2E/DX2 analytically  !
 ! D20   D(1,4,9,10)           154.0923         calculate D2E/DX2 analytically  !
 ! D21   D(1,4,9,11)            49.0666         calculate D2E/DX2 analytically  !
 ! D22   D(12,4,9,5)            44.0598         calculate D2E/DX2 analytically  !
 ! D23   D(12,4,9,10)          -85.6868         calculate D2E/DX2 analytically  !
 ! D24   D(12,4,9,11)          169.2875         calculate D2E/DX2 analytically  !
 ! D25   D(13,4,9,5)           153.9121         calculate D2E/DX2 analytically  !
 ! D26   D(13,4,9,10)           24.1655         calculate D2E/DX2 analytically  !
 ! D27   D(13,4,9,11)          -80.8602         calculate D2E/DX2 analytically  !
 ! D28   D(6,5,9,4)            178.1429         calculate D2E/DX2 analytically  !
 ! D29   D(6,5,9,10)           -53.4919         calculate D2E/DX2 analytically  !
 ! D30   D(6,5,9,11)            55.2944         calculate D2E/DX2 analytically  !
 ! D31   D(7,5,9,4)            -61.7329         calculate D2E/DX2 analytically  !
 ! D32   D(7,5,9,10)            66.6323         calculate D2E/DX2 analytically  !
 ! D33   D(7,5,9,11)           175.4186         calculate D2E/DX2 analytically  !
 ! D34   D(8,5,9,4)             57.985          calculate D2E/DX2 analytically  !
 ! D35   D(8,5,9,10)          -173.6498         calculate D2E/DX2 analytically  !
 ! D36   D(8,5,9,11)           -64.8635         calculate D2E/DX2 analytically  !
 ! D37   D(1,14,15,16)        -178.8957         calculate D2E/DX2 analytically  !
 ! D38   D(1,14,15,20)           1.7968         calculate D2E/DX2 analytically  !
 ! D39   D(19,14,15,16)         -0.424          calculate D2E/DX2 analytically  !
 ! D40   D(19,14,15,20)       -179.7315         calculate D2E/DX2 analytically  !
 ! D41   D(1,14,19,18)         178.8607         calculate D2E/DX2 analytically  !
 ! D42   D(1,14,19,24)          -0.7663         calculate D2E/DX2 analytically  !
 ! D43   D(15,14,19,18)          0.4065         calculate D2E/DX2 analytically  !
 ! D44   D(15,14,19,24)       -179.2205         calculate D2E/DX2 analytically  !
 ! D45   D(14,15,16,17)          0.2129         calculate D2E/DX2 analytically  !
 ! D46   D(14,15,16,21)       -179.6096         calculate D2E/DX2 analytically  !
 ! D47   D(20,15,16,17)        179.5297         calculate D2E/DX2 analytically  !
 ! D48   D(20,15,16,21)         -0.2928         calculate D2E/DX2 analytically  !
 ! D49   D(15,16,17,18)          0.0232         calculate D2E/DX2 analytically  !
 ! D50   D(15,16,17,22)       -179.898          calculate D2E/DX2 analytically  !
 ! D51   D(21,16,17,18)        179.8455         calculate D2E/DX2 analytically  !
 ! D52   D(21,16,17,22)         -0.0757         calculate D2E/DX2 analytically  !
 ! D53   D(16,17,18,19)         -0.0404         calculate D2E/DX2 analytically  !
 ! D54   D(16,17,18,23)        179.9442         calculate D2E/DX2 analytically  !
 ! D55   D(22,17,18,19)        179.8808         calculate D2E/DX2 analytically  !
 ! D56   D(22,17,18,23)         -0.1346         calculate D2E/DX2 analytically  !
 ! D57   D(17,18,19,14)         -0.1782         calculate D2E/DX2 analytically  !
 ! D58   D(17,18,19,24)        179.4552         calculate D2E/DX2 analytically  !
 ! D59   D(23,18,19,14)        179.8372         calculate D2E/DX2 analytically  !
 ! D60   D(23,18,19,24)         -0.5294         calculate D2E/DX2 analytically  !
 ! D61   D(2,25,26,28)         -38.8072         calculate D2E/DX2 analytically  !
 ! D62   D(2,25,26,29)          81.2469         calculate D2E/DX2 analytically  !
 ! D63   D(2,25,26,30)        -159.4988         calculate D2E/DX2 analytically  !
 ! D64   D(27,25,26,28)        151.5243         calculate D2E/DX2 analytically  !
 ! D65   D(27,25,26,29)        -88.4216         calculate D2E/DX2 analytically  !
 ! D66   D(27,25,26,30)         30.8328         calculate D2E/DX2 analytically  !
 --------------------------------------------------------------------------------
 Trust Radius=1.00D-01 FncErr=1.00D-07 GrdErr=1.00D-07 EigMax=2.50D+02 EigMin=1.00D-04
 Number of steps in this run=     50 maximum allowed number of steps=    180.
 Search for a saddle point of order  1.
 GradGradGradGradGradGradGradGradGradGradGradGradGradGradGradGradGradGrad

                          Input orientation:                          
 ---------------------------------------------------------------------
 Center     Atomic      Atomic             Coordinates (Angstroms)
 Number     Number       Type             X           Y           Z
 ---------------------------------------------------------------------
      1          6           0        0.061770    0.162220   -0.059870
      2          6           0       -0.400740    1.455840    0.531630
      3          8           0       -1.154290    1.502540    1.497810
      4          6           0       -0.853670   -0.805020   -0.345820
      5          6           0       -0.177660   -2.940690    1.773980
      6          1           0       -0.631180   -3.300640    2.701800
      7          1           0       -0.079380   -3.779890    1.080050
      8          1           0        0.820180   -2.553820    1.997230
      9          7           0       -1.005460   -1.890120    1.175440
     10          1           0       -1.954930   -2.271800    1.086500
     11          1           0       -1.128690   -1.163600    1.897830
     12          1           0       -0.541880   -1.705520   -0.884850
     13         35           0       -2.677900   -0.387460   -0.764800
     14          6           0        1.508340   -0.106680   -0.221430
     15          6           0        2.390430    0.133350    0.842190
     16          6           0        3.760310   -0.094500    0.695050
     17          6           0        4.263660   -0.560340   -0.517780
     18          6           0        3.399240   -0.798390   -1.584390
     19          6           0        2.028760   -0.571310   -1.438660
     20          1           0        2.014270    0.490020    1.799600
     21          1           0        4.432910    0.089370    1.529030
     22          1           0        5.330050   -0.739100   -0.631140
     23          1           0        3.791750   -1.160990   -2.531100
     24          1           0        1.372850   -0.755160   -2.286980
     25          7           0        0.139350    2.562680   -0.082070
     26          6           0       -0.107450    3.889620    0.416320
     27          1           0        0.842870    2.431190   -0.797290
     28          1           0       -1.141520    3.984350    0.758360
     29          1           0        0.571310    4.079210    1.251980
     30          1           0        0.086870    4.604650   -0.386330
 ---------------------------------------------------------------------
                    Distance matrix (angstroms):
                    1          2          3          4          5
     1  C    0.000000
     2  C    1.495741   0.000000
     3  O    2.387808   1.226182   0.000000
     4  C    1.362113   2.467094   2.968868   0.000000
     5  C    3.612255   4.574131   4.557671   3.084093   0.000000
     6  H    4.483124   5.233244   4.979335   3.945327   1.093661
     7  H    4.106041   5.274173   5.406850   3.388581   1.093368
     8  H    3.490519   4.440271   4.538944   3.368970   1.093249
     9  N    2.622417   3.460582   3.411190   1.874757   1.465333
    10  H    3.362394   4.076602   3.880186   2.327178   2.019587
    11  H    2.647184   3.042676   2.696103   2.288707   2.019368
    12  H    2.129187   3.467064   4.042742   1.094836   2.954264
    13  Br   2.881816   3.203739   3.318568   1.917737   4.383559
    14  C    1.480194   2.579371   3.554571   2.466220   3.854331
    15  C    2.497439   3.104200   3.856107   3.579957   4.112547
    16  C    3.783518   4.443489   5.229556   4.782997   4.977198
    17  C    4.288083   5.188725   6.137773   5.126061   5.535662
    18  C    3.792840   4.898871   5.960610   4.429599   5.353719
    19  C    2.511609   3.727446   4.801616   3.091492   4.561064
    20  H    2.716126   2.893584   3.340067   3.808548   4.071239
    21  H    4.651535   5.121154   5.763231   5.680046   5.522556
    22  H    5.375268   6.245939   7.183595   6.190650   6.400505
    23  H    4.665899   5.814214   6.913018   5.146075   6.120234
    24  H    2.742360   3.997337   5.080185   2.954315   4.865390
    25  N    2.401816   1.376016   2.300744   3.520945   5.816571
    26  C    3.761503   2.454099   2.821993   4.814286   6.964288
    27  H    2.510404   2.064922   3.180963   3.681729   6.042351
    28  H    4.089754   2.644527   2.589658   4.923427   7.065174
    29  H    4.162138   2.888919   3.110845   5.332845   7.079014
    30  H    4.454480   3.315934   3.835824   5.490973   7.852966
                    6          7          8          9         10
     6  H    0.000000
     7  H    1.778830   0.000000
     8  H    1.777809   1.775859   0.000000
     9  N    2.111736   2.106645   2.109217   0.000000
    10  H    2.328094   2.406671   2.934314   1.027172   0.000000
    11  H    2.336841   2.935096   2.395973   1.031923   1.602821
    12  H    3.926378   2.894434   3.298667   2.119853   2.490704
    13  Br   4.969205   4.654499   4.955652   2.969777   2.738747
    14  C    4.829513   4.207990   3.374094   3.383947   4.288667
    15  C    4.937668   4.633572   3.319742   3.967059   4.972584
    16  C    5.795823   5.336061   4.048246   5.115427   6.128445
    17  C    6.467952   5.637425   4.707100   5.692006   6.646328
    18  C    6.393510   5.299941   4.749851   5.311301   6.162120
    19  C    5.627427   4.591638   4.146848   4.216547   5.013770
    20  H    4.709721   4.809704   3.275648   3.895306   4.887812
    21  H    6.205849   5.961000   4.500831   5.798213   6.824621
    22  H    7.294261   6.437120   5.526343   6.687845   7.640052
    23  H    7.177998   5.906326   5.592493   6.106005   6.880789
    24  H    5.948406   4.753405   4.679218   4.351189   4.975408
    25  N    6.536220   6.451865   5.564673   4.766482   5.396644
    26  C    7.562906   7.698228   6.699081   5.898142   6.467258
    27  H    6.875342   6.553813   5.714909   5.097225   5.787440
    28  H    7.557016   7.843153   6.937632   5.890829   6.317335
    29  H    7.616439   7.887865   6.679403   6.174541   6.837002
    30  H    8.517379   8.513426   7.580422   6.768630   7.322823
                   11         12         13         14         15
    11  H    0.000000
    12  H    2.895053   0.000000
    13  Br   3.176798   2.512822   0.000000
    14  C    3.544329   2.683248   4.230685   0.000000
    15  C    3.896237   3.868146   5.342437   1.402492   0.000000
    16  C    5.147036   4.858015   6.608142   2.431348   1.396473
    17  C    5.939405   4.953725   6.948105   2.808099   2.416550
    18  C    5.723756   4.104226   6.145911   2.431383   2.788212
    19  C    4.631680   2.863796   4.758207   1.402985   2.414462
    20  H    3.552788   4.308198   5.418725   2.167159   1.088735
    21  H    5.712910   5.813517   7.486831   3.414038   2.155321
    22  H    6.949188   5.956333   8.016781   3.895290   3.401946
    23  H    6.620133   4.667655   6.750891   3.414690   3.875319
    24  H    4.892562   2.556432   4.342903   2.169189   3.408317
    25  N    4.406029   4.396142   4.135982   3.003171   3.438497
    26  C    5.364032   5.760848   5.127930   4.357513   4.531041
    27  H    4.906448   4.363206   4.510173   2.686122   3.219147
    28  H    5.272565   5.952674   4.877828   4.971747   5.226079
    29  H    5.549250   6.266445   5.880128   4.535486   4.364280
    30  H    6.322000   6.360982   5.719122   4.923860   5.177661
                   16         17         18         19         20
    16  C    0.000000
    17  C    1.393314   0.000000
    18  C    2.412816   1.393394   0.000000
    19  C    2.788966   2.417213   1.396788   0.000000
    20  H    2.147173   3.396066   3.876794   3.407779   0.000000
    21  H    1.087070   2.154112   3.398526   3.876031   2.466485
    22  H    2.153688   1.087195   2.154119   3.402757   4.291111
    23  H    3.398004   2.153355   1.087107   2.156219   4.963893
    24  H    3.876718   3.394820   2.145171   1.087964   4.319957
    25  N    4.558056   5.191631   4.917381   3.902832   3.369262
    26  C    5.559719   6.307241   6.186853   5.282446   4.239391
    27  H    4.137348   4.552931   4.193416   3.291306   3.447341
    28  H    6.377222   7.176260   6.998684   5.969222   4.822192
    29  H    5.282021   6.187966   6.311352   5.566960   3.906956
    30  H    6.061811   6.643792   6.449805   5.627513   5.042156
                   21         22         23         24         25
    21  H    0.000000
    22  H    2.481443   0.000000
    23  H    4.296410   2.480767   0.000000
    24  H    4.963782   4.289696   2.464827   0.000000
    25  N    5.210332   6.176293   5.762247   4.170277   0.000000
    26  C    6.024524   7.217245   7.028492   5.574325   1.438775
    27  H    4.876912   5.496647   4.960418   3.557089   1.011815
    28  H    6.843908   8.131599   7.850619   6.169206   2.089999
    29  H    5.559455   7.029072   7.220985   6.044654   2.065464
    30  H    6.553199   7.490429   7.181140   5.830418   2.065180
                   26         27         28         29         30
    26  C    0.000000
    27  H    2.122022   0.000000
    28  H    1.093282   2.961445   0.000000
    29  H    1.093155   2.643714   1.785062   0.000000
    30  H    1.092371   2.337595   1.789980   1.787408   0.000000
 Stoichiometry    C11H15BrN2O
 Framework group  C1[X(C11H15BrN2O)]
 Deg. of freedom    84
 Full point group                 C1      NOp   1
 Largest Abelian subgroup         C1      NOp   1
 Largest concise Abelian subgroup C1      NOp   1
                         Standard orientation:                         
 ---------------------------------------------------------------------
 Center     Atomic      Atomic             Coordinates (Angstroms)
 Number     Number       Type             X           Y           Z
 ---------------------------------------------------------------------
      1          6           0        0.061771    0.162220   -0.059871
      2          6           0       -0.400741    1.455839    0.531629
      3          8           0       -1.154291    1.502538    1.497809
      4          6           0       -0.853668   -0.805021   -0.345821
      5          6           0       -0.177655   -2.940690    1.773979
      6          1           0       -0.631175   -3.300641    2.701799
      7          1           0       -0.079374   -3.779890    1.080049
      8          1           0        0.820184   -2.553819    1.997229
      9          7           0       -1.005456   -1.890121    1.175439
     10          1           0       -1.954926   -2.271803    1.086499
     11          1           0       -1.128687   -1.163601    1.897829
     12          1           0       -0.541877   -1.705521   -0.884851
     13         35           0       -2.677898   -0.387463   -0.764801
     14          6           0        1.508341   -0.106678   -0.221431
     15          6           0        2.390431    0.133353    0.842189
     16          6           0        3.760311   -0.094495    0.695049
     17          6           0        4.263662   -0.560335   -0.517781
     18          6           0        3.399242   -0.798386   -1.584391
     19          6           0        2.028762   -0.571308   -1.438661
     20          1           0        2.014271    0.490022    1.799599
     21          1           0        4.432911    0.089375    1.529029
     22          1           0        5.330052   -0.739093   -0.631141
     23          1           0        3.791753   -1.160985   -2.531101
     24          1           0        1.372852   -0.755158   -2.286981
     25          7           0        0.139348    2.562680   -0.082071
     26          6           0       -0.107454    3.889620    0.416319
     27          1           0        0.842868    2.431191   -0.797291
     28          1           0       -1.141524    3.984349    0.758359
     29          1           0        0.571306    4.079211    1.251979
     30          1           0        0.086865    4.604650   -0.386331
 ---------------------------------------------------------------------
 Rotational constants (GHZ):           0.5707058           0.3130453           0.2543192
 Standard basis: STO-3G (5D, 7F)
 There are   104 symmetry adapted cartesian basis functions of A   symmetry.
 There are   103 symmetry adapted basis functions of A   symmetry.
   103 basis functions,   312 primitive gaussians,   104 cartesian basis functions
    69 alpha electrons       69 beta electrons
       nuclear repulsion energy      1347.9991246151 Hartrees.
 NAtoms=   30 NActive=   30 NUniq=   30 SFac= 1.00D+00 NAtFMM=   60 NAOKFM=F Big=F
 Integral buffers will be    131072 words long.
 Raffenetti 1 integral format.
 Two-electron integral symmetry is turned on.
 External calculation of energy, first and second derivatives.
 Running external command "~/scripts/MiMe -H 'hf 6-31g(d)' -EF 'wb97xd def2svp' -c 12 -m 48GB R"
         input file       "/local/jobs/1157670/Gau-2283029.EIn"
         output file      "/local/jobs/1157670/Gau-2283029.EOu"
         message file     "/local/jobs/1157670/Gau-2283029.EMs"
         fchk file        "/local/jobs/1157670/Gau-2283029.EFC"
         mat. el file     "/local/jobs/1157670/Gau-2283029.EUF"
 Read checkpoint file Gau-2283029_H.chk type G16
 Write formatted file Gau-2283029_H.fchk

deriv: 2

spelevel: wb97xd def2svp
gradlevel: wb97xd def2svp
hesslevel: hf 6-31g(d)

runspe: False
runforce: True
runfreq: True

Running Gaussian ...

Parsing files ...
SPE file: Gau-2283029_F.out
FORCE file: Gau-2283029_F.out
HESS file: Gau-2283029_H.out

 ExternalExternalExternalExternalExternalExternalExternalExternalExternalExternal
 Output from external command:
 "~/scripts/MiMe -H 'hf 6-31g(d)' -EF 'wb97xd def2svp' -c 12 -m 48GB R /local/jobs/1157670/Gau-2283029.EIn /local/jobs/1157670/Gau-2283029.EOu /local/jobs/1157670/Gau-2283029.EMs /local/jobs/1157670/Gau-2283029.EFC /local/jobs/1157670/Gau-2283029.EUF"
  
 --------------------------------------------------
 Force calculation at wb97xd def2svp
 Hessian calculation at hf 6-31g(d)
 ExternalExternalExternalExternalExternalExternalExternalExternalExternalExternal

 Recovered energy= -3186.12941520     dipole=      1.200900000000     -3.104500000000      0.376200000000
 Energy=    -3186.12942     NIter=   0.
 Dipole moment=       1.200900      -3.104500       0.376200
 ***** Axes restored to original set *****
 -------------------------------------------------------------------
 Center     Atomic                   Forces (Hartrees/Bohr)
 Number     Number              X              Y              Z
 -------------------------------------------------------------------
      1        6          -0.001720372    0.021014517   -0.012066100
      2        6           0.018747369   -0.009361337   -0.001782190
      3        8          -0.002427398    0.008060121   -0.006357442
      4        6           0.022972178   -0.002259832   -0.024519171
      5        6           0.004553538    0.003164048   -0.009007489
      6        1           0.000023169   -0.003614399    0.004773783
      7        1           0.001140051   -0.002945186   -0.002416408
      8        1           0.003391391    0.002005216   -0.000592329
      9        7          -0.040868928   -0.021046559    0.053559972
     10        1           0.002033591    0.000183013   -0.000333819
     11        1           0.002047528    0.002885873   -0.009297876
     12        1           0.000818244    0.007896110   -0.009008446
     13       35           0.000196220   -0.003137862    0.004975389
     14        6          -0.011077958    0.004107306   -0.002121278
     15        6           0.010643485   -0.001658333   -0.001884103
     16        6          -0.006059152    0.000699692   -0.002989362
     17        6           0.000616557   -0.000349538   -0.000047287
     18        6          -0.005080430    0.000096115    0.004789660
     19        6           0.011465596   -0.003685447    0.001094326
     20        1          -0.003482082    0.001421633    0.001667977
     21        1           0.002391962    0.000713404    0.003013846
     22        1           0.003705661   -0.000411738   -0.000499207
     23        1           0.001292009   -0.000959245   -0.003576982
     24        1          -0.004188348    0.001177728   -0.001282472
     25        7          -0.013916840   -0.007728269    0.008792708
     26        6           0.007391777   -0.006510149   -0.002173872
     27        1          -0.002856317   -0.003042485    0.000239075
     28        1          -0.002366730   -0.000466849    0.001270424
     29        1           0.000934091    0.008793299    0.006859288
     30        1          -0.000319866    0.004959152   -0.001080613
 -------------------------------------------------------------------
 Cartesian Forces:  Max     0.053559972 RMS     0.009953923
 FormGI is forming the generalized inverse of G from B-inverse, IUseBI=4.

 GradGradGradGradGradGradGradGradGradGradGradGradGradGradGradGradGradGrad
 Berny optimization.
 Internal  Forces:  Max     0.043217533 RMS     0.006088063
 Search for a saddle point.
 Step number   1 out of a maximum of   50
 All quantities printed in internal units (Hartrees-Bohrs-Radians)
 Swapping is turned off.
 Second derivative matrix not updated -- analytic derivatives used.
 ITU=  0
     Eigenvalues ---   -0.07422   0.00432   0.00466   0.00650   0.01092
     Eigenvalues ---    0.01187   0.01580   0.02274   0.02433   0.02478
     Eigenvalues ---    0.02539   0.02711   0.02917   0.03093   0.03279
     Eigenvalues ---    0.03510   0.03539   0.04175   0.04487   0.04704
     Eigenvalues ---    0.05385   0.06158   0.06301   0.06625   0.07403
     Eigenvalues ---    0.07821   0.07970   0.08238   0.09206   0.12132
     Eigenvalues ---    0.12896   0.13407   0.13916   0.14493   0.14732
     Eigenvalues ---    0.15172   0.15275   0.15760   0.15834   0.16685
     Eigenvalues ---    0.17282   0.19824   0.20888   0.22069   0.22126
     Eigenvalues ---    0.22190   0.22269   0.22377   0.22539   0.23036
     Eigenvalues ---    0.23080   0.24375   0.26536   0.27732   0.29704
     Eigenvalues ---    0.33575   0.34150   0.35030   0.35105   0.35213
     Eigenvalues ---    0.35690   0.35857   0.36331   0.36578   0.37154
     Eigenvalues ---    0.37328   0.37503   0.37551   0.37693   0.39055
     Eigenvalues ---    0.39857   0.41260   0.42022   0.43177   0.44859
     Eigenvalues ---    0.46779   0.47155   0.47632   0.48434   0.51067
     Eigenvalues ---    0.51478   0.55047   0.59763   0.84331
 Eigenvectors required to have negative eigenvalues:
                          R6        A19       A10       D5        D8
   1                   -0.76775  -0.31839   0.20484   0.18342   0.18185
                          D7        D10       A20       R2        A21
   1                    0.17553   0.17395   0.16464   0.13368   0.11398
 RFO step:  Lambda0=1.489223289D-03 Lambda=-3.23908549D-02.
 Linear search not attempted -- option 19 set.
 Maximum step size (   0.100) exceeded in Quadratic search.
    -- Step size scaled by   0.246
 Iteration  1 RMS(Cart)=  0.02902421 RMS(Int)=  0.00042267
 Iteration  2 RMS(Cart)=  0.00079007 RMS(Int)=  0.00010197
 Iteration  3 RMS(Cart)=  0.00000033 RMS(Int)=  0.00010197
 Variable       Old X    -DE/DX   Delta X   Delta X   Delta X     New X
                                 (Linear)    (Quad)   (Total)
    R1        2.82654  -0.00391   0.00000  -0.00344  -0.00344   2.82310
    R2        2.57402   0.01276   0.00000   0.00200   0.00200   2.57602
    R3        2.79716   0.00022   0.00000   0.00020   0.00020   2.79736
    R4        2.31715  -0.00321   0.00000   0.00058   0.00058   2.31773
    R5        2.60029  -0.01378   0.00000  -0.00737  -0.00737   2.59293
    R6        3.54278   0.04322   0.00000   0.03998   0.03998   3.58276
    R7        2.06894  -0.00183   0.00000  -0.00075  -0.00075   2.06819
    R8        3.62400  -0.00196   0.00000   0.00274   0.00274   3.62674
    R9        2.06672   0.00523   0.00000   0.00361   0.00361   2.07033
   R10        2.06617   0.00390   0.00000   0.00265   0.00265   2.06881
   R11        2.06594   0.00368   0.00000   0.00258   0.00258   2.06852
   R12        2.76908   0.00318   0.00000  -0.00555  -0.00555   2.76353
   R13        1.94107  -0.00192   0.00000  -0.00245  -0.00245   1.93863
   R14        1.95005  -0.00472   0.00000  -0.00308  -0.00308   1.94697
   R15        2.65033   0.00324   0.00000   0.00214   0.00214   2.65247
   R16        2.65126   0.00253   0.00000   0.00096   0.00096   2.65221
   R17        2.63895  -0.00157   0.00000  -0.00170  -0.00170   2.63725
   R18        2.05741   0.00314   0.00000   0.00204   0.00204   2.05945
   R19        2.63298   0.00130   0.00000   0.00096   0.00096   2.63395
   R20        2.05426   0.00391   0.00000   0.00238   0.00238   2.05664
   R21        2.63313   0.00118   0.00000   0.00020   0.00020   2.63333
   R22        2.05450   0.00375   0.00000   0.00208   0.00208   2.05658
   R23        2.63955  -0.00154   0.00000  -0.00111  -0.00111   2.63844
   R24        2.05434   0.00390   0.00000   0.00235   0.00235   2.05668
   R25        2.05595   0.00332   0.00000   0.00218   0.00218   2.05813
   R26        2.71889   0.00697   0.00000   0.00136   0.00136   2.72025
   R27        1.91205  -0.00176   0.00000  -0.00048  -0.00048   1.91157
   R28        2.06600   0.00260   0.00000   0.00178   0.00178   2.06778
   R29        2.06576   0.00735   0.00000   0.00443   0.00443   2.07020
   R30        2.06428   0.00398   0.00000   0.00243   0.00243   2.06671
    A1        2.08214   0.00373   0.00000  -0.00199  -0.00201   2.08013
    A2        2.09725  -0.00164   0.00000  -0.00194  -0.00195   2.09530
    A3        2.10005  -0.00232   0.00000   0.00304   0.00303   2.10308
    A4        2.13480   0.00464   0.00000   0.00193   0.00192   2.13672
    A5        1.98007   0.00951   0.00000   0.00630   0.00629   1.98636
    A6        2.16760  -0.01408   0.00000  -0.00801  -0.00802   2.15959
    A7        1.87033   0.01515   0.00000   0.01254   0.01253   1.88285
    A8        2.08981  -0.00434   0.00000  -0.00445  -0.00475   2.08506
    A9        2.13005   0.00137   0.00000   0.00157   0.00156   2.13161
   A10        1.51728   0.00946   0.00000   0.02413   0.02414   1.54141
   A11        1.79906  -0.01970   0.00000  -0.03199  -0.03196   1.76710
   A12        1.92029  -0.00030   0.00000   0.00087   0.00115   1.92143
   A13        1.89979  -0.00165   0.00000  -0.00182  -0.00182   1.89797
   A14        1.89834  -0.00066   0.00000  -0.00135  -0.00135   1.89699
   A15        1.92648   0.00484   0.00000   0.00598   0.00598   1.93246
   A16        1.89565  -0.00005   0.00000  -0.00121  -0.00121   1.89444
   A17        1.91965   0.00008   0.00000  -0.00121  -0.00121   1.91844
   A18        1.92338  -0.00265   0.00000  -0.00053  -0.00053   1.92285
   A19        2.34714  -0.02335   0.00000  -0.06410  -0.06414   2.28300
   A20        1.79225   0.00915   0.00000   0.02969   0.02991   1.82216
   A21        1.74185   0.00014   0.00000   0.00270   0.00240   1.74424
   A22        1.86622   0.00680   0.00000   0.01676   0.01696   1.88319
   A23        1.86114   0.01241   0.00000   0.02138   0.02068   1.88182
   A24        1.78426  -0.00155   0.00000   0.00815   0.00780   1.79206
   A25        2.09531   0.00107   0.00000   0.00191   0.00191   2.09722
   A26        2.11457   0.00353   0.00000   0.00200   0.00200   2.11658
   A27        2.07299  -0.00459   0.00000  -0.00390  -0.00390   2.06909
   A28        2.10498   0.00232   0.00000   0.00193   0.00193   2.10691
   A29        2.10095  -0.00386   0.00000  -0.00409  -0.00409   2.09686
   A30        2.07719   0.00155   0.00000   0.00217   0.00217   2.07936
   A31        2.09515   0.00102   0.00000   0.00105   0.00105   2.09620
   A32        2.09268  -0.00056   0.00000  -0.00067  -0.00067   2.09201
   A33        2.09536  -0.00046   0.00000  -0.00039  -0.00039   2.09497
   A34        2.09361  -0.00225   0.00000  -0.00223  -0.00223   2.09138
   A35        2.09449   0.00116   0.00000   0.00118   0.00118   2.09567
   A36        2.09508   0.00109   0.00000   0.00105   0.00105   2.09613
   A37        2.09560   0.00108   0.00000   0.00092   0.00092   2.09653
   A38        2.09394  -0.00036   0.00000   0.00007   0.00007   2.09402
   A39        2.09364  -0.00072   0.00000  -0.00100  -0.00100   2.09264
   A40        2.10402   0.00242   0.00000   0.00223   0.00223   2.10624
   A41        2.10462  -0.00422   0.00000  -0.00504  -0.00505   2.09957
   A42        2.07453   0.00180   0.00000   0.00281   0.00281   2.07734
   A43        2.11769   0.00270   0.00000   0.00360   0.00360   2.12129
   A44        2.07560  -0.00436   0.00000  -0.00523  -0.00523   2.07037
   A45        2.07599   0.00170   0.00000   0.00199   0.00199   2.07798
   A46        1.92893  -0.00412   0.00000  -0.00328  -0.00328   1.92565
   A47        1.89468   0.01255   0.00000   0.01171   0.01170   1.90638
   A48        1.89510   0.00317   0.00000   0.00223   0.00222   1.89731
   A49        1.91039  -0.00457   0.00000  -0.00468  -0.00468   1.90571
   A50        1.91922  -0.00157   0.00000  -0.00212  -0.00212   1.91710
   A51        1.91529  -0.00528   0.00000  -0.00366  -0.00369   1.91160
    D1        0.85769  -0.00473   0.00000  -0.01780  -0.01780   0.83988
    D2       -2.32296  -0.00315   0.00000  -0.01215  -0.01212  -2.33509
    D3       -2.19138  -0.00164   0.00000  -0.00710  -0.00712  -2.19850
    D4        0.91115  -0.00006   0.00000  -0.00144  -0.00144   0.90971
    D5       -1.58311   0.01435   0.00000   0.05416   0.05415  -1.52897
    D6        3.01711  -0.00472   0.00000   0.01895   0.01898   3.03609
    D7        0.48003   0.00168   0.00000   0.02257   0.02256   0.50259
    D8        1.46580   0.01130   0.00000   0.04316   0.04314   1.50895
    D9       -0.21716  -0.00777   0.00000   0.00796   0.00798  -0.20918
   D10       -2.75424  -0.00137   0.00000   0.01157   0.01156  -2.74268
   D11        0.82996  -0.00330   0.00000  -0.01347  -0.01347   0.81648
   D12       -2.28432  -0.00397   0.00000  -0.01380  -0.01380  -2.29812
   D13       -2.21816  -0.00050   0.00000  -0.00238  -0.00237  -2.22053
   D14        0.95076  -0.00117   0.00000  -0.00271  -0.00270   0.94805
   D15       -3.05591   0.00039   0.00000   0.00183   0.00185  -3.05407
   D16       -0.09460   0.00081   0.00000   0.00432   0.00432  -0.09028
   D17        0.04577   0.00250   0.00000   0.00788   0.00787   0.05364
   D18        3.00708   0.00293   0.00000   0.01036   0.01035   3.01744
   D19       -1.32926  -0.00069   0.00000   0.00374   0.00339  -1.32587
   D20        2.68942  -0.00034   0.00000   0.00141   0.00141   2.69083
   D21        0.85637  -0.00094   0.00000  -0.01503  -0.01495   0.84142
   D22        0.76899  -0.00038   0.00000   0.00840   0.00833   0.77732
   D23       -1.49552  -0.00003   0.00000   0.00607   0.00635  -1.48917
   D24        2.95462  -0.00063   0.00000  -0.01037  -0.01002   2.94461
   D25        2.68627   0.00094   0.00000   0.01393   0.01358   2.69985
   D26        0.42177   0.00129   0.00000   0.01160   0.01160   0.43337
   D27       -1.41128   0.00069   0.00000  -0.00484  -0.00477  -1.41604
   D28        3.10918  -0.00212   0.00000  -0.01210  -0.01219   3.09700
   D29       -0.93361  -0.00249   0.00000  -0.00766  -0.00773  -0.94134
   D30        0.96507   0.00386   0.00000   0.01759   0.01776   0.98282
   D31       -1.07744  -0.00102   0.00000  -0.01133  -0.01141  -1.08886
   D32        1.16295  -0.00140   0.00000  -0.00689  -0.00696   1.15599
   D33        3.06163   0.00495   0.00000   0.01837   0.01853   3.08016
   D34        1.01203  -0.00270   0.00000  -0.01392  -0.01401   0.99802
   D35       -3.03076  -0.00308   0.00000  -0.00948  -0.00955  -3.04031
   D36       -1.13208   0.00328   0.00000   0.01578   0.01593  -1.11615
   D37       -3.12232  -0.00049   0.00000  -0.00040  -0.00041  -3.12272
   D38        0.03136  -0.00085   0.00000  -0.00075  -0.00075   0.03061
   D39       -0.00740   0.00029   0.00000   0.00000   0.00000  -0.00740
   D40       -3.13691  -0.00007   0.00000  -0.00034  -0.00034  -3.13725
   D41        3.12171   0.00098   0.00000   0.00183   0.00183   3.12354
   D42       -0.01337   0.00098   0.00000   0.00360   0.00360  -0.00977
   D43        0.00710   0.00024   0.00000   0.00142   0.00142   0.00852
   D44       -3.12799   0.00024   0.00000   0.00319   0.00319  -3.12480
   D45        0.00372  -0.00052   0.00000  -0.00114  -0.00114   0.00258
   D46       -3.13478  -0.00028   0.00000   0.00003   0.00003  -3.13475
   D47        3.13339  -0.00021   0.00000  -0.00084  -0.00084   3.13254
   D48       -0.00511   0.00004   0.00000   0.00033   0.00033  -0.00478
   D49        0.00041   0.00026   0.00000   0.00087   0.00087   0.00128
   D50       -3.13981   0.00007   0.00000   0.00010   0.00009  -3.13972
   D51        3.13890   0.00001   0.00000  -0.00030  -0.00030   3.13860
   D52       -0.00132  -0.00018   0.00000  -0.00108  -0.00108  -0.00240
   D53       -0.00071   0.00026   0.00000   0.00055   0.00055  -0.00016
   D54        3.14062  -0.00035   0.00000  -0.00208  -0.00209   3.13853
   D55        3.13951   0.00045   0.00000   0.00132   0.00132   3.14084
   D56       -0.00235  -0.00016   0.00000  -0.00131  -0.00131  -0.00366
   D57       -0.00311  -0.00053   0.00000  -0.00172  -0.00172  -0.00483
   D58        3.13208  -0.00055   0.00000  -0.00349  -0.00349   3.12859
   D59        3.13875   0.00008   0.00000   0.00091   0.00091   3.13966
   D60       -0.00924   0.00006   0.00000  -0.00086  -0.00086  -0.01010
   D61       -0.67731  -0.00070   0.00000   0.00086   0.00087  -0.67645
   D62        1.41803  -0.00093   0.00000   0.00047   0.00046   1.41849
   D63       -2.78378   0.00175   0.00000   0.00407   0.00408  -2.77970
   D64        2.64460  -0.00051   0.00000  -0.00090  -0.00090   2.64370
   D65       -1.54325  -0.00074   0.00000  -0.00129  -0.00130  -1.54455
   D66        0.53813   0.00193   0.00000   0.00231   0.00232   0.54045
         Item               Value     Threshold  Converged?
 Maximum Force            0.043218     0.000450     NO 
 RMS     Force            0.006088     0.000300     NO 
 Maximum Displacement     0.112713     0.001800     NO 
 RMS     Displacement     0.029310     0.001200     NO 
 Predicted change in Energy=-6.957265D-03
 GradGradGradGradGradGradGradGradGradGradGradGradGradGradGradGradGradGrad

                          Input orientation:                          
 ---------------------------------------------------------------------
 Center     Atomic      Atomic             Coordinates (Angstroms)
 Number     Number       Type             X           Y           Z
 ---------------------------------------------------------------------
      1          6           0        0.074023    0.150100   -0.074484
      2          6           0       -0.391657    1.436354    0.525920
      3          8           0       -1.151985    1.476051    1.487482
      4          6           0       -0.839931   -0.821245   -0.356277
      5          6           0       -0.203895   -2.911048    1.784995
      6          1           0       -0.631588   -3.285738    2.721455
      7          1           0       -0.097109   -3.747923    1.087314
      8          1           0        0.789896   -2.501680    1.992312
      9          7           0       -1.061563   -1.881083    1.200036
     10          1           0       -2.006362   -2.270757    1.110967
     11          1           0       -1.188335   -1.139302    1.903732
     12          1           0       -0.520192   -1.723850   -0.886243
     13         35           0       -2.663318   -0.411464   -0.792887
     14          6           0        1.522098   -0.111302   -0.235855
     15          6           0        2.406430    0.138933    0.825043
     16          6           0        3.776546   -0.082099    0.678234
     17          6           0        4.282929   -0.553424   -0.531796
     18          6           0        3.417671   -0.802029   -1.595451
     19          6           0        2.046906   -0.580009   -1.450218
     20          1           0        2.026484    0.499527    1.780717
     21          1           0        4.448950    0.110527    1.512038
     22          1           0        5.351247   -0.727280   -0.645183
     23          1           0        3.810763   -1.167372   -2.542291
     24          1           0        1.388445   -0.768602   -2.296998
     25          7           0        0.141528    2.551140   -0.070463
     26          6           0       -0.109685    3.872499    0.442420
     27          1           0        0.844082    2.427849   -0.787730
     28          1           0       -1.145412    3.956722    0.785207
     29          1           0        0.564882    4.067374    1.283317
     30          1           0        0.078322    4.599142   -0.353022
 ---------------------------------------------------------------------
                    Distance matrix (angstroms):
                    1          2          3          4          5
     1  C    0.000000
     2  C    1.493919   0.000000
     3  O    2.387673   1.226489   0.000000
     4  C    1.363170   2.464950   2.962161   0.000000
     5  C    3.592426   4.529948   4.498225   3.058899   0.000000
     6  H    4.485548   5.213070   4.946528   3.948362   1.095570
     7  H    4.071074   5.222897   5.344418   3.346817   1.094770
     8  H    3.437449   4.365145   4.455121   3.316032   1.094615
     9  N    2.653235   3.450883   3.370630   1.895912   1.462396
    10  H    3.404973   4.085611   3.861385   2.369482   2.028096
    11  H    2.677582   3.027716   2.648520   2.308719   2.030346
    12  H    2.126907   3.463758   4.033994   1.094437   2.940237
    13  Br   2.885220   3.211561   3.323691   1.919190   4.352259
    14  C    1.480302   2.576432   3.555320   2.469353   3.860241
    15  C    2.499878   3.098720   3.858630   3.585571   4.127673
    16  C    3.785389   4.438786   5.231934   4.788362   5.007173
    17  C    4.291732   5.189387   6.142845   5.132858   5.572925
    18  C    3.794715   4.901178   5.964552   4.434309   5.384339
    19  C    2.513557   3.730607   4.805244   3.096567   4.578913
    20  H    2.715874   2.880897   3.338001   3.811498   4.075123
    21  H    4.653880   5.114853   5.765044   5.686041   5.554582
    22  H    5.380017   6.247699   7.189921   6.198627   6.444704
    23  H    4.667872   5.818389   6.917777   5.150478   6.154940
    24  H    2.740673   3.999933   5.080802   2.955474   4.877323
    25  N    2.401992   1.372118   2.292638   3.523909   5.779060
    26  C    3.762605   2.453830   2.814518   4.816889   6.915771
    27  H    2.507957   2.058103   3.172821   3.684924   6.018387
    28  H    4.088577   2.643412   2.578170   4.921918   7.003734
    29  H    4.174877   2.900152   3.115168   5.344190   7.038541
    30  H    4.457755   3.316119   3.828160   5.497617   7.813687
                    6          7          8          9         10
     6  H    0.000000
     7  H    1.780365   0.000000
     8  H    1.779610   1.777335   0.000000
     9  N    2.114865   2.104274   2.107307   0.000000
    10  H    2.348162   2.414089   2.940944   1.025877   0.000000
    11  H    2.363435   2.943164   2.403605   1.030290   1.605564
    12  H    3.932860   2.858461   3.256905   2.161102   2.548853
    13  Br   4.973930   4.610048   4.904184   2.949091   2.741026
    14  C    4.843665   4.194952   3.348844   3.445172   4.350540
    15  C    4.955230   4.630782   3.308858   4.030888   5.035979
    16  C    5.819768   5.348908   4.062174   5.188055   6.198346
    17  C    6.496281   5.657833   4.729493   5.772826   6.723323
    18  C    6.418799   5.313116   4.760888   5.389122   6.237145
    19  C    5.647845   4.590376   4.138105   4.287099   5.084021
    20  H    4.720017   4.799092   3.252870   3.942147   4.938307
    21  H    6.229700   5.977849   4.521390   5.867675   6.892200
    22  H    7.326273   6.466097   5.559749   6.772018   7.720155
    23  H    7.206177   5.924925   5.609692   6.184978   6.957204
    24  H    5.966689   4.747293   4.664761   4.412414   5.039385
    25  N    6.516261   6.409024   5.496036   4.765102   5.409242
    26  C    7.530388   7.647671   6.621297   5.880796   6.464049
    27  H    6.865643   6.522406   5.659666   5.113666   5.814376
    28  H    7.514406   7.781501   6.849341   5.853125   6.295145
    29  H    7.587360   7.845732   6.611034   6.167365   6.841995
    30  H    8.492803   8.472239   7.511898   6.760520   7.326983
                   11         12         13         14         15
    11  H    0.000000
    12  H    2.927810   0.000000
    13  Br   3.158651   2.514769   0.000000
    14  C    3.602924   2.682213   4.232977   0.000000
    15  C    3.964819   3.868278   5.350044   1.403625   0.000000
    16  C    5.222027   4.858486   6.613964   2.432888   1.395574
    17  C    6.017456   4.956359   6.952601   2.811626   2.416944
    18  C    5.794249   4.106031   6.146143   2.432858   2.786899
    19  C    4.693461   2.866432   4.758855   1.403491   2.413078
    20  H    3.610534   4.306000   5.426563   2.166582   1.089816
    21  H    5.787441   5.814556   7.494632   3.416255   2.155147
    22  H    7.030851   5.960290   8.022145   3.899918   3.403504
    23  H    6.690209   4.670047   6.748743   3.416566   3.875245
    24  H    4.941998   2.558441   4.336667   2.167537   3.406912
    25  N    4.391509   4.402149   4.143197   3.003652   3.427893
    26  C    5.330766   5.766541   5.138031   4.358147   4.518489
    27  H    4.909099   4.371219   4.512602   2.685435   3.206415
    28  H    5.217509   5.954288   4.886253   4.970613   5.214660
    29  H    5.528848   6.278746   5.898465   4.548129   4.362792
    30  H    6.295006   6.373600   5.728546   4.928133   5.167338
                   16         17         18         19         20
    16  C    0.000000
    17  C    1.393824   0.000000
    18  C    2.411790   1.393498   0.000000
    19  C    2.787450   2.417438   1.396202   0.000000
    20  H    2.148598   3.398230   3.876590   3.406575   0.000000
    21  H    1.088329   2.155378   3.398938   3.875773   2.468167
    22  H    2.155777   1.088295   2.155763   3.404180   4.294659
    23  H    3.398643   2.154521   1.088350   2.156111   4.964937
    24  H    3.876379   3.397098   2.147334   1.089116   4.317754
    25  N    4.550588   5.196378   4.929750   3.916411   3.345003
    26  C    5.549526   6.311335   6.200513   5.296960   4.210843
    27  H    4.128950   4.558416   4.208073   3.306491   3.422487
    28  H    6.367824   7.179331   7.009633   5.980798   4.796266
    29  H    5.281953   6.202441   6.335359   5.591670   3.887572
    30  H    6.054285   6.652790   6.470511   5.648253   5.015478
                   21         22         23         24         25
    21  H    0.000000
    22  H    2.483881   0.000000
    23  H    4.298592   2.483101   0.000000
    24  H    4.964707   4.293483   2.467147   0.000000
    25  N    5.197574   6.182193   5.779321   4.187236   0.000000
    26  C    6.006468   7.222370   7.048313   5.593624   1.439496
    27  H    4.863536   5.503607   4.980492   3.576524   1.011560
    28  H    6.827765   8.135875   7.867163   6.184586   2.089030
    29  H    5.549317   7.043941   7.250764   6.073185   2.076274
    30  H    6.536704   7.500658   7.209487   5.857315   2.068368
                   26         27         28         29         30
    26  C    0.000000
    27  H    2.123665   0.000000
    28  H    1.094225   2.961362   0.000000
    29  H    1.095501   2.656168   1.784787   0.000000
    30  H    1.093657   2.343048   1.790473   1.788050   0.000000
 Stoichiometry    C11H15BrN2O
 Framework group  C1[X(C11H15BrN2O)]
 Deg. of freedom    84
 Full point group                 C1      NOp   1
 Largest Abelian subgroup         C1      NOp   1
 Largest concise Abelian subgroup C1      NOp   1
                         Standard orientation:                         
 ---------------------------------------------------------------------
 Center     Atomic      Atomic             Coordinates (Angstroms)
 Number     Number       Type             X           Y           Z
 ---------------------------------------------------------------------
      1          6           0        0.070756    0.156949   -0.067218
      2          6           0       -0.380310    1.454685    0.519480
      3          8           0       -1.141715    1.513195    1.479227
      4          6           0       -0.854429   -0.806034   -0.340948
      5          6           0       -0.247365   -2.881862    1.822214
      6          1           0       -0.681141   -3.241964    2.761596
      7          1           0       -0.149558   -3.726903    1.133114
      8          1           0        0.750964   -2.482499    2.027225
      9          7           0       -1.091504   -1.847494    1.225462
     10          1           0       -2.040805   -2.226577    1.138584
     11          1           0       -1.210458   -1.097233    1.921491
     12          1           0       -0.544762   -1.717697   -0.861304
     13         35           0       -2.671979   -0.378602   -0.784910
     14          6           0        1.515826   -0.123560   -0.223363
     15          6           0        2.401341    0.126552    0.836575
     16          6           0        3.768923   -0.112503    0.694447
     17          6           0        4.271589   -0.601999   -0.509905
     18          6           0        3.405169   -0.850739   -1.572582
     19          6           0        2.036954   -0.610705   -1.432041
     20          1           0        2.024189    0.501257    1.787917
     21          1           0        4.442210    0.080301    1.527497
     22          1           0        5.337910   -0.789897   -0.619627
     23          1           0        3.795395   -1.230264   -2.515020
     24          1           0        1.377679   -0.799775   -2.278082
     25          7           0        0.167349    2.556916   -0.087038
     26          6           0       -0.068692    3.886282    0.412180
     27          1           0        0.869561    2.417965   -0.801771
     28          1           0       -1.103897    3.986457    0.752244
     29          1           0        0.606773    4.081378    1.252304
     30          1           0        0.129443    4.602605   -0.390134
 ---------------------------------------------------------------------
 Rotational constants (GHZ):           0.5715740           0.3113612           0.2545760
 Standard basis: STO-3G (5D, 7F)
 There are   104 symmetry adapted cartesian basis functions of A   symmetry.
 There are   103 symmetry adapted basis functions of A   symmetry.
   103 basis functions,   312 primitive gaussians,   104 cartesian basis functions
    69 alpha electrons       69 beta electrons
       nuclear repulsion energy      1347.6195526500 Hartrees.
 NAtoms=   30 NActive=   30 NUniq=   30 SFac= 1.00D+00 NAtFMM=   60 NAOKFM=F Big=F
 Integral buffers will be    131072 words long.
 Raffenetti 1 integral format.
 Two-electron integral symmetry is turned on.
 External calculation of energy, first and second derivatives.
 Running external command "~/scripts/MiMe -H 'hf 6-31g(d)' -EF 'wb97xd def2svp' -c 12 -m 48GB R"
         input file       "/local/jobs/1157670/Gau-2283029.EIn"
         output file      "/local/jobs/1157670/Gau-2283029.EOu"
         message file     "/local/jobs/1157670/Gau-2283029.EMs"
         fchk file        "/local/jobs/1157670/Gau-2283029.EFC"
         mat. el file     "/local/jobs/1157670/Gau-2283029.EUF"
 Read checkpoint file Gau-2283029_H.chk type G16
 Write formatted file Gau-2283029_H.fchk

deriv: 2

spelevel: wb97xd def2svp
gradlevel: wb97xd def2svp
hesslevel: hf 6-31g(d)

runspe: False
runforce: True
runfreq: True

Running Gaussian ...

Parsing files ...
SPE file: Gau-2283029_F.out
FORCE file: Gau-2283029_F.out
HESS file: Gau-2283029_H.out

 ExternalExternalExternalExternalExternalExternalExternalExternalExternalExternal
 Output from external command:
 "~/scripts/MiMe -H 'hf 6-31g(d)' -EF 'wb97xd def2svp' -c 12 -m 48GB R /local/jobs/1157670/Gau-2283029.EIn /local/jobs/1157670/Gau-2283029.EOu /local/jobs/1157670/Gau-2283029.EMs /local/jobs/1157670/Gau-2283029.EFC /local/jobs/1157670/Gau-2283029.EUF"
  
 --------------------------------------------------
 Force calculation at wb97xd def2svp
 Hessian calculation at hf 6-31g(d)
 ExternalExternalExternalExternalExternalExternalExternalExternalExternalExternal

 Recovered energy= -3186.13646546     dipole=      1.177200000000     -2.972200000000      0.466500000000
 Energy=    -3186.13647     NIter=   0.
 Dipole moment=       1.177200      -2.972200       0.466500
 ***** Axes restored to original set *****
 -------------------------------------------------------------------
 Center     Atomic                   Forces (Hartrees/Bohr)
 Number     Number              X              Y              Z
 -------------------------------------------------------------------
      1        6          -0.002178325    0.016815408   -0.010434675
      2        6           0.015510392   -0.008013293   -0.000139037
      3        8          -0.002443938    0.006196443   -0.005241392
      4        6           0.020939366   -0.002009068   -0.020432978
      5        6           0.003604296    0.003012860   -0.007386216
      6        1           0.000482054   -0.002958033    0.003768880
      7        1           0.000994752   -0.002225169   -0.001927972
      8        1           0.002563094    0.001870240   -0.000809593
      9        7          -0.036109239   -0.017569304    0.045174473
     10        1           0.001755503   -0.000308522   -0.000732944
     11        1           0.002464838    0.003154392   -0.008027368
     12        1           0.000854804    0.006103730   -0.006779631
     13       35          -0.000154980   -0.002248148    0.003804690
     14        6          -0.008795367    0.003469124   -0.002133687
     15        6           0.008495919   -0.001138368   -0.001596605
     16        6          -0.004716458    0.000555410   -0.002406177
     17        6           0.000590213   -0.000323441   -0.000002371
     18        6          -0.004017775   -0.000139863    0.003847709
     19        6           0.009190616   -0.003175316    0.000879480
     20        1          -0.002853652    0.001144138    0.001211791
     21        1           0.001840236    0.000608303    0.002333678
     22        1           0.002887778   -0.000273604   -0.000391400
     23        1           0.000991117   -0.000746814   -0.002782952
     24        1          -0.003368458    0.001053987   -0.000923260
     25        7          -0.010945971   -0.005752293    0.007191322
     26        6           0.006577348   -0.005431692   -0.001860793
     27        1          -0.002356766   -0.002398243   -0.000003616
     28        1          -0.001836861   -0.000478328    0.001017501
     29        1           0.000458909    0.007150118    0.005457139
     30        1          -0.000423444    0.004055344   -0.000673995
 -------------------------------------------------------------------
 Cartesian Forces:  Max     0.045174473 RMS     0.008409996
 FormGI is forming the generalized inverse of G from B-inverse, IUseBI=4.

 GradGradGradGradGradGradGradGradGradGradGradGradGradGradGradGradGradGrad
 Berny optimization.
 Internal  Forces:  Max     0.035906838 RMS     0.005016964
 Search for a saddle point.
 Step number   2 out of a maximum of   50
 All quantities printed in internal units (Hartrees-Bohrs-Radians)
 Swapping is turned off.
 Second derivative matrix not updated -- analytic derivatives used.
 ITU=  0  0
     Eigenvalues ---   -0.06495   0.00455   0.00486   0.00662   0.01101
     Eigenvalues ---    0.01211   0.01674   0.02342   0.02451   0.02519
     Eigenvalues ---    0.02545   0.02760   0.02927   0.03096   0.03279
     Eigenvalues ---    0.03506   0.03542   0.04168   0.04464   0.04694
     Eigenvalues ---    0.05402   0.06128   0.06285   0.06605   0.07465
     Eigenvalues ---    0.07831   0.07957   0.08225   0.08972   0.11972
     Eigenvalues ---    0.12417   0.13257   0.13423   0.14509   0.14749
     Eigenvalues ---    0.15230   0.15338   0.15835   0.16184   0.16634
     Eigenvalues ---    0.17135   0.19643   0.20819   0.22000   0.22094
     Eigenvalues ---    0.22139   0.22203   0.22353   0.22506   0.22971
     Eigenvalues ---    0.23139   0.24421   0.26586   0.27905   0.29500
     Eigenvalues ---    0.33322   0.34168   0.34675   0.34740   0.35380
     Eigenvalues ---    0.35432   0.35630   0.36075   0.36351   0.36952
     Eigenvalues ---    0.37118   0.37246   0.37308   0.37452   0.39033
     Eigenvalues ---    0.40009   0.41679   0.42524   0.43585   0.44592
     Eigenvalues ---    0.46767   0.47387   0.47955   0.48517   0.51130
     Eigenvalues ---    0.51349   0.55022   0.59379   0.84443
 Eigenvectors required to have negative eigenvalues:
                          R6        A19       A10       D7        D10
   1                    0.78721   0.28128  -0.20194  -0.19381  -0.18891
                          D5        D8        A20       R2        A21
   1                   -0.17968  -0.17478  -0.14090  -0.12954  -0.09791
 RFO step:  Lambda0=1.761794087D-03 Lambda=-2.56780930D-02.
 Linear search not attempted -- option 19 set.
 Maximum step size (   0.100) exceeded in Quadratic search.
    -- Step size scaled by   0.270
 Iteration  1 RMS(Cart)=  0.03442479 RMS(Int)=  0.00050157
 Iteration  2 RMS(Cart)=  0.00093249 RMS(Int)=  0.00011967
 Iteration  3 RMS(Cart)=  0.00000043 RMS(Int)=  0.00011967
 Variable       Old X    -DE/DX   Delta X   Delta X   Delta X     New X
                                 (Linear)    (Quad)   (Total)
    R1        2.82310  -0.00313   0.00000  -0.00347  -0.00347   2.81963
    R2        2.57602   0.00976   0.00000   0.00275   0.00275   2.57877
    R3        2.79736   0.00027   0.00000   0.00001   0.00001   2.79737
    R4        2.31773  -0.00239   0.00000   0.00101   0.00101   2.31873
    R5        2.59293  -0.01047   0.00000  -0.00631  -0.00631   2.58661
    R6        3.58276   0.03591   0.00000   0.03263   0.03263   3.61539
    R7        2.06819  -0.00150   0.00000  -0.00043  -0.00043   2.06776
    R8        3.62674  -0.00120   0.00000   0.00510   0.00510   3.63184
    R9        2.07033   0.00405   0.00000   0.00308   0.00308   2.07341
   R10        2.06881   0.00303   0.00000   0.00237   0.00237   2.07118
   R11        2.06852   0.00287   0.00000   0.00219   0.00219   2.07072
   R12        2.76353   0.00215   0.00000  -0.00533  -0.00533   2.75819
   R13        1.93863  -0.00144   0.00000  -0.00223  -0.00223   1.93639
   R14        1.94697  -0.00352   0.00000  -0.00260  -0.00260   1.94436
   R15        2.65247   0.00243   0.00000   0.00202   0.00202   2.65448
   R16        2.65221   0.00199   0.00000   0.00089   0.00089   2.65310
   R17        2.63725  -0.00120   0.00000  -0.00157  -0.00157   2.63569
   R18        2.05945   0.00244   0.00000   0.00180   0.00180   2.06125
   R19        2.63395   0.00100   0.00000   0.00087   0.00087   2.63481
   R20        2.05664   0.00303   0.00000   0.00208   0.00208   2.05872
   R21        2.63333   0.00095   0.00000   0.00016   0.00016   2.63349
   R22        2.05658   0.00292   0.00000   0.00180   0.00180   2.05838
   R23        2.63844  -0.00119   0.00000  -0.00095  -0.00095   2.63749
   R24        2.05668   0.00303   0.00000   0.00204   0.00204   2.05873
   R25        2.05813   0.00257   0.00000   0.00189   0.00189   2.06002
   R26        2.72025   0.00543   0.00000   0.00100   0.00100   2.72125
   R27        1.91157  -0.00134   0.00000  -0.00038  -0.00038   1.91119
   R28        2.06778   0.00202   0.00000   0.00162   0.00162   2.06940
   R29        2.07020   0.00574   0.00000   0.00391   0.00391   2.07410
   R30        2.06671   0.00311   0.00000   0.00215   0.00215   2.06886
    A1        2.08013   0.00304   0.00000  -0.00324  -0.00326   2.07687
    A2        2.09530  -0.00118   0.00000  -0.00135  -0.00137   2.09393
    A3        2.10308  -0.00212   0.00000   0.00349   0.00346   2.10654
    A4        2.13672   0.00306   0.00000   0.00127   0.00126   2.13798
    A5        1.98636   0.00820   0.00000   0.00605   0.00605   1.99241
    A6        2.15959  -0.01122   0.00000  -0.00714  -0.00715   2.15244
    A7        1.88285   0.01091   0.00000   0.00992   0.00989   1.89275
    A8        2.08506  -0.00383   0.00000  -0.00410  -0.00440   2.08066
    A9        2.13161   0.00149   0.00000   0.00008   0.00005   2.13166
   A10        1.54141   0.00823   0.00000   0.02745   0.02744   1.56886
   A11        1.76710  -0.01545   0.00000  -0.02840  -0.02839   1.73871
   A12        1.92143  -0.00005   0.00000  -0.00012   0.00015   1.92158
   A13        1.89797  -0.00143   0.00000  -0.00162  -0.00162   1.89636
   A14        1.89699  -0.00048   0.00000  -0.00097  -0.00097   1.89602
   A15        1.93246   0.00443   0.00000   0.00598   0.00598   1.93844
   A16        1.89444   0.00006   0.00000  -0.00109  -0.00109   1.89335
   A17        1.91844   0.00006   0.00000  -0.00146  -0.00146   1.91698
   A18        1.92285  -0.00271   0.00000  -0.00098  -0.00098   1.92186
   A19        2.28300  -0.02020   0.00000  -0.06768  -0.06775   2.21525
   A20        1.82216   0.00815   0.00000   0.03243   0.03267   1.85484
   A21        1.74424  -0.00021   0.00000   0.00090   0.00051   1.74475
   A22        1.88319   0.00592   0.00000   0.01765   0.01790   1.90109
   A23        1.88182   0.01033   0.00000   0.02026   0.01938   1.90120
   A24        1.79206  -0.00114   0.00000   0.01061   0.01023   1.80228
   A25        2.09722   0.00081   0.00000   0.00202   0.00202   2.09923
   A26        2.11658   0.00289   0.00000   0.00167   0.00167   2.11825
   A27        2.06909  -0.00369   0.00000  -0.00368  -0.00368   2.06540
   A28        2.10691   0.00190   0.00000   0.00185   0.00185   2.10876
   A29        2.09686  -0.00321   0.00000  -0.00380  -0.00380   2.09306
   A30        2.07936   0.00132   0.00000   0.00195   0.00195   2.08131
   A31        2.09620   0.00081   0.00000   0.00096   0.00096   2.09716
   A32        2.09201  -0.00046   0.00000  -0.00066  -0.00066   2.09135
   A33        2.09497  -0.00035   0.00000  -0.00031  -0.00031   2.09466
   A34        2.09138  -0.00184   0.00000  -0.00209  -0.00209   2.08929
   A35        2.09567   0.00094   0.00000   0.00108   0.00108   2.09676
   A36        2.09613   0.00090   0.00000   0.00101   0.00101   2.09714
   A37        2.09653   0.00085   0.00000   0.00090   0.00089   2.09742
   A38        2.09402  -0.00028   0.00000   0.00006   0.00006   2.09408
   A39        2.09264  -0.00058   0.00000  -0.00096  -0.00096   2.09167
   A40        2.10624   0.00196   0.00000   0.00205   0.00206   2.10830
   A41        2.09957  -0.00349   0.00000  -0.00474  -0.00475   2.09483
   A42        2.07734   0.00153   0.00000   0.00267   0.00267   2.08001
   A43        2.12129   0.00206   0.00000   0.00387   0.00386   2.12515
   A44        2.07037  -0.00338   0.00000  -0.00526  -0.00526   2.06511
   A45        2.07798   0.00136   0.00000   0.00197   0.00197   2.07996
   A46        1.92565  -0.00354   0.00000  -0.00303  -0.00303   1.92263
   A47        1.90638   0.01029   0.00000   0.01115   0.01113   1.91751
   A48        1.89731   0.00276   0.00000   0.00203   0.00202   1.89933
   A49        1.90571  -0.00374   0.00000  -0.00439  -0.00438   1.90133
   A50        1.91710  -0.00131   0.00000  -0.00225  -0.00225   1.91485
   A51        1.91160  -0.00440   0.00000  -0.00342  -0.00344   1.90816
    D1        0.83988  -0.00440   0.00000  -0.02054  -0.02053   0.81935
    D2       -2.33509  -0.00308   0.00000  -0.01485  -0.01483  -2.34992
    D3       -2.19850  -0.00145   0.00000  -0.00859  -0.00861  -2.20712
    D4        0.90971  -0.00013   0.00000  -0.00291  -0.00291   0.90680
    D5       -1.52897   0.01243   0.00000   0.06109   0.06108  -1.46789
    D6        3.03609  -0.00279   0.00000   0.02315   0.02318   3.05927
    D7        0.50259   0.00183   0.00000   0.03110   0.03109   0.53368
    D8        1.50895   0.00952   0.00000   0.04879   0.04877   1.55772
    D9       -0.20918  -0.00569   0.00000   0.01086   0.01088  -0.19830
   D10       -2.74268  -0.00107   0.00000   0.01880   0.01879  -2.72389
   D11        0.81648  -0.00319   0.00000  -0.01684  -0.01685   0.79964
   D12       -2.29812  -0.00380   0.00000  -0.01718  -0.01719  -2.31531
   D13       -2.22053  -0.00051   0.00000  -0.00433  -0.00432  -2.22485
   D14        0.94805  -0.00112   0.00000  -0.00467  -0.00466   0.94339
   D15       -3.05407   0.00046   0.00000   0.00190   0.00192  -3.05215
   D16       -0.09028   0.00082   0.00000   0.00587   0.00588  -0.08440
   D17        0.05364   0.00212   0.00000   0.00786   0.00786   0.06150
   D18        3.01744   0.00249   0.00000   0.01183   0.01182   3.02926
   D19       -1.32587  -0.00058   0.00000   0.00453   0.00413  -1.32174
   D20        2.69083  -0.00019   0.00000   0.00269   0.00271   2.69354
   D21        0.84142  -0.00100   0.00000  -0.01717  -0.01705   0.82437
   D22        0.77732  -0.00001   0.00000   0.01152   0.01139   0.78872
   D23       -1.48917   0.00038   0.00000   0.00968   0.00998  -1.47919
   D24        2.94461  -0.00043   0.00000  -0.01018  -0.00978   2.93483
   D25        2.69985   0.00095   0.00000   0.01574   0.01532   2.71517
   D26        0.43337   0.00134   0.00000   0.01390   0.01391   0.44727
   D27       -1.41604   0.00053   0.00000  -0.00596  -0.00586  -1.42190
   D28        3.09700  -0.00225   0.00000  -0.01395  -0.01403   3.08296
   D29       -0.94134  -0.00243   0.00000  -0.00874  -0.00882  -0.95016
   D30        0.98282   0.00377   0.00000   0.02096   0.02112   1.00394
   D31       -1.08886  -0.00116   0.00000  -0.01309  -0.01317  -1.10203
   D32        1.15599  -0.00134   0.00000  -0.00788  -0.00796   1.14803
   D33        3.08016   0.00486   0.00000   0.02182   0.02198   3.10214
   D34        0.99802  -0.00275   0.00000  -0.01596  -0.01605   0.98198
   D35       -3.04031  -0.00293   0.00000  -0.01076  -0.01083  -3.05115
   D36       -1.11615   0.00328   0.00000   0.01895   0.01911  -1.09704
   D37       -3.12272  -0.00045   0.00000  -0.00055  -0.00055  -3.12328
   D38        0.03061  -0.00077   0.00000  -0.00075  -0.00075   0.02986
   D39       -0.00740   0.00024   0.00000  -0.00014  -0.00014  -0.00753
   D40       -3.13725  -0.00008   0.00000  -0.00034  -0.00034  -3.13758
   D41        3.12354   0.00092   0.00000   0.00215   0.00215   3.12569
   D42       -0.00977   0.00088   0.00000   0.00426   0.00426  -0.00551
   D43        0.00852   0.00025   0.00000   0.00172   0.00172   0.01024
   D44       -3.12480   0.00021   0.00000   0.00384   0.00384  -3.12096
   D45        0.00258  -0.00048   0.00000  -0.00123  -0.00123   0.00135
   D46       -3.13475  -0.00026   0.00000   0.00019   0.00019  -3.13455
   D47        3.13254  -0.00019   0.00000  -0.00107  -0.00107   3.13148
   D48       -0.00478   0.00003   0.00000   0.00035   0.00035  -0.00443
   D49        0.00128   0.00025   0.00000   0.00104   0.00104   0.00232
   D50       -3.13972   0.00007   0.00000   0.00019   0.00018  -3.13953
   D51        3.13860   0.00003   0.00000  -0.00039  -0.00039   3.13821
   D52       -0.00240  -0.00015   0.00000  -0.00124  -0.00124  -0.00364
   D53       -0.00016   0.00024   0.00000   0.00054   0.00054   0.00038
   D54        3.13853  -0.00030   0.00000  -0.00239  -0.00239   3.13614
   D55        3.14084   0.00042   0.00000   0.00139   0.00139  -3.14096
   D56       -0.00366  -0.00012   0.00000  -0.00154  -0.00154  -0.00520
   D57       -0.00483  -0.00050   0.00000  -0.00195  -0.00196  -0.00679
   D58        3.12859  -0.00049   0.00000  -0.00408  -0.00409   3.12450
   D59        3.13966   0.00004   0.00000   0.00097   0.00097   3.14063
   D60       -0.01010   0.00005   0.00000  -0.00116  -0.00116  -0.01127
   D61       -0.67645  -0.00049   0.00000   0.00216   0.00217  -0.67428
   D62        1.41849  -0.00080   0.00000   0.00191   0.00190   1.42039
   D63       -2.77970   0.00154   0.00000   0.00551   0.00552  -2.77418
   D64        2.64370  -0.00039   0.00000  -0.00111  -0.00111   2.64259
   D65       -1.54455  -0.00070   0.00000  -0.00136  -0.00138  -1.54593
   D66        0.54045   0.00165   0.00000   0.00223   0.00224   0.54269
         Item               Value     Threshold  Converged?
 Maximum Force            0.035907     0.000450     NO 
 RMS     Force            0.005017     0.000300     NO 
[...]
    11   1    -0.00   0.00   0.00     0.00  -0.00  -0.00     0.00  -0.00  -0.00
    12   1    -0.02   0.05  -0.00     0.02  -0.07   0.00     0.03  -0.11   0.01
    13  35     0.00   0.00   0.00     0.00  -0.00  -0.00     0.00  -0.00  -0.00
    14   6     0.00  -0.00  -0.00     0.00   0.00   0.00    -0.00   0.00   0.00
    15   6     0.00  -0.02  -0.01     0.01  -0.04  -0.02    -0.01   0.04   0.03
    16   6     0.03   0.02   0.02     0.03   0.03   0.02     0.00  -0.00  -0.00
    17   6    -0.03   0.01   0.00    -0.01   0.00  -0.00    -0.05   0.01   0.00
    18   6     0.01  -0.04  -0.03    -0.00   0.02   0.01     0.01  -0.02  -0.02
    19   6     0.03   0.02   0.02    -0.03  -0.02  -0.02    -0.03  -0.02  -0.02
    20   1    -0.07   0.22   0.15    -0.13   0.42   0.29     0.13  -0.42  -0.28
    21   1    -0.30  -0.23  -0.22    -0.39  -0.30  -0.28    -0.01  -0.01  -0.01
    22   1     0.38  -0.11  -0.01     0.14  -0.04  -0.00     0.54  -0.16  -0.02
    23   1    -0.14   0.44   0.29     0.07  -0.24  -0.16    -0.09   0.28   0.19
    24   1    -0.35  -0.26  -0.28     0.36   0.27   0.28     0.36   0.26   0.28
    25   7     0.00  -0.00   0.00     0.00   0.00   0.00    -0.00   0.00  -0.00
    26   6     0.00   0.00   0.00     0.00   0.00  -0.00    -0.00  -0.00  -0.00
    27   1    -0.00   0.00   0.00    -0.00   0.00  -0.00     0.00  -0.00  -0.00
    28   1    -0.00   0.00   0.00    -0.00  -0.00   0.00    -0.00   0.00   0.00
    29   1    -0.00  -0.00  -0.00    -0.00  -0.00  -0.00     0.00   0.00   0.00
    30   1     0.00  -0.00   0.00     0.00  -0.00   0.00    -0.00   0.00  -0.00
                     79                     80                     81
                      A                      A                      A
 Frequencies --   3216.4305              3226.5977              3230.0934
 Red. masses --      1.0961                 1.0934                 1.0992
 Frc consts  --      6.6810                 6.7069                 6.7572
 IR Inten    --      0.0000                 0.0000                 0.0000
  Atom  AN      X      Y      Z        X      Y      Z        X      Y      Z
     1   6    -0.00  -0.00   0.00     0.00   0.00  -0.00    -0.00  -0.00   0.00
     2   6    -0.00  -0.00   0.00    -0.00   0.00   0.00    -0.00  -0.00   0.00
     3   8     0.00   0.00  -0.00     0.00  -0.00  -0.00    -0.00   0.00   0.00
     4   6    -0.00   0.01  -0.00     0.02  -0.08   0.01    -0.00   0.01  -0.00
     5   6    -0.00  -0.00   0.00     0.00  -0.00  -0.00    -0.00   0.00  -0.00
     6   1     0.00  -0.00  -0.00    -0.00   0.00   0.00     0.00   0.00   0.00
     7   1    -0.00   0.00  -0.00    -0.00   0.01  -0.00     0.00  -0.00   0.00
     8   1    -0.00  -0.00   0.00     0.00  -0.00  -0.00    -0.00  -0.00  -0.00
     9   7     0.00  -0.00  -0.00     0.00   0.00   0.00    -0.00  -0.00   0.00
    10   1     0.00   0.00   0.00    -0.00  -0.00  -0.00    -0.00   0.00   0.00
    11   1     0.00  -0.00  -0.00    -0.01   0.01   0.00     0.00  -0.00  -0.00
    12   1     0.03  -0.10   0.01    -0.28   0.92  -0.06     0.05  -0.17   0.01
    13  35    -0.00  -0.00  -0.00    -0.00   0.00   0.00    -0.00  -0.00  -0.00
    14   6     0.00   0.00   0.00     0.00   0.00   0.00     0.00  -0.00  -0.00
    15   6     0.01  -0.04  -0.03     0.00  -0.00  -0.00     0.01  -0.02  -0.01
    16   6    -0.03  -0.02  -0.02    -0.01  -0.01  -0.01    -0.03  -0.02  -0.02
    17   6     0.01   0.00   0.00    -0.01   0.00   0.00    -0.06   0.02   0.00
    18   6     0.01  -0.04  -0.03     0.00   0.00   0.00    -0.01   0.03   0.02
    19   6    -0.02  -0.01  -0.01    -0.01  -0.01  -0.01     0.02   0.01   0.01
    20   1    -0.15   0.45   0.31    -0.02   0.05   0.04    -0.06   0.18   0.13
    21   1     0.36   0.27   0.26     0.08   0.06   0.06     0.30   0.23   0.22
    22   1    -0.10   0.02  -0.00     0.16  -0.05  -0.01     0.65  -0.19  -0.03
    23   1    -0.14   0.42   0.28     0.01  -0.03  -0.02     0.11  -0.37  -0.25
    24   1     0.22   0.16   0.17     0.09   0.06   0.07    -0.15  -0.11  -0.12
    25   7     0.00   0.00   0.00     0.00  -0.00  -0.00     0.00   0.00  -0.00
    26   6    -0.00   0.00  -0.00    -0.00   0.00   0.00    -0.00  -0.00   0.00
    27   1    -0.00   0.00  -0.00    -0.00   0.00   0.00    -0.00  -0.00   0.00
    28   1     0.00  -0.00  -0.00     0.00  -0.00  -0.00    -0.00   0.00   0.00
    29   1    -0.00  -0.00  -0.00    -0.00  -0.00  -0.00     0.00   0.00   0.00
    30   1     0.00  -0.00   0.00     0.00  -0.00   0.00    -0.00   0.00  -0.00
                     82                     83                     84
                      A                      A                      A
 Frequencies --   3360.5371              3608.7785              3682.7517
 Red. masses --      1.0695                 1.0844                 1.0787
 Frc consts  --      7.1160                 8.3208                 8.6201
 IR Inten    --      0.0000                 0.0000                 0.0000
  Atom  AN      X      Y      Z        X      Y      Z        X      Y      Z
     1   6    -0.00  -0.00   0.00     0.00   0.00  -0.00    -0.00   0.00   0.00
     2   6    -0.00   0.00   0.00    -0.00   0.00   0.00     0.00   0.00  -0.00
     3   8     0.00  -0.00  -0.00     0.00  -0.00  -0.00     0.00   0.00  -0.00
     4   6     0.00   0.00  -0.00    -0.00   0.00   0.00    -0.00  -0.00   0.00
     5   6     0.00  -0.00  -0.00     0.00  -0.00   0.00     0.00  -0.00   0.00
     6   1    -0.00   0.00   0.00     0.00  -0.00  -0.00    -0.00  -0.00  -0.00
     7   1    -0.01   0.03  -0.01    -0.00   0.01  -0.00    -0.00   0.00  -0.00
     8   1    -0.01  -0.01   0.00     0.01   0.01  -0.00    -0.00  -0.00   0.00
     9   7     0.03  -0.06   0.01    -0.05  -0.05   0.01     0.00   0.00  -0.00
    10   1    -0.18  -0.11   0.02     0.80   0.54  -0.15    -0.00  -0.00   0.00
    11   1    -0.23   0.93  -0.14    -0.06   0.18  -0.02     0.00  -0.00   0.00
    12   1     0.00  -0.01   0.01    -0.00   0.00   0.00     0.00   0.00  -0.00
    13  35     0.00   0.00   0.00     0.00   0.00  -0.00     0.00   0.00  -0.00
    14   6     0.00  -0.00   0.00    -0.00   0.00  -0.00     0.00   0.00  -0.00
    15   6    -0.00   0.00   0.00     0.00   0.00   0.00    -0.00  -0.00  -0.00
    16   6     0.00   0.00   0.00    -0.00  -0.00  -0.00     0.00   0.00  -0.00
    17   6    -0.00  -0.00   0.00     0.00   0.00   0.00    -0.00   0.00   0.00
    18   6     0.00  -0.00  -0.00    -0.00   0.00   0.00    -0.00   0.00   0.00
    19   6    -0.00   0.00   0.00     0.00  -0.00   0.00    -0.00   0.00   0.00
    20   1     0.00  -0.00  -0.00    -0.00  -0.00  -0.00    -0.00   0.00   0.00
    21   1    -0.00  -0.00  -0.00     0.00   0.00   0.00    -0.00  -0.00  -0.00
    22   1    -0.00   0.00  -0.00     0.00  -0.00  -0.00    -0.00   0.00   0.00
    23   1    -0.00   0.00   0.00     0.00  -0.00  -0.00    -0.00   0.00  -0.00
    24   1     0.00   0.00   0.00    -0.00  -0.00  -0.00    -0.00  -0.00  -0.00
    25   7     0.00   0.00  -0.00    -0.00   0.00   0.00    -0.06   0.02   0.04
    26   6    -0.00  -0.00   0.00    -0.00  -0.00   0.00     0.00  -0.00   0.00
    27   1     0.00   0.00  -0.00     0.00  -0.00  -0.00     0.76  -0.32  -0.56
    28   1     0.00  -0.00  -0.00     0.00  -0.00  -0.00     0.01  -0.01  -0.01
    29   1     0.00   0.00   0.00     0.00   0.00   0.00     0.00   0.00   0.00
    30   1    -0.00   0.00  -0.00    -0.00   0.00  -0.00    -0.00   0.00  -0.00

 -------------------
 - Thermochemistry -
 -------------------
 Temperature   298.150 Kelvin.  Pressure   1.00000 Atm.
 Atom     1 has atomic number  6 and mass  12.00000
 Atom     2 has atomic number  6 and mass  12.00000
 Atom     3 has atomic number  8 and mass  15.99491
 Atom     4 has atomic number  6 and mass  12.00000
 Atom     5 has atomic number  6 and mass  12.00000
 Atom     6 has atomic number  1 and mass   1.00783
 Atom     7 has atomic number  1 and mass   1.00783
 Atom     8 has atomic number  1 and mass   1.00783
 Atom     9 has atomic number  7 and mass  14.00307
 Atom    10 has atomic number  1 and mass   1.00783
 Atom    11 has atomic number  1 and mass   1.00783
 Atom    12 has atomic number  1 and mass   1.00783
 Atom    13 has atomic number 35 and mass  78.91834
 Atom    14 has atomic number  6 and mass  12.00000
 Atom    15 has atomic number  6 and mass  12.00000
 Atom    16 has atomic number  6 and mass  12.00000
 Atom    17 has atomic number  6 and mass  12.00000
 Atom    18 has atomic number  6 and mass  12.00000
 Atom    19 has atomic number  6 and mass  12.00000
 Atom    20 has atomic number  1 and mass   1.00783
 Atom    21 has atomic number  1 and mass   1.00783
 Atom    22 has atomic number  1 and mass   1.00783
 Atom    23 has atomic number  1 and mass   1.00783
 Atom    24 has atomic number  1 and mass   1.00783
 Atom    25 has atomic number  7 and mass  14.00307
 Atom    26 has atomic number  6 and mass  12.00000
 Atom    27 has atomic number  1 and mass   1.00783
 Atom    28 has atomic number  1 and mass   1.00783
 Atom    29 has atomic number  1 and mass   1.00783
 Atom    30 has atomic number  1 and mass   1.00783
 Molecular mass:   270.03677 amu.
 Principal axes and moments of inertia in atomic units:
                           1         2         3
     Eigenvalues --  3146.736685905.711756937.32650
           X            0.99908  -0.03140  -0.02915
           Y            0.02991   0.99828  -0.05035
           Z            0.03068   0.04943   0.99831
 This molecule is an asymmetric top.
 Rotational symmetry number  1.
 Warning -- assumption of classical behavior for rotation
           may cause significant error
 Rotational temperatures (Kelvin)      0.02752     0.01467     0.01249
 Rotational constants (GHZ):           0.57353     0.30559     0.26015
    1 imaginary frequencies ignored.
 Zero-point vibrational energy     692096.0 (Joules/Mol)
                                  165.41492 (Kcal/Mol)
 Warning -- explicit consideration of  21 degrees of freedom as
           vibrations may cause significant error
 Vibrational temperatures:    108.40   132.28   161.73   183.78   203.99
          (Kelvin)            226.89   260.86   276.46   356.30   376.35
                              410.16   441.44   529.42   539.96   561.41
                              617.55   661.02   698.86   758.70   821.51
                              891.91   977.96  1002.04  1053.53  1108.89
                             1175.93  1236.58  1284.71  1312.04  1328.03
                             1473.80  1511.39  1551.25  1561.77  1623.96
                             1625.71  1655.05  1661.87  1672.95  1684.90
                             1690.28  1713.04  1767.01  1818.82  1866.34
                             1887.04  1898.27  1921.77  1954.97  1984.58
                             1987.19  2067.06  2156.22  2172.71  2196.93
                             2315.71  2326.45  2346.71  2381.18  2390.97
                             2397.57  2399.92  2406.77  2489.47  2507.88
                             2557.72  2568.98  2676.58  4403.55  4415.39
                             4454.03  4489.66  4524.39  4572.33  4591.41
                             4598.90  4617.45  4627.73  4642.35  4647.38
                             4835.06  5192.23  5298.66
 
 Zero-point correction=                           0.263605 (Hartree/Particle)
 Thermal correction to Energy=                    0.277063
 Thermal correction to Enthalpy=                  0.278007
 Thermal correction to Gibbs Free Energy=         0.222977
 Sum of electronic and zero-point Energies=          -3185.898005
 Sum of electronic and thermal Energies=             -3185.884547
 Sum of electronic and thermal Enthalpies=           -3185.883603
 Sum of electronic and thermal Free Energies=        -3185.938633
 
                     E (Thermal)             CV                S
                      KCal/Mol        Cal/Mol-Kelvin    Cal/Mol-Kelvin
 Total                  173.860             51.023            115.821
 Electronic               0.000              0.000              0.000
 Translational            0.889              2.981             42.679
 Rotational               0.889              2.981             33.222
 Vibrational            172.082             45.061             39.920
 Vibration     1          0.599              1.965              4.009
 Vibration     2          0.602              1.955              3.618
 Vibration     3          0.607              1.939              3.227
 Vibration     4          0.611              1.925              2.980
 Vibration     5          0.615              1.911              2.780
 Vibration     6          0.621              1.894              2.577
 Vibration     7          0.630              1.865              2.315
 Vibration     8          0.634              1.851              2.207
 Vibration     9          0.661              1.767              1.747
 Vibration    10          0.669              1.743              1.651
 Vibration    11          0.683              1.701              1.503
 Vibration    12          0.697              1.661              1.379
 Vibration    13          0.741              1.538              1.088
 Vibration    14          0.746              1.523              1.058
 Vibration    15          0.758              1.491              0.999
 Vibration    16          0.791              1.407              0.861
 Vibration    17          0.817              1.340              0.768
 Vibration    18          0.842              1.282              0.695
 Vibration    19          0.882              1.190              0.593
 Vibration    20          0.927              1.094              0.502
 Vibration    21          0.980              0.990              0.417
                       Q            Log10(Q)             Ln(Q)
 Total Bot       0.274104-102       -102.562085       -236.157927
 Total V=0       0.487413D+19         18.687898         43.030474
 Vib (Bot)       0.386651-117       -117.412681       -270.352689
 Vib (Bot)    1  0.273547D+01          0.437032          1.006304
 Vib (Bot)    2  0.223553D+01          0.349381          0.804480
 Vib (Bot)    3  0.182106D+01          0.260325          0.599421
 Vib (Bot)    4  0.159688D+01          0.203272          0.468050
 Vib (Bot)    5  0.143344D+01          0.156379          0.360076
 Vib (Bot)    6  0.128288D+01          0.108185          0.249106
 Vib (Bot)    7  0.110730D+01          0.044264          0.101921
 Vib (Bot)    8  0.104077D+01          0.017354          0.039959
 Vib (Bot)    9  0.788993D+00         -0.102927         -0.236998
 Vib (Bot)   10  0.741958D+00         -0.129621         -0.298463
 Vib (Bot)   11  0.672600D+00         -0.172243         -0.396604
 Vib (Bot)   12  0.617437D+00         -0.209408         -0.482179
 Vib (Bot)   13  0.495452D+00         -0.304999         -0.702285
 Vib (Bot)   14  0.483359D+00         -0.315730         -0.726996
 Vib (Bot)   15  0.460040D+00         -0.337205         -0.776443
 Vib (Bot)   16  0.406194D+00         -0.391266         -0.900924
 Vib (Bot)   17  0.370385D+00         -0.431346         -0.993212
 Vib (Bot)   18  0.342623D+00         -0.465183         -1.071125
 Vib (Bot)   19  0.304041D+00         -0.517067         -1.190591
 Vib (Bot)   20  0.269288D+00         -0.569782         -1.311972
 Vib (Bot)   21  0.235927D+00         -0.627222         -1.444232
 Vib (V=0)       0.687545D+04          3.837301          8.835713
 Vib (V=0)    1  0.328079D+01          0.515979          1.188085
 Vib (V=0)    2  0.279077D+01          0.445723          1.026316
 Vib (V=0)    3  0.238846D+01          0.378118          0.870648
 Vib (V=0)    4  0.217333D+01          0.337125          0.776258
 Vib (V=0)    5  0.201814D+01          0.304951          0.702176
 Vib (V=0)    6  0.187687D+01          0.273434          0.629606
 Vib (V=0)    7  0.171495D+01          0.234251          0.539384
 Vib (V=0)    8  0.165464D+01          0.218704          0.503585
 Vib (V=0)    9  0.143408D+01          0.156574          0.360525
 Vib (V=0)   10  0.139471D+01          0.144483          0.332685
 Vib (V=0)   11  0.133809D+01          0.126485          0.291242
 Vib (V=0)   12  0.129450D+01          0.112102          0.258123
 Vib (V=0)   13  0.120390D+01          0.080590          0.185565
 Vib (V=0)   14  0.119544D+01          0.077527          0.178514
 Vib (V=0)   15  0.117944D+01          0.071675          0.165038
 Vib (V=0)   16  0.114420D+01          0.058502          0.134706
 Vib (V=0)   17  0.112224D+01          0.050087          0.115329
 Vib (V=0)   18  0.110613D+01          0.043805          0.100865
 Vib (V=0)   19  0.108518D+01          0.035504          0.081750
 Vib (V=0)   20  0.106791D+01          0.028533          0.065699
 Vib (V=0)   21  0.105287D+01          0.022373          0.051517
 Electronic      0.100000D+01          0.000000          0.000000
 Translational   0.174417D+09          8.241588         18.976958
 Rotational      0.406451D+07          6.609008         15.217803
 ***** Axes restored to original set *****
 -------------------------------------------------------------------
 Center     Atomic                   Forces (Hartrees/Bohr)
 Number     Number              X              Y              Z
 -------------------------------------------------------------------
      1        6           0.000000043    0.000000647    0.000000396
      2        6           0.000003761   -0.000000127   -0.000002092
      3        8           0.000000078   -0.000000692    0.000002665
      4        6          -0.000000165    0.000000766   -0.000000409
      5        6          -0.000001509    0.000002959   -0.000000131
      6        1          -0.000002282   -0.000000855   -0.000000789
      7        1          -0.000003053    0.000000508   -0.000002196
      8        1          -0.000000931   -0.000000780    0.000001168
      9        7          -0.000001802   -0.000001091   -0.000002952
     10        1          -0.000002554    0.000003168   -0.000002335
     11        1           0.000001430    0.000002537    0.000001833
     12        1          -0.000000982    0.000000470   -0.000001708
     13       35           0.000000520    0.000001908   -0.000001557
     14        6           0.000000474   -0.000000019   -0.000000345
     15        6           0.000000757   -0.000001998    0.000000581
     16        6           0.000000119   -0.000001639    0.000001529
     17        6           0.000000367   -0.000001458    0.000001686
     18        6           0.000000378   -0.000001140    0.000000963
     19        6           0.000000353   -0.000000727    0.000000800
     20        1          -0.000000922    0.000000828    0.000000153
     21        1          -0.000000374   -0.000002025    0.000002019
     22        1           0.000000091   -0.000003118    0.000002847
     23        1           0.000000742   -0.000001867    0.000001764
     24        1           0.000000951    0.000000148   -0.000000008
     25        7           0.000001990   -0.000001521    0.000000823
     26        6           0.000002684   -0.000000126    0.000000436
     27        1          -0.000002758    0.000003440   -0.000003823
     28        1           0.000019643   -0.000005016    0.000022682
     29        1           0.000010946    0.000017917   -0.000023894
     30        1          -0.000027994   -0.000011101   -0.000000107
 -------------------------------------------------------------------
 Cartesian Forces:  Max     0.000027994 RMS     0.000005838


 LIFE CAN ONLY BE UNDERSTOOD BACKWARD, BUT MUST
 BE LIVED FORWARD. -- KIRKEGAARD
 Error termination request processed by link 9999.
 Error termination via Lnk1e in /apps/gaussian/g16/C.01/g16/l9999.exe at Wed Jan 17 01:16:18 2024.
 Job cpu time:       0 days 17 hours  2 minutes 28.1 seconds.
 Elapsed time:       0 days  2 hours 42 minutes 45.1 seconds.
 File lengths (MBytes):  RWF=      6 Int=      0 D2E=      0 Chk=      2 Scr=      1
