Unloading slurm/anatra/current
  ERROR: No such file or directory on
    '/cm/local/modulefiles/slurm/anatra/current'
environment: line 0: unalias: gv: not found
environment: line 0: unalias: sl: not found
 Entering Gaussian System, Link 0=g16
 Initial command:
 /apps/gaussian/g16/C.01/g16/l1.exe "/local/jobs/1157671/Gau-2068318.inp" -scrdir="/local/jobs/1157671/"
 Entering Link 1 = /apps/gaussian/g16/C.01/g16/l1.exe PID=   2068320.
  
 Copyright (c) 1988-2019, Gaussian, Inc.  All Rights Reserved.
  
 This is part of the Gaussian(R) 16 program.  It is based on
 the Gaussian(R) 09 system (copyright 2009, Gaussian, Inc.),
 the Gaussian(R) 03 system (copyright 2003, Gaussian, Inc.),
 the Gaussian(R) 98 system (copyright 1998, Gaussian, Inc.),
 the Gaussian(R) 94 system (copyright 1995, Gaussian, Inc.),
 the Gaussian 92(TM) system (copyright 1992, Gaussian, Inc.),
 the Gaussian 90(TM) system (copyright 1990, Gaussian, Inc.),
 the Gaussian 88(TM) system (copyright 1988, Gaussian, Inc.),
 the Gaussian 86(TM) system (copyright 1986, Carnegie Mellon
 University), and the Gaussian 82(TM) system (copyright 1983,
 Carnegie Mellon University). Gaussian is a federally registered
 trademark of Gaussian, Inc.
  
 This software contains proprietary and confidential information,
 including trade secrets, belonging to Gaussian, Inc.
  
 This software is provided under written license and may be
 used, copied, transmitted, or stored only in accord with that
 written license.
  
 The following legend is applicable only to US Government
 contracts under FAR:
  
                    RESTRICTED RIGHTS LEGEND
  
 Use, reproduction and disclosure by the US Government is
 subject to restrictions as set forth in subparagraphs (a)
 and (c) of the Commercial Computer Software - Restricted
 Rights clause in FAR 52.227-19.
  
 Gaussian, Inc.
 340 Quinnipiac St., Bldg. 40, Wallingford CT 06492
  
  
 ---------------------------------------------------------------
 Warning -- This program may not be used in any manner that
 competes with the business of Gaussian, Inc. or will provide
 assistance to any competitor of Gaussian, Inc.  The licensee
 of this program is prohibited from giving any competitor of
 Gaussian, Inc. access to this program.  By using this program,
 the user acknowledges that Gaussian, Inc. is engaged in the
 business of creating and licensing software in the field of
 computational chemistry and represents and warrants to the
 licensee that it is not a competitor of Gaussian, Inc. and that
 it will not use this program in any manner prohibited above.
 ---------------------------------------------------------------
  

 Cite this work as:
 Gaussian 16, Revision C.01,
 M. J. Frisch, G. W. Trucks, H. B. Schlegel, G. E. Scuseria, 
 M. A. Robb, J. R. Cheeseman, G. Scalmani, V. Barone, 
 G. A. Petersson, H. Nakatsuji, X. Li, M. Caricato, A. V. Marenich, 
 J. Bloino, B. G. Janesko, R. Gomperts, B. Mennucci, H. P. Hratchian, 
 J. V. Ortiz, A. F. Izmaylov, J. L. Sonnenberg, D. Williams-Young, 
 F. Ding, F. Lipparini, F. Egidi, J. Goings, B. Peng, A. Petrone, 
 T. Henderson, D. Ranasinghe, V. G. Zakrzewski, J. Gao, N. Rega, 
 G. Zheng, W. Liang, M. Hada, M. Ehara, K. Toyota, R. Fukuda, 
 J. Hasegawa, M. Ishida, T. Nakajima, Y. Honda, O. Kitao, H. Nakai, 
 T. Vreven, K. Throssell, J. A. Montgomery, Jr., J. E. Peralta, 
 F. Ogliaro, M. J. Bearpark, J. J. Heyd, E. N. Brothers, K. N. Kudin, 
 V. N. Staroverov, T. A. Keith, R. Kobayashi, J. Normand, 
 K. Raghavachari, A. P. Rendell, J. C. Burant, S. S. Iyengar, 
 J. Tomasi, M. Cossi, J. M. Millam, M. Klene, C. Adamo, R. Cammi, 
 J. W. Ochterski, R. L. Martin, K. Morokuma, O. Farkas, 
 J. B. Foresman, and D. J. Fox, Gaussian, Inc., Wallingford CT, 2019.
 
 ******************************************
 Gaussian 16:  ES64L-G16RevC.01  3-Jul-2019
                16-Jan-2024 
 ******************************************
 %nprocshared=12
 Will use up to   12 processors via shared memory.
 %mem=48GB
 ----------------------------------------------------------------------
 # external="~/scripts/MiMe -H 'hf 6-31g(d)' -EF 'wb97xd def2svp' -c 12
  -m 48GB" opt=(calcall,ts,noeigen,maxcycles=50,maxstep=10,nomicro)
 ----------------------------------------------------------------------
 1/5=1,6=50,8=10,10=4,11=1,18=20,26=1,38=1/1,3;
 2/9=110,12=2,17=6,18=5,40=1/2;
 3/11=9,25=1,30=1,41=9900000,43=2,71=2,140=1/1;
 4/20=17,22=2,24=3,113=1,114=1/2;
 6/7=2,8=2,9=2,10=2,18=1/1;
 7/25=1,44=-1/16;
 1/5=1,6=50,8=10,10=4,11=1,18=20,26=1/3(3);
 2/9=110/2;
 7/8=1,9=1,25=1,44=-1/16;
 99//99;
 2/9=110/2;
 3/11=9,25=1,30=1,41=9900000,43=2,71=2,140=1/1;
 4/16=2,20=17,22=2,24=3,113=1,114=1/2;
 7/25=1,44=-1/16;
 1/5=1,6=50,8=10,10=4,11=1,18=20,26=1/3(-4);
 2/9=110/2;
 6/7=2,8=2,9=2,10=2,18=1/1;
 7/8=1,9=1,25=1,44=-1/16;
 99//99;
 ---------
 TS-68.out
 ---------
 Symbolic Z-matrix:
 Charge =  0 Multiplicity = 1
 C                    -0.74249  -0.12132   0.22248 
 C                    -2.09729   0.30804   0.69467 
 O                    -2.30169   1.18952   1.52012 
 C                     0.23569   0.82708   0.28242 
 C                    -1.12249   3.02777  -1.33601 
 H                    -0.92798   3.59591  -2.25016 
 H                    -2.10314   2.55168  -1.41988 
 H                    -1.13854   3.71741  -0.4876 
 N                    -0.08065   2.0099   -1.1377 
 H                    -0.07122   1.43807  -1.98871 
 H                     0.8163    2.51011  -1.18421 
 C                     1.69287   0.45967   0.25094 
 C                     2.32299  -0.06152  -0.88807 
 C                     3.68719  -0.36217  -0.87152 
 C                     4.43783  -0.13667   0.28037 
 C                     3.82677   0.39194   1.41535 
 C                     2.46265   0.69229   1.39956 
 H                     1.75802  -0.23854  -1.79909 
 H                     4.16255  -0.77282  -1.75836 
 H                     5.49878  -0.37232   0.29348 
 H                     4.41054   0.57044   2.31459 
 H                     2.00288   1.1043    2.29536 
 H                     0.02255   1.70746   0.91213 
 Br                   -0.52741  -1.88792  -0.36586 
 O                    -3.07299  -0.40619   0.06938 
 C                    -4.39791  -0.05049   0.46209 
 H                    -5.09696  -0.68232  -0.09281 
 H                    -4.5431   -0.23106   1.53182 
 H                    -4.60411   0.99512   0.21281 
 
 Add virtual bond connecting atoms N9         and C4         Dist= 3.54D+00.

 GradGradGradGradGradGradGradGradGradGradGradGradGradGradGradGradGradGrad
 Berny optimization.
 Initialization pass.
                           ----------------------------
                           !    Initial Parameters    !
                           ! (Angstroms and Degrees)  !
 --------------------------                            --------------------------
 ! Name  Definition              Value          Derivative Info.                !
 --------------------------------------------------------------------------------
 ! R1    R(1,2)                  1.4976         calculate D2E/DX2 analytically  !
 ! R2    R(1,4)                  1.3638         calculate D2E/DX2 analytically  !
 ! R3    R(1,24)                 1.8744         calculate D2E/DX2 analytically  !
 ! R4    R(2,3)                  1.2248         calculate D2E/DX2 analytically  !
 ! R5    R(2,25)                 1.3613         calculate D2E/DX2 analytically  !
 ! R6    R(4,9)                  1.8751         calculate D2E/DX2 analytically  !
 ! R7    R(4,12)                 1.5031         calculate D2E/DX2 analytically  !
 ! R8    R(4,23)                 1.1032         calculate D2E/DX2 analytically  !
 ! R9    R(5,6)                  1.0937         calculate D2E/DX2 analytically  !
 ! R10   R(5,7)                  1.0933         calculate D2E/DX2 analytically  !
 ! R11   R(5,8)                  1.0935         calculate D2E/DX2 analytically  !
 ! R12   R(5,9)                  1.47           calculate D2E/DX2 analytically  !
 ! R13   R(9,10)                 1.0253         calculate D2E/DX2 analytically  !
 ! R14   R(9,11)                 1.0281         calculate D2E/DX2 analytically  !
 ! R15   R(12,13)                1.4022         calculate D2E/DX2 analytically  !
 ! R16   R(12,17)                1.4021         calculate D2E/DX2 analytically  !
 ! R17   R(13,14)                1.397          calculate D2E/DX2 analytically  !
 ! R18   R(13,18)                1.0865         calculate D2E/DX2 analytically  !
 ! R19   R(14,15)                1.3933         calculate D2E/DX2 analytically  !
 ! R20   R(14,19)                1.0868         calculate D2E/DX2 analytically  !
 ! R21   R(15,16)                1.3932         calculate D2E/DX2 analytically  !
 ! R22   R(15,20)                1.0869         calculate D2E/DX2 analytically  !
 ! R23   R(16,17)                1.3969         calculate D2E/DX2 analytically  !
 ! R24   R(16,21)                1.0869         calculate D2E/DX2 analytically  !
 ! R25   R(17,22)                1.0879         calculate D2E/DX2 analytically  !
 ! R26   R(25,26)                1.4269         calculate D2E/DX2 analytically  !
 ! R27   R(26,27)                1.0935         calculate D2E/DX2 analytically  !
 ! R28   R(26,28)                1.0945         calculate D2E/DX2 analytically  !
 ! R29   R(26,29)                1.0945         calculate D2E/DX2 analytically  !
 ! A1    A(2,1,4)              115.8255         calculate D2E/DX2 analytically  !
 ! A2    A(2,1,24)             118.2285         calculate D2E/DX2 analytically  !
 ! A3    A(4,1,24)             125.9393         calculate D2E/DX2 analytically  !
 ! A4    A(1,2,3)              124.7361         calculate D2E/DX2 analytically  !
 ! A5    A(1,2,25)             110.6804         calculate D2E/DX2 analytically  !
 ! A6    A(3,2,25)             124.5799         calculate D2E/DX2 analytically  !
 ! A7    A(1,4,9)              106.5222         calculate D2E/DX2 analytically  !
 ! A8    A(1,4,12)             121.6302         calculate D2E/DX2 analytically  !
 ! A9    A(1,4,23)             116.1982         calculate D2E/DX2 analytically  !
 ! A10   A(9,4,12)             107.5707         calculate D2E/DX2 analytically  !
 ! A11   A(9,4,23)              84.0482         calculate D2E/DX2 analytically  !
 ! A12   A(12,4,23)            113.2234         calculate D2E/DX2 analytically  !
 ! A13   A(6,5,7)              108.7589         calculate D2E/DX2 analytically  !
 ! A14   A(6,5,8)              108.874          calculate D2E/DX2 analytically  !
 ! A15   A(6,5,9)              110.2671         calculate D2E/DX2 analytically  !
 ! A16   A(7,5,8)              108.7228         calculate D2E/DX2 analytically  !
 ! A17   A(7,5,9)              110.1531         calculate D2E/DX2 analytically  !
 ! A18   A(8,5,9)              110.0261         calculate D2E/DX2 analytically  !
 ! A19   A(4,9,5)              131.1893         calculate D2E/DX2 analytically  !
 ! A20   A(4,9,10)             105.9768         calculate D2E/DX2 analytically  !
 ! A21   A(4,9,11)             101.1863         calculate D2E/DX2 analytically  !
 ! A22   A(5,9,10)             106.3035         calculate D2E/DX2 analytically  !
 ! A23   A(5,9,11)             105.9827         calculate D2E/DX2 analytically  !
 ! A24   A(10,9,11)            103.049          calculate D2E/DX2 analytically  !
 ! A25   A(4,12,13)            122.9243         calculate D2E/DX2 analytically  !
 ! A26   A(4,12,17)            118.3279         calculate D2E/DX2 analytically  !
 ! A27   A(13,12,17)           118.7115         calculate D2E/DX2 analytically  !
 ! A28   A(12,13,14)           120.6107         calculate D2E/DX2 analytically  !
 ! A29   A(12,13,18)           120.5314         calculate D2E/DX2 analytically  !
 ! A30   A(14,13,18)           118.8579         calculate D2E/DX2 analytically  !
 ! A31   A(13,14,15)           120.0706         calculate D2E/DX2 analytically  !
 ! A32   A(13,14,19)           119.9189         calculate D2E/DX2 analytically  !
 ! A33   A(15,14,19)           120.0105         calculate D2E/DX2 analytically  !
 ! A34   A(14,15,16)           119.9096         calculate D2E/DX2 analytically  !
 ! A35   A(14,15,20)           120.0524         calculate D2E/DX2 analytically  !
 ! A36   A(16,15,20)           120.038          calculate D2E/DX2 analytically  !
 ! A37   A(15,16,17)           120.0455         calculate D2E/DX2 analytically  !
 ! A38   A(15,16,21)           120.0501         calculate D2E/DX2 analytically  !
 ! A39   A(17,16,21)           119.9044         calculate D2E/DX2 analytically  !
 ! A40   A(12,17,16)           120.6448         calculate D2E/DX2 analytically  !
 ! A41   A(12,17,22)           120.3535         calculate D2E/DX2 analytically  !
 ! A42   A(16,17,22)           119.0005         calculate D2E/DX2 analytically  !
 ! A43   A(2,25,26)            114.0982         calculate D2E/DX2 analytically  !
 ! A44   A(25,26,27)           108.0518         calculate D2E/DX2 analytically  !
 ! A45   A(25,26,28)           110.5495         calculate D2E/DX2 analytically  !
 ! A46   A(25,26,29)           110.5106         calculate D2E/DX2 analytically  !
 ! A47   A(27,26,28)           108.4105         calculate D2E/DX2 analytically  !
 ! A48   A(27,26,29)           108.4194         calculate D2E/DX2 analytically  !
 ! A49   A(28,26,29)           110.806          calculate D2E/DX2 analytically  !
 ! D1    D(4,1,2,3)            -27.0774         calculate D2E/DX2 analytically  !
 ! D2    D(4,1,2,25)           152.2549         calculate D2E/DX2 analytically  !
 ! D3    D(24,1,2,3)           152.0325         calculate D2E/DX2 analytically  !
 ! D4    D(24,1,2,25)          -28.6351         calculate D2E/DX2 analytically  !
 ! D5    D(2,1,4,9)            -75.3285         calculate D2E/DX2 analytically  !
 ! D6    D(2,1,4,12)           161.1309         calculate D2E/DX2 analytically  !
 ! D7    D(2,1,4,23)            16.1275         calculate D2E/DX2 analytically  !
 ! D8    D(24,1,4,9)           105.64           calculate D2E/DX2 analytically  !
 ! D9    D(24,1,4,12)          -17.9006         calculate D2E/DX2 analytically  !
 ! D10   D(24,1,4,23)         -162.9039         calculate D2E/DX2 analytically  !
 ! D11   D(1,2,25,26)         -179.7276         calculate D2E/DX2 analytically  !
 ! D12   D(3,2,25,26)           -0.394          calculate D2E/DX2 analytically  !
 ! D13   D(1,4,9,5)             72.2434         calculate D2E/DX2 analytically  !
 ! D14   D(1,4,9,10)           -57.4423         calculate D2E/DX2 analytically  !
 ! D15   D(1,4,9,11)          -164.6612         calculate D2E/DX2 analytically  !
 ! D16   D(12,4,9,5)          -155.8651         calculate D2E/DX2 analytically  !
 ! D17   D(12,4,9,10)           74.4492         calculate D2E/DX2 analytically  !
 ! D18   D(12,4,9,11)          -32.7697         calculate D2E/DX2 analytically  !
 ! D19   D(23,4,9,5)           -43.3552         calculate D2E/DX2 analytically  !
 ! D20   D(23,4,9,10)         -173.0409         calculate D2E/DX2 analytically  !
 ! D21   D(23,4,9,11)           79.7403         calculate D2E/DX2 analytically  !
 ! D22   D(1,4,12,13)           68.9325         calculate D2E/DX2 analytically  !
 ! D23   D(1,4,12,17)         -113.2871         calculate D2E/DX2 analytically  !
 ! D24   D(9,4,12,13)          -54.1185         calculate D2E/DX2 analytically  !
 ! D25   D(9,4,12,17)          123.6619         calculate D2E/DX2 analytically  !
 ! D26   D(23,4,12,13)        -145.1222         calculate D2E/DX2 analytically  !
 ! D27   D(23,4,12,17)          32.6582         calculate D2E/DX2 analytically  !
 ! D28   D(6,5,9,4)            174.3827         calculate D2E/DX2 analytically  !
 ! D29   D(6,5,9,10)           -56.0457         calculate D2E/DX2 analytically  !
 ! D30   D(6,5,9,11)            53.1305         calculate D2E/DX2 analytically  !
 ! D31   D(7,5,9,4)            -65.572          calculate D2E/DX2 analytically  !
 ! D32   D(7,5,9,10)            63.9996         calculate D2E/DX2 analytically  !
 ! D33   D(7,5,9,11)           173.1758         calculate D2E/DX2 analytically  !
 ! D34   D(8,5,9,4)             54.2755         calculate D2E/DX2 analytically  !
 ! D35   D(8,5,9,10)          -176.1529         calculate D2E/DX2 analytically  !
 ! D36   D(8,5,9,11)           -66.9767         calculate D2E/DX2 analytically  !
 ! D37   D(4,12,13,14)         178.741          calculate D2E/DX2 analytically  !
 ! D38   D(4,12,13,18)          -1.2625         calculate D2E/DX2 analytically  !
 ! D39   D(17,12,13,14)          0.9687         calculate D2E/DX2 analytically  !
 ! D40   D(17,12,13,18)       -179.0348         calculate D2E/DX2 analytically  !
 ! D41   D(4,12,17,16)        -178.8208         calculate D2E/DX2 analytically  !
 ! D42   D(4,12,17,22)           1.582          calculate D2E/DX2 analytically  !
 ! D43   D(13,12,17,16)         -0.9451         calculate D2E/DX2 analytically  !
 ! D44   D(13,12,17,22)        179.4577         calculate D2E/DX2 analytically  !
 ! D45   D(12,13,14,15)         -0.4365         calculate D2E/DX2 analytically  !
 ! D46   D(12,13,14,19)        179.5331         calculate D2E/DX2 analytically  !
 ! D47   D(18,13,14,15)        179.5669         calculate D2E/DX2 analytically  !
 ! D48   D(18,13,14,19)         -0.4634         calculate D2E/DX2 analytically  !
 ! D49   D(13,14,15,16)         -0.1381         calculate D2E/DX2 analytically  !
 ! D50   D(13,14,15,20)        179.8921         calculate D2E/DX2 analytically  !
 ! D51   D(19,14,15,16)        179.8923         calculate D2E/DX2 analytically  !
 ! D52   D(19,14,15,20)         -0.0775         calculate D2E/DX2 analytically  !
 ! D53   D(14,15,16,17)          0.1618         calculate D2E/DX2 analytically  !
 ! D54   D(14,15,16,21)       -179.8899         calculate D2E/DX2 analytically  !
 ! D55   D(20,15,16,17)       -179.8684         calculate D2E/DX2 analytically  !
 ! D56   D(20,15,16,21)          0.0799         calculate D2E/DX2 analytically  !
 ! D57   D(15,16,17,12)          0.3887         calculate D2E/DX2 analytically  !
 ! D58   D(15,16,17,22)        179.9913         calculate D2E/DX2 analytically  !
 ! D59   D(21,16,17,12)       -179.5596         calculate D2E/DX2 analytically  !
 ! D60   D(21,16,17,22)          0.043          calculate D2E/DX2 analytically  !
 ! D61   D(2,25,26,27)        -179.7742         calculate D2E/DX2 analytically  !
 ! D62   D(2,25,26,28)         -61.2895         calculate D2E/DX2 analytically  !
 ! D63   D(2,25,26,29)          61.7526         calculate D2E/DX2 analytically  !
 --------------------------------------------------------------------------------
 Trust Radius=1.00D-01 FncErr=1.00D-07 GrdErr=1.00D-07 EigMax=2.50D+02 EigMin=1.00D-04
 Number of steps in this run=     50 maximum allowed number of steps=    174.
 Search for a saddle point of order  1.
 GradGradGradGradGradGradGradGradGradGradGradGradGradGradGradGradGradGrad

                          Input orientation:                          
 ---------------------------------------------------------------------
 Center     Atomic      Atomic             Coordinates (Angstroms)
 Number     Number       Type             X           Y           Z
 ---------------------------------------------------------------------
      1          6           0       -0.742490   -0.121320    0.222480
      2          6           0       -2.097290    0.308040    0.694670
      3          8           0       -2.301690    1.189520    1.520120
      4          6           0        0.235690    0.827080    0.282420
      5          6           0       -1.122490    3.027770   -1.336010
      6          1           0       -0.927980    3.595910   -2.250160
      7          1           0       -2.103140    2.551680   -1.419880
      8          1           0       -1.138540    3.717410   -0.487600
      9          7           0       -0.080650    2.009900   -1.137700
     10          1           0       -0.071220    1.438070   -1.988710
     11          1           0        0.816300    2.510110   -1.184210
     12          6           0        1.692870    0.459670    0.250940
     13          6           0        2.322990   -0.061520   -0.888070
     14          6           0        3.687190   -0.362170   -0.871520
     15          6           0        4.437830   -0.136670    0.280370
     16          6           0        3.826770    0.391940    1.415350
     17          6           0        2.462650    0.692290    1.399560
     18          1           0        1.758020   -0.238540   -1.799090
     19          1           0        4.162550   -0.772820   -1.758360
     20          1           0        5.498780   -0.372320    0.293480
     21          1           0        4.410540    0.570440    2.314590
     22          1           0        2.002880    1.104300    2.295360
     23          1           0        0.022550    1.707460    0.912130
     24         35           0       -0.527410   -1.887920   -0.365860
     25          8           0       -3.072990   -0.406190    0.069380
     26          6           0       -4.397910   -0.050490    0.462090
     27          1           0       -5.096960   -0.682320   -0.092810
     28          1           0       -4.543100   -0.231060    1.531820
     29          1           0       -4.604110    0.995120    0.212810
 ---------------------------------------------------------------------
                    Distance matrix (angstroms):
                    1          2          3          4          5
     1  C    0.000000
     2  C    1.497597   0.000000
     3  O    2.415218   1.224808   0.000000
     4  C    1.363778   2.425314   2.846324   0.000000
     5  C    3.534128   3.531406   3.595435   3.050738   0.000000
     6  H    4.468350   4.566114   4.678975   3.928678   1.093749
     7  H    3.419597   3.083063   3.246306   3.367818   1.093330
     8  H    3.923891   3.733734   3.431339   3.291724   1.093463
     9  N    2.613469   3.212592   3.559501   1.875067   1.469972
    10  H    2.787770   3.547176   4.165172   2.371821   2.014530
    11  H    3.366456   4.107105   4.333500   2.306665   2.012442
    12  C    2.503865   3.819058   4.254410   1.503115   4.127929
    13  C    3.260991   4.709619   5.362103   2.552739   4.649268
    14  C    4.569126   6.030120   6.632825   3.828674   5.902581
    15  C    5.180666   6.563323   6.979749   4.311241   6.598752
    16  C    4.750212   5.968325   6.181030   3.790611   6.246019
    17  C    3.510043   4.630072   4.791733   2.495099   5.078488
    18  H    3.217613   4.623960   5.434865   2.790290   4.379562
    19  H    5.329878   6.809641   7.509035   4.705815   6.523382
    20  H    6.246719   7.637023   8.049306   5.398037   7.619519
    21  H    5.604389   6.711546   6.787376   4.650264   7.069637
    22  H    3.651853   4.472989   4.374652   2.692905   5.162802
    23  H    2.098890   2.549389   2.457642   1.103192   2.847537
    24  Br   1.874374   2.900256   4.021893   2.893754   5.045723
    25  O    2.352833   1.361287   2.290380   3.537471   4.191856
    26  C    3.663949   2.339976   2.655408   4.719392   4.841201
    27  H    4.401765   3.255604   3.730799   5.554840   5.577340
    28  H    4.021324   2.640726   2.653696   5.051484   5.526753
    29  H    4.019781   2.643561   2.654805   4.843217   4.318818
                    6          7          8          9         10
     6  H    0.000000
     7  H    1.777859   0.000000
     8  H    1.779246   1.777224   0.000000
     9  N    2.114465   2.112727   2.111244   0.000000
    10  H    2.336379   2.385874   2.930511   1.025328   0.000000
    11  H    2.314676   2.929232   2.400883   1.028053   1.607539
    12  C    4.791697   4.645195   4.378949   2.734393   3.014185
    13  C    5.079458   5.167423   5.140319   3.182857   3.031900
    14  C    6.234328   6.505316   6.330722   4.460290   4.314467
    15  C    7.009112   7.273401   6.821995   5.199553   5.287727
    16  C    6.805074   6.918586   6.271704   4.940019   5.279805
    17  C    5.766094   5.679173   5.067671   3.826507   4.296168
    18  H    4.703304   4.778879   5.075392   2.978863   2.488593
    19  H    6.726155   7.101108   7.062475   5.112093   4.781831
    20  H    7.969956   8.323134   7.835177   6.233241   6.285762
    21  H    7.647889   7.765282   6.967638   5.844753   6.273543
    22  H    5.954814   5.723401   4.943858   4.116687   4.771430
    23  H    3.803923   3.266426   2.710585   2.074590   2.914830
    24  Br   5.812352   4.827415   5.639860   3.998541   3.728802
    25  O    5.098837   3.450724   4.588725   4.030959   4.080153
    26  C    5.717775   3.947033   5.071733   5.044132   5.190614
    27  H    6.351205   4.602481   5.931490   5.788196   5.774821
    28  H    6.482142   4.733876   5.591020   5.662305   5.931091
    29  H    5.132666   3.367997   4.462243   4.828597   5.058655
                   11         12         13         14         15
    11  H    0.000000
    12  C    2.651855   0.000000
    13  C    2.995179   1.402153   0.000000
    14  C    4.073055   2.431594   1.397035   0.000000
    15  C    4.718678   2.809145   2.417322   1.393256   0.000000
    16  C    4.506361   2.431865   2.787961   2.412040   1.393199
    17  C    3.562416   1.402142   2.412672   2.787326   2.416836
    18  H    2.969847   2.166648   1.086501   2.144147   3.393510
    19  H    4.722782   3.414035   2.155767   1.086778   2.153343
    20  H    5.693645   3.896019   3.402690   2.153877   1.086884
    21  H    5.377963   3.414184   3.874825   3.397689   2.153787
    22  H    3.935947   2.165943   3.405266   3.875121   3.395464
    23  H    2.380951   2.187263   3.414972   4.571035   4.826451
    24  Br   4.670966   3.289569   3.425379   4.510705   5.304536
    25  O    5.020246   4.847277   5.491094   6.825486   7.518615
    26  C    6.037794   6.115754   6.855184   8.200275   8.838029
    27  H    6.808040   6.893772   7.488223   8.824408   9.557678
    28  H    6.604090   6.403521   7.282019   8.575016   9.068194
    29  H    5.798940   6.319819   7.093176   8.471344   9.112749
                   16         17         18         19         20
    16  C    0.000000
    17  C    1.396883   0.000000
    18  H    3.874256   3.405042   0.000000
    19  H    3.397330   3.874102   2.463509   0.000000
    20  H    2.153672   3.402189   4.288360   2.481120   0.000000
    21  H    1.086868   2.155552   4.961116   4.295901   2.481521
    22  H    2.146730   1.087933   4.315982   4.961895   4.290600
    23  H    4.056589   2.687424   3.761580   5.515696   5.890442
    24  Br   5.227748   4.326043   3.161929   5.017791   6.248739
    25  O    7.074979   5.798219   5.182465   7.471820   8.574766
    26  C    8.291551   6.964040   6.560775   8.873198   9.903357
    27  H    9.113810   7.827159   7.078071   9.408548  10.607310
    28  H    8.393832   7.067574   7.127351   9.322399  10.118932
    29  H    8.537545   7.172111   6.785747   9.157808  10.195332
                   21         22         23         24         25
    21  H    0.000000
    22  H    2.466212   0.000000
    23  H    4.744909   2.489746   0.000000
    24  Br   6.132838   4.736860   3.855188   0.000000
    25  O    7.873881   5.744652   3.841889   2.977404   0.000000
    26  C    9.022533   6.757554   4.778430   4.363762   1.426940
    27  H    9.887241   7.700850   5.738496   4.733795   2.049148
    28  H    9.023458   6.724287   4.998703   4.740479   2.081015
    29  H    9.266161   6.928294   4.733124   5.026556   2.080522
                   26         27         28         29
    26  C    0.000000
    27  H    1.093524   0.000000
    28  H    1.094535   1.774773   0.000000
    29  H    1.094513   1.774855   1.801951   0.000000
 Stoichiometry    C11H14BrNO2
 Framework group  C1[X(C11H14BrNO2)]
 Deg. of freedom    81
 Full point group                 C1      NOp   1
 Largest Abelian subgroup         C1      NOp   1
 Largest concise Abelian subgroup C1      NOp   1
                         Standard orientation:                         
 ---------------------------------------------------------------------
 Center     Atomic      Atomic             Coordinates (Angstroms)
 Number     Number       Type             X           Y           Z
 ---------------------------------------------------------------------
      1          6           0       -0.742491   -0.121320    0.222480
      2          6           0       -2.097291    0.308039    0.694670
      3          8           0       -2.301692    1.189518    1.520120
      4          6           0        0.235689    0.827081    0.282420
      5          6           0       -1.122494    3.027770   -1.336010
      6          1           0       -0.927984    3.595910   -2.250160
      7          1           0       -2.103143    2.551679   -1.419880
      8          1           0       -1.138544    3.717410   -0.487600
      9          7           0       -0.080653    2.009901   -1.137700
     10          1           0       -0.071222    1.438071   -1.988710
     11          1           0        0.816297    2.510112   -1.184210
     12          6           0        1.692869    0.459672    0.250940
     13          6           0        2.322989   -0.061517   -0.888070
     14          6           0        3.687190   -0.362166   -0.871520
     15          6           0        4.437829   -0.136665    0.280370
     16          6           0        3.826769    0.391945    1.415350
     17          6           0        2.462649    0.692293    1.399560
     18          1           0        1.758020   -0.238538   -1.799090
     19          1           0        4.162550   -0.772815   -1.758360
     20          1           0        5.498780   -0.372314    0.293480
     21          1           0        4.410539    0.570445    2.314590
     22          1           0        2.002878    1.104303    2.295360
     23          1           0        0.022548    1.707461    0.912130
     24         35           0       -0.527409   -1.887920   -0.365860
     25          8           0       -3.072990   -0.406192    0.069380
     26          6           0       -4.397911   -0.050494    0.462090
     27          1           0       -5.096960   -0.682324   -0.092810
     28          1           0       -4.543100   -0.231064    1.531820
     29          1           0       -4.604112    0.995116    0.212810
 ---------------------------------------------------------------------
 Rotational constants (GHZ):           0.6855917           0.3044402           0.2523100
 Standard basis: STO-3G (5D, 7F)
 There are   103 symmetry adapted cartesian basis functions of A   symmetry.
 There are   102 symmetry adapted basis functions of A   symmetry.
   102 basis functions,   309 primitive gaussians,   103 cartesian basis functions
    69 alpha electrons       69 beta electrons
       nuclear repulsion energy      1360.8047526770 Hartrees.
 NAtoms=   29 NActive=   29 NUniq=   29 SFac= 1.00D+00 NAtFMM=   60 NAOKFM=F Big=F
 Integral buffers will be    131072 words long.
 Raffenetti 1 integral format.
 Two-electron integral symmetry is turned on.
 External calculation of energy, first and second derivatives.
 Running external command "~/scripts/MiMe -H 'hf 6-31g(d)' -EF 'wb97xd def2svp' -c 12 -m 48GB R"
         input file       "/local/jobs/1157671/Gau-2068320.EIn"
         output file      "/local/jobs/1157671/Gau-2068320.EOu"
         message file     "/local/jobs/1157671/Gau-2068320.EMs"
         fchk file        "/local/jobs/1157671/Gau-2068320.EFC"
         mat. el file     "/local/jobs/1157671/Gau-2068320.EUF"
 Read checkpoint file Gau-2068320_H.chk type G16
 Write formatted file Gau-2068320_H.fchk

deriv: 2

spelevel: wb97xd def2svp
gradlevel: wb97xd def2svp
hesslevel: hf 6-31g(d)

runspe: False
runforce: True
runfreq: True

Running Gaussian ...

Parsing files ...
SPE file: Gau-2068320_F.out
FORCE file: Gau-2068320_F.out
HESS file: Gau-2068320_H.out

 ExternalExternalExternalExternalExternalExternalExternalExternalExternalExternal
 Output from external command:
 "~/scripts/MiMe -H 'hf 6-31g(d)' -EF 'wb97xd def2svp' -c 12 -m 48GB R /local/jobs/1157671/Gau-2068320.EIn /local/jobs/1157671/Gau-2068320.EOu /local/jobs/1157671/Gau-2068320.EMs /local/jobs/1157671/Gau-2068320.EFC /local/jobs/1157671/Gau-2068320.EUF"
  
 --------------------------------------------------
 Force calculation at wb97xd def2svp
 Hessian calculation at hf 6-31g(d)
 ExternalExternalExternalExternalExternalExternalExternalExternalExternalExternal

 Recovered energy= -3205.96547277     dipole=      1.675600000000      4.168400000000     -3.591900000000
 Energy=    -3205.96547     NIter=   0.
 Dipole moment=       1.675600       4.168400      -3.591900
 ***** Axes restored to original set *****
 -------------------------------------------------------------------
 Center     Atomic                   Forces (Hartrees/Bohr)
 Number     Number              X              Y              Z
 -------------------------------------------------------------------
      1        6          -0.038492355    0.002670073    0.025863863
      2        6           0.020040909   -0.012283367   -0.002525487
      3        8          -0.003508266   -0.011671172   -0.021888032
      4        6           0.007640770   -0.005428505    0.029288740
      5        6          -0.001434748   -0.006167454    0.008638485
      6        1          -0.001514921    0.003871695   -0.003831131
      7        1          -0.002761072   -0.002312238    0.001222697
      8        1          -0.000676326    0.000988945    0.003450267
      9        7           0.025470826    0.033526540   -0.052571714
     10        1           0.000017963   -0.004487422    0.004762104
     11        1          -0.001019951   -0.002346320   -0.000182828
     12        6          -0.002404801    0.012181354   -0.008483250
     13        6           0.004878610    0.000253754    0.004037828
     14        6          -0.004666230    0.002427725    0.003981813
     15        6          -0.001898841   -0.000027698   -0.000548301
     16        6          -0.006553432   -0.001227725   -0.003467086
     17        6           0.005556034   -0.001556480   -0.002572592
     18        1          -0.003501407   -0.001368052   -0.002564860
     19        1           0.001227634   -0.001317876   -0.003243400
     20        1           0.003721830   -0.000702605   -0.000067207
     21        1           0.001557469    0.000743540    0.003194228
     22        1          -0.003302429    0.001513842    0.001664726
     23        1           0.000105339   -0.014294282    0.008699021
     24       35           0.003277787   -0.006085285   -0.007558830
     25        8          -0.008734406    0.015663138    0.015420911
     26        6           0.006197118   -0.006784818   -0.004122453
     27        1           0.001954736   -0.003596192   -0.003342253
     28        1          -0.000602368    0.003439736    0.003726228
     29        1          -0.000575468    0.004377151    0.003018515
 -------------------------------------------------------------------
 Cartesian Forces:  Max     0.052571714 RMS     0.011072829
 FormGI is forming the generalized inverse of G from B-inverse, IUseBI=4.

 GradGradGradGradGradGradGradGradGradGradGradGradGradGradGradGradGradGrad
 Berny optimization.
 Internal  Forces:  Max     0.040674512 RMS     0.007162675
 Search for a saddle point.
 Step number   1 out of a maximum of   50
 All quantities printed in internal units (Hartrees-Bohrs-Radians)
 Swapping is turned off.
 Second derivative matrix not updated -- analytic derivatives used.
 ITU=  0
     Eigenvalues ---   -0.06280   0.00472   0.00673   0.00853   0.01237
     Eigenvalues ---    0.01302   0.01871   0.02332   0.02496   0.02538
     Eigenvalues ---    0.02748   0.02897   0.02999   0.03294   0.03410
     Eigenvalues ---    0.03535   0.03824   0.04481   0.04654   0.06064
     Eigenvalues ---    0.06160   0.06225   0.06462   0.07699   0.08938
     Eigenvalues ---    0.10472   0.10815   0.10851   0.11461   0.12123
     Eigenvalues ---    0.13315   0.13438   0.14611   0.14878   0.15310
     Eigenvalues ---    0.15941   0.16033   0.16264   0.16633   0.19316
     Eigenvalues ---    0.20017   0.21384   0.22031   0.22201   0.22462
     Eigenvalues ---    0.22527   0.22709   0.23038   0.24172   0.25908
     Eigenvalues ---    0.27605   0.27888   0.30295   0.31322   0.33534
     Eigenvalues ---    0.34531   0.35141   0.35332   0.35435   0.35782
     Eigenvalues ---    0.36274   0.36331   0.37413   0.37607   0.37637
     Eigenvalues ---    0.37766   0.37928   0.39288   0.39908   0.42831
     Eigenvalues ---    0.43867   0.44451   0.46008   0.46348   0.50994
     Eigenvalues ---    0.51120   0.51397   0.54573   0.54918   0.60380
     Eigenvalues ---    0.81854
 Eigenvectors required to have negative eigenvalues:
                          R6        A19       A11       R2        A21
   1                   -0.81256  -0.26176   0.17916   0.15698   0.13385
                          D5        D10       D27       D26       R1
   1                   -0.13315   0.12741  -0.12336  -0.11817  -0.10881
 RFO step:  Lambda0=1.359238332D-03 Lambda=-3.49759861D-02.
 Linear search not attempted -- option 19 set.
 Maximum step size (   0.100) exceeded in Quadratic search.
    -- Step size scaled by   0.243
 Iteration  1 RMS(Cart)=  0.02608786 RMS(Int)=  0.00041387
 Iteration  2 RMS(Cart)=  0.00083506 RMS(Int)=  0.00009984
 Iteration  3 RMS(Cart)=  0.00000058 RMS(Int)=  0.00009984
 Variable       Old X    -DE/DX   Delta X   Delta X   Delta X     New X
                                 (Linear)    (Quad)   (Total)
    R1        2.83005  -0.01953   0.00000  -0.01976  -0.01976   2.81028
    R2        2.57717   0.02420   0.00000   0.00959   0.00959   2.58675
    R3        3.54205   0.00848   0.00000   0.00974   0.00974   3.55180
    R4        2.31455  -0.02256   0.00000  -0.00288  -0.00288   2.31167
    R5        2.57246  -0.01237   0.00000  -0.00636  -0.00636   2.56610
    R6        3.54336   0.04067   0.00000   0.02360   0.02360   3.56696
    R7        2.84048  -0.00772   0.00000  -0.00455  -0.00455   2.83593
    R8        2.08473  -0.00646   0.00000  -0.00323  -0.00323   2.08150
    R9        2.06689   0.00494   0.00000   0.00318   0.00318   2.07006
   R10        2.06609   0.00339   0.00000   0.00197   0.00197   2.06807
   R11        2.06634   0.00331   0.00000   0.00188   0.00188   2.06822
   R12        2.77784   0.00074   0.00000  -0.00558  -0.00558   2.77226
   R13        1.93759  -0.00145   0.00000  -0.00172  -0.00172   1.93587
   R14        1.94274  -0.00202   0.00000  -0.00250  -0.00250   1.94024
   R15        2.64969  -0.00235   0.00000  -0.00051  -0.00051   2.64917
   R16        2.64966  -0.00248   0.00000  -0.00118  -0.00118   2.64848
   R17        2.64001  -0.00293   0.00000  -0.00186  -0.00186   2.63816
   R18        2.05319   0.00419   0.00000   0.00224   0.00224   2.05543
   R19        2.63287   0.00029   0.00000   0.00042   0.00042   2.63329
   R20        2.05371   0.00368   0.00000   0.00222   0.00222   2.05593
   R21        2.63276   0.00121   0.00000   0.00015   0.00015   2.63291
   R22        2.05391   0.00378   0.00000   0.00214   0.00214   2.05606
   R23        2.63973  -0.00350   0.00000  -0.00122  -0.00122   2.63851
   R24        2.05388   0.00360   0.00000   0.00216   0.00216   2.05604
   R25        2.05590   0.00334   0.00000   0.00206   0.00206   2.05796
   R26        2.69653  -0.00731   0.00000  -0.00609  -0.00609   2.69044
   R27        2.06646   0.00252   0.00000   0.00129   0.00129   2.06775
   R28        2.06837   0.00316   0.00000   0.00231   0.00231   2.07068
   R29        2.06833   0.00360   0.00000   0.00231   0.00231   2.07064
    A1        2.02154   0.00487   0.00000   0.00808   0.00807   2.02961
    A2        2.06348   0.00374   0.00000   0.00551   0.00550   2.06898
    A3        2.19805  -0.00859   0.00000  -0.01346  -0.01348   2.18458
    A4        2.17706  -0.00013   0.00000  -0.00032  -0.00032   2.17674
    A5        1.93174   0.01658   0.00000   0.01117   0.01117   1.94291
    A6        2.17433  -0.01647   0.00000  -0.01088  -0.01088   2.16345
    A7        1.85916   0.01772   0.00000   0.01691   0.01700   1.87616
    A8        2.12285   0.00549   0.00000   0.01151   0.01158   2.13442
    A9        2.02804  -0.00638   0.00000  -0.01419  -0.01446   2.01358
   A10        1.87746  -0.02518   0.00000  -0.03566  -0.03565   1.84182
   A11        1.46692   0.00965   0.00000   0.02238   0.02249   1.48941
   A12        1.97612  -0.00082   0.00000   0.00030   0.00055   1.97667
   A13        1.89820  -0.00061   0.00000  -0.00035  -0.00035   1.89785
   A14        1.90021  -0.00074   0.00000   0.00023   0.00022   1.90043
   A15        1.92452   0.00495   0.00000   0.00343   0.00343   1.92795
   A16        1.89757   0.00008   0.00000  -0.00141  -0.00141   1.89616
   A17        1.92253  -0.00242   0.00000  -0.00133  -0.00133   1.92120
   A18        1.92032  -0.00130   0.00000  -0.00062  -0.00062   1.91970
   A19        2.28969  -0.02568   0.00000  -0.06327  -0.06333   2.22636
   A20        1.84964   0.00359   0.00000   0.01010   0.00968   1.85932
   A21        1.76603   0.00774   0.00000   0.02622   0.02650   1.79253
   A22        1.85535   0.01224   0.00000   0.01798   0.01743   1.87278
   A23        1.84975   0.00813   0.00000   0.01720   0.01754   1.86729
   A24        1.79854  -0.00250   0.00000   0.00525   0.00485   1.80339
   A25        2.14543  -0.00033   0.00000  -0.00066  -0.00066   2.14477
   A26        2.06521  -0.00082   0.00000   0.00098   0.00097   2.06619
   A27        2.07191   0.00118   0.00000  -0.00022  -0.00022   2.07169
   A28        2.10505  -0.00010   0.00000   0.00031   0.00031   2.10536
   A29        2.10367  -0.00127   0.00000  -0.00152  -0.00152   2.10215
   A30        2.07446   0.00138   0.00000   0.00121   0.00121   2.07567
   A31        2.09563   0.00012   0.00000   0.00039   0.00039   2.09601
   A32        2.09298  -0.00052   0.00000  -0.00077  -0.00077   2.09221
   A33        2.09458   0.00041   0.00000   0.00038   0.00038   2.09496
   A34        2.09282  -0.00128   0.00000  -0.00107  -0.00107   2.09175
   A35        2.09531   0.00057   0.00000   0.00033   0.00033   2.09564
   A36        2.09506   0.00071   0.00000   0.00073   0.00073   2.09579
   A37        2.09519   0.00034   0.00000   0.00037   0.00037   2.09556
   A38        2.09527   0.00030   0.00000   0.00007   0.00007   2.09534
   A39        2.09273  -0.00064   0.00000  -0.00043  -0.00043   2.09229
   A40        2.10565  -0.00025   0.00000   0.00025   0.00025   2.10590
   A41        2.10056  -0.00212   0.00000  -0.00265  -0.00265   2.09791
   A42        2.07695   0.00237   0.00000   0.00241   0.00241   2.07936
   A43        1.99139   0.00646   0.00000   0.00669   0.00669   1.99808
   A44        1.88586  -0.00636   0.00000  -0.00610  -0.00610   1.87976
   A45        1.92945   0.00217   0.00000   0.00330   0.00331   1.93276
   A46        1.92877   0.00191   0.00000   0.00210   0.00210   1.93088
   A47        1.89212   0.00319   0.00000   0.00381   0.00382   1.89594
   A48        1.89228   0.00330   0.00000   0.00417   0.00418   1.89645
   A49        1.93393  -0.00422   0.00000  -0.00720  -0.00720   1.92673
    D1       -0.47259   0.00571   0.00000   0.02162   0.02159  -0.45100
    D2        2.65735   0.00309   0.00000   0.01912   0.01908   2.67643
    D3        2.65347   0.00699   0.00000   0.03023   0.03026   2.68373
    D4       -0.49978   0.00437   0.00000   0.02772   0.02775  -0.47202
    D5       -1.31473  -0.01024   0.00000  -0.02758  -0.02752  -1.34225
    D6        2.81226   0.00428   0.00000  -0.00223  -0.00224   2.81002
    D7        0.28148   0.00781   0.00000   0.00235   0.00224   0.28371
    D8        1.84377  -0.01176   0.00000  -0.03716  -0.03705   1.80672
    D9       -0.31242   0.00275   0.00000  -0.01180  -0.01177  -0.32420
   D10       -2.84321   0.00628   0.00000  -0.00722  -0.00730  -2.85050
   D11       -3.13684  -0.00043   0.00000  -0.00695  -0.00696   3.13939
   D12       -0.00688  -0.00291   0.00000  -0.00937  -0.00936  -0.01624
   D13        1.26088  -0.00298   0.00000  -0.01539  -0.01509   1.24580
   D14       -1.00256  -0.00081   0.00000   0.00921   0.00930  -0.99325
   D15       -2.87388  -0.00196   0.00000  -0.00892  -0.00893  -2.88281
   D16       -2.72036  -0.00105   0.00000  -0.01364  -0.01340  -2.73376
   D17        1.29938   0.00112   0.00000   0.01097   0.01099   1.31038
   D18       -0.57194  -0.00003   0.00000  -0.00716  -0.00724  -0.57918
   D19       -0.75669   0.00051   0.00000  -0.00728  -0.00729  -0.76398
   D20       -3.02013   0.00268   0.00000   0.01733   0.01710  -3.00303
   D21        1.39173   0.00153   0.00000  -0.00080  -0.00113   1.39060
   D22        1.20310   0.00258   0.00000  -0.00339  -0.00338   1.19972
   D23       -1.97723   0.00356   0.00000  -0.00050  -0.00049  -1.97772
   D24       -0.94455  -0.00296   0.00000  -0.00262  -0.00260  -0.94715
   D25        2.15831  -0.00198   0.00000   0.00027   0.00029   2.15859
   D26       -2.53286  -0.00270   0.00000  -0.01262  -0.01265  -2.54551
   D27        0.56999  -0.00172   0.00000  -0.00974  -0.00977   0.56022
   D28        3.04355   0.00190   0.00000   0.01427   0.01425   3.05780
   D29       -0.97818  -0.00336   0.00000  -0.01330  -0.01336  -0.99155
   D30        0.92730   0.00212   0.00000   0.00688   0.00696   0.93427
   D31       -1.14445   0.00276   0.00000   0.01518   0.01516  -1.12929
   D32        1.11700  -0.00251   0.00000  -0.01240  -0.01246   1.10455
   D33        3.02249   0.00298   0.00000   0.00779   0.00787   3.03036
   D34        0.94729   0.00051   0.00000   0.01220   0.01218   0.95947
   D35       -3.07445  -0.00476   0.00000  -0.01537  -0.01543  -3.08988
   D36       -1.16896   0.00073   0.00000   0.00482   0.00490  -1.16407
   D37        3.11962   0.00083   0.00000   0.00086   0.00085   3.12047
   D38       -0.02204   0.00015   0.00000  -0.00143  -0.00143  -0.02346
   D39        0.01691  -0.00011   0.00000  -0.00206  -0.00206   0.01484
   D40       -3.12475  -0.00079   0.00000  -0.00435  -0.00435  -3.12909
   D41       -3.12101  -0.00110   0.00000  -0.00152  -0.00152  -3.12253
   D42        0.02761  -0.00073   0.00000  -0.00169  -0.00169   0.02592
   D43       -0.01649  -0.00019   0.00000   0.00123   0.00123  -0.01526
   D44        3.13213   0.00017   0.00000   0.00106   0.00106   3.13319
   D45       -0.00762   0.00024   0.00000   0.00138   0.00138  -0.00624
   D46        3.13344  -0.00005   0.00000   0.00046   0.00046   3.13390
   D47        3.13403   0.00091   0.00000   0.00362   0.00362   3.13766
   D48       -0.00809   0.00061   0.00000   0.00270   0.00270  -0.00538
   D49       -0.00241  -0.00004   0.00000   0.00019   0.00019  -0.00222
   D50        3.13971  -0.00011   0.00000  -0.00016  -0.00016   3.13955
   D51        3.13971   0.00025   0.00000   0.00111   0.00111   3.14082
   D52       -0.00135   0.00019   0.00000   0.00076   0.00076  -0.00059
   D53        0.00282  -0.00026   0.00000  -0.00102  -0.00102   0.00181
   D54       -3.13967  -0.00006   0.00000  -0.00021  -0.00021  -3.13988
   D55       -3.13930  -0.00020   0.00000  -0.00067  -0.00067  -3.13996
   D56        0.00139   0.00001   0.00000   0.00013   0.00013   0.00153
   D57        0.00678   0.00037   0.00000   0.00030   0.00030   0.00708
   D58        3.14144  -0.00001   0.00000   0.00045   0.00045  -3.14130
   D59       -3.13391   0.00017   0.00000  -0.00050  -0.00050  -3.13441
   D60        0.00075  -0.00021   0.00000  -0.00035  -0.00035   0.00040
   D61       -3.13765   0.00005   0.00000  -0.00413  -0.00412   3.14141
   D62       -1.06970   0.00133   0.00000  -0.00129  -0.00129  -1.07099
   D63        1.07779  -0.00121   0.00000  -0.00671  -0.00671   1.07108
         Item               Value     Threshold  Converged?
 Maximum Force            0.040675     0.000450     NO 
 RMS     Force            0.007163     0.000300     NO 
 Maximum Displacement     0.102820     0.001800     NO 
 RMS     Displacement     0.026268     0.001200     NO 
 Predicted change in Energy=-7.461656D-03
 GradGradGradGradGradGradGradGradGradGradGradGradGradGradGradGradGradGrad

                          Input orientation:                          
 ---------------------------------------------------------------------
 Center     Atomic      Atomic             Coordinates (Angstroms)
 Number     Number       Type             X           Y           Z
 ---------------------------------------------------------------------
      1          6           0       -0.762975   -0.117021    0.215323
      2          6           0       -2.108931    0.307864    0.683784
      3          8           0       -2.314651    1.199025    1.496149
      4          6           0        0.226542    0.826749    0.277844
      5          6           0       -1.090083    3.012935   -1.327827
      6          1           0       -0.923317    3.607226   -2.232799
      7          1           0       -2.063211    2.518449   -1.406311
      8          1           0       -1.106732    3.682582   -0.462304
      9          7           0       -0.028552    2.013061   -1.167996
     10          1           0       -0.016810    1.442512   -2.018741
     11          1           0        0.865700    2.515949   -1.207936
     12          6           0        1.682670    0.464867    0.248513
     13          6           0        2.314779   -0.056062   -0.889180
     14          6           0        3.678743   -0.353149   -0.871729
     15          6           0        4.428576   -0.126112    0.280650
     16          6           0        3.814513    0.400683    1.414949
     17          6           0        2.450481    0.698332    1.397518
     18          1           0        1.748468   -0.237299   -1.799953
     19          1           0        4.155338   -0.763723   -1.759381
     20          1           0        5.491167   -0.359554    0.294480
     21          1           0        4.397117    0.580774    2.316007
     22          1           0        1.986046    1.109813    2.292480
     23          1           0        0.007794    1.698409    0.914733
     24         35           0       -0.540603   -1.879657   -0.398107
     25          8           0       -3.091067   -0.409767    0.080154
     26          6           0       -4.410763   -0.058849    0.482934
     27          1           0       -5.107620   -0.699002   -0.066503
     28          1           0       -4.547946   -0.232329    1.556141
     29          1           0       -4.625032    0.986666    0.234697
 ---------------------------------------------------------------------
                    Distance matrix (angstroms):
                    1          2          3          4          5
     1  C    0.000000
     2  C    1.487138   0.000000
     3  O    2.404203   1.223285   0.000000
     4  C    1.368852   2.426615   2.842625   0.000000
     5  C    3.504987   3.521653   3.572769   3.015143   0.000000
     6  H    4.459711   4.560474   4.651913   3.918744   1.095430
     7  H    3.356487   3.042576   3.198183   3.307747   1.094374
     8  H    3.874833   3.702248   3.385656   3.237471   1.094457
     9  N    2.643898   3.265694   3.603689   1.887554   1.467018
    10  H    2.824880   3.601116   4.206402   2.390123   2.023736
    11  H    3.407459   4.159648   4.377328   2.338688   2.021498
    12  C    2.514135   3.819731   4.251372   1.500709   4.082359
    13  C    3.270507   4.709126   5.356927   2.549909   4.604806
    14  C    4.578897   6.029404   6.628488   3.825097   5.854933
    15  C    5.191970   6.564286   6.978864   4.308717   6.549535
    16  C    4.760306   5.969121   6.181472   3.787885   6.196914
    17  C    3.519756   4.631427   4.792380   2.493203   5.031946
    18  H    3.222289   4.620138   5.425519   2.786700   4.341002
    19  H    5.339240   6.808701   7.504107   4.702694   6.477949
    20  H    6.259343   7.639273   8.050092   5.396653   7.570892
    21  H    5.614833   6.713218   6.789863   4.648474   7.021560
    22  H    3.657433   4.472120   4.374711   2.689746   5.117721
    23  H    2.092617   2.543124   2.445646   1.101485   2.821770
    24  Br   1.879530   2.900929   4.026629   2.893106   5.010366
    25  O    2.350315   1.357923   2.279490   3.546066   4.207284
    26  C    3.658054   2.339498   2.646231   4.725563   4.872538
    27  H    4.392501   3.250976   3.720895   5.558757   5.613378
    28  H    4.017101   2.646056   2.653296   5.054842   5.550300
    29  H    4.016713   2.644469   2.640875   4.854401   4.363842
                    6          7          8          9         10
     6  H    0.000000
     7  H    1.779853   0.000000
     8  H    1.781565   1.777978   0.000000
     9  N    2.115602   2.109988   2.108975   0.000000
    10  H    2.356600   2.391750   2.937405   1.024418   0.000000
    11  H    2.332768   2.935621   2.409873   1.026731   1.608880
    12  C    4.777290   4.581186   4.317374   2.707708   2.997409
    13  C    5.070528   5.105128   5.085905   3.138504   2.992982
    14  C    6.222221   6.442195   6.273398   4.408033   4.265811
    15  C    6.992711   7.209913   6.760013   5.151760   5.244925
    16  C    6.784911   6.855076   6.205932   4.903112   5.249254
    17  C    5.746597   5.616733   5.001844   3.802101   4.279270
    18  H    4.701719   4.719957   5.030601   2.936204   2.446597
    19  H    6.717295   7.040430   7.010094   5.056204   4.726686
    20  H    7.954124   8.261005   7.774565   6.183480   6.239891
    21  H    7.626144   7.703640   6.901636   5.811736   6.246230
    22  H    5.931240   5.662313   4.875782   4.104796   4.765369
    23  H    3.797039   3.216951   2.659951   2.106676   2.944717
    24  Br   5.798142   4.762158   5.591344   4.001022   3.733312
    25  O    5.117140   3.441005   4.580302   4.099631   4.157806
    26  C    5.742612   3.965188   5.080197   5.120758   5.274399
    27  H    6.383168   4.627689   5.946599   5.862210   5.857786
    28  H    6.498937   4.745188   5.589508   5.734773   6.009665
    29  H    5.163194   3.406200   4.486893   4.914129   5.149902
                   11         12         13         14         15
    11  H    0.000000
    12  C    2.644924   0.000000
    13  C    2.969289   1.401882   0.000000
    14  C    4.032117   2.430719   1.396052   0.000000
    15  C    4.678725   2.808966   2.416929   1.393475   0.000000
    16  C    4.477653   2.430935   2.786903   2.411554   1.393277
    17  C    3.550163   1.401518   2.411745   2.786345   2.416602
    18  H    2.951295   2.166467   1.087687   2.144990   3.394739
    19  H    4.677826   3.413965   2.155386   1.087953   2.154747
    20  H    5.649842   3.896977   3.403321   2.155218   1.088019
    21  H    5.351074   3.414116   3.874909   3.398519   2.154845
    22  H    3.935138   2.164670   3.404452   3.875267   3.397194
    23  H    2.431069   2.184190   3.413862   4.569048   4.824340
    24  Br   4.685602   3.295126   3.423428   4.511920   5.313039
    25  O    5.086747   4.856120   5.503443   6.836637   7.527662
    26  C    6.109802   6.120389   6.864082   8.207425   8.841910
    27  H    6.878904   6.896511   7.495477   8.829958   9.559694
    28  H    6.670886   6.404417   7.287501   8.578319   9.067310
    29  H    5.879458   6.329263   7.107135   8.483629   9.121854
                   16         17         18         19         20
    16  C    0.000000
    17  C    1.396239   0.000000
    18  H    3.874423   3.404710   0.000000
    19  H    3.398290   3.874294   2.464100   0.000000
    20  H    2.155129   3.403174   4.290616   2.483170   0.000000
    21  H    1.088010   2.155652   4.962430   4.298246   2.483492
    22  H    2.148538   1.089024   4.314993   4.963219   4.293823
    23  H    4.052828   2.683272   3.761174   5.514989   5.889593
    24  Br   5.239672   4.337843   3.146801   5.015001   6.258805
    25  O    7.079939   5.802765   5.194771   7.484621   8.585057
    26  C    8.290657   6.963222   6.571115   8.882732   9.908288
    27  H    9.110898   7.824371   7.086886   9.416603  10.610363
    28  H    8.387572   7.061818   7.135000   9.328570  10.118882
    29  H    8.541797   7.176223   6.801426   9.172519  10.205556
                   21         22         23         24         25
    21  H    0.000000
    22  H    2.468543   0.000000
    23  H    4.741185   2.481554   0.000000
    24  Br   6.148270   4.749753   3.850565   0.000000
    25  O    7.877380   5.742873   3.839775   2.982311   0.000000
    26  C    9.019315   6.749770   4.774731   4.366889   1.423719
    27  H    9.882014   7.691339   5.733922   4.728800   2.042462
    28  H    9.014028   6.710931   4.989381   4.753060   2.081471
    29  H    9.267998   6.925026   4.736255   5.029792   2.080134
                   26         27         28         29
    26  C    0.000000
    27  H    1.094206   0.000000
    28  H    1.095759   1.778761   0.000000
    29  H    1.095734   1.779069   1.799473   0.000000
 Stoichiometry    C11H14BrNO2
 Framework group  C1[X(C11H14BrNO2)]
 Deg. of freedom    81
 Full point group                 C1      NOp   1
 Largest Abelian subgroup         C1      NOp   1
 Largest concise Abelian subgroup C1      NOp   1
                         Standard orientation:                         
 ---------------------------------------------------------------------
 Center     Atomic      Atomic             Coordinates (Angstroms)
 Number     Number       Type             X           Y           Z
 ---------------------------------------------------------------------
      1          6           0       -0.758735   -0.112542    0.224936
      2          6           0       -2.102602    0.327048    0.685762
      3          8           0       -2.303663    1.228625    1.487735
      4          6           0        0.237331    0.824834    0.279090
      5          6           0       -1.060411    3.002291   -1.353588
      6          1           0       -0.887560    3.585282   -2.264747
      7          1           0       -2.036864    2.513866   -1.428658
      8          1           0       -1.074089    3.681627   -0.495595
      9          7           0       -0.006343    1.996765   -1.180384
     10          1           0        0.003101    1.416718   -2.024711
     11          1           0        0.891539    2.492832   -1.223992
     12          6           0        1.690909    0.452346    0.256901
     13          6           0        2.321648   -0.085671   -0.873577
     14          6           0        3.683427   -0.392196   -0.849904
     15          6           0        4.432475   -0.157669    0.301486
     16          6           0        3.819829    0.386047    1.428544
     17          6           0        2.457985    0.693135    1.404884
     18          1           0        1.755944   -0.273013   -1.783492
     19          1           0        4.158925   -0.815984   -1.731916
     20          1           0        5.493349   -0.398462    0.320185
     21          1           0        4.401837    0.572020    2.328792
     22          1           0        1.994639    1.117825    2.294222
     23          1           0        0.023467    1.705052    0.905785
     24         35           0       -0.547626   -1.883424   -0.368396
     25          8           0       -3.088564   -0.390281    0.088039
     26          6           0       -4.406563   -0.025567    0.484067
     27          1           0       -5.106814   -0.666842   -0.059716
     28          1           0       -4.547190   -0.186122    1.558838
     29          1           0       -4.612885    1.018612    0.223771
 ---------------------------------------------------------------------
 Rotational constants (GHZ):           0.6871863           0.3040922           0.2525589
 Standard basis: STO-3G (5D, 7F)
 There are   103 symmetry adapted cartesian basis functions of A   symmetry.
 There are   102 symmetry adapted basis functions of A   symmetry.
   102 basis functions,   309 primitive gaussians,   103 cartesian basis functions
    69 alpha electrons       69 beta electrons
       nuclear repulsion energy      1361.0341389655 Hartrees.
 NAtoms=   29 NActive=   29 NUniq=   29 SFac= 1.00D+00 NAtFMM=   60 NAOKFM=F Big=F
 Integral buffers will be    131072 words long.
 Raffenetti 1 integral format.
 Two-electron integral symmetry is turned on.
 External calculation of energy, first and second derivatives.
 Running external command "~/scripts/MiMe -H 'hf 6-31g(d)' -EF 'wb97xd def2svp' -c 12 -m 48GB R"
         input file       "/local/jobs/1157671/Gau-2068320.EIn"
         output file      "/local/jobs/1157671/Gau-2068320.EOu"
         message file     "/local/jobs/1157671/Gau-2068320.EMs"
         fchk file        "/local/jobs/1157671/Gau-2068320.EFC"
         mat. el file     "/local/jobs/1157671/Gau-2068320.EUF"
 Read checkpoint file Gau-2068320_H.chk type G16
 Write formatted file Gau-2068320_H.fchk

deriv: 2

spelevel: wb97xd def2svp
gradlevel: wb97xd def2svp
hesslevel: hf 6-31g(d)

runspe: False
runforce: True
runfreq: True

Running Gaussian ...

Parsing files ...
SPE file: Gau-2068320_F.out
FORCE file: Gau-2068320_F.out
HESS file: Gau-2068320_H.out

 ExternalExternalExternalExternalExternalExternalExternalExternalExternalExternal
 Output from external command:
 "~/scripts/MiMe -H 'hf 6-31g(d)' -EF 'wb97xd def2svp' -c 12 -m 48GB R /local/jobs/1157671/Gau-2068320.EIn /local/jobs/1157671/Gau-2068320.EOu /local/jobs/1157671/Gau-2068320.EMs /local/jobs/1157671/Gau-2068320.EFC /local/jobs/1157671/Gau-2068320.EUF"
  
 --------------------------------------------------
 Force calculation at wb97xd def2svp
 Hessian calculation at hf 6-31g(d)
 ExternalExternalExternalExternalExternalExternalExternalExternalExternalExternal

 Recovered energy= -3205.97302175     dipole=      1.857500000000      4.098700000000     -3.599200000000
 Energy=    -3205.97302     NIter=   0.
 Dipole moment=       1.857500       4.098700      -3.599200
 ***** Axes restored to original set *****
 -------------------------------------------------------------------
 Center     Atomic                   Forces (Hartrees/Bohr)
 Number     Number              X              Y              Z
 -------------------------------------------------------------------
      1        6          -0.029674753    0.003289103    0.020967548
      2        6           0.015739397   -0.010121979   -0.001727396
      3        8          -0.002909115   -0.008601424   -0.017862519
      4        6           0.004488453   -0.006324494    0.025155179
      5        6          -0.001037718   -0.005519552    0.006585453
      6        1          -0.001695323    0.003229378   -0.002837835
      7        1          -0.002076449   -0.002134575    0.001248270
      8        1          -0.000525498    0.000484974    0.002927176
      9        7           0.022882731    0.028843465   -0.044354814
     10        1          -0.000618834   -0.004151803    0.004104792
     11        1          -0.000783523   -0.001655151    0.000323456
     12        6          -0.001810223    0.010020906   -0.007160186
     13        6           0.003834597    0.000128394    0.003257308
     14        6          -0.003559317    0.001937726    0.003154177
     15        6          -0.001440157   -0.000105757   -0.000460807
     16        6          -0.005199710   -0.001067839   -0.002707617
     17        6           0.004573938   -0.001154390   -0.001903388
     18        1          -0.002867822   -0.001305472   -0.001922462
     19        1           0.000954955   -0.001014937   -0.002529171
     20        1           0.002908791   -0.000527045   -0.000041781
     21        1           0.001177478    0.000591448    0.002512811
     22        1          -0.002711572    0.001168028    0.001210150
     23        1          -0.000478493   -0.011662022    0.006957511
     24       35           0.002476219   -0.004485849   -0.006989462
     25        8          -0.007258059    0.012224043    0.012705277
     26        6           0.004821939   -0.005677092   -0.003518222
     27        1           0.001658910   -0.002919721   -0.002685504
     28        1          -0.000392894    0.002990546    0.002932392
     29        1          -0.000477946    0.003521092    0.002659667
 -------------------------------------------------------------------
 Cartesian Forces:  Max     0.044354814 RMS     0.009173663
 FormGI is forming the generalized inverse of G from B-inverse, IUseBI=4.

 GradGradGradGradGradGradGradGradGradGradGradGradGradGradGradGradGradGrad
 Berny optimization.
 Internal  Forces:  Max     0.034334988 RMS     0.005863886
 Search for a saddle point.
 Step number   2 out of a maximum of   50
 All quantities printed in internal units (Hartrees-Bohrs-Radians)
 Swapping is turned off.
 Second derivative matrix not updated -- analytic derivatives used.
 ITU=  0  0
     Eigenvalues ---   -0.05353   0.00492   0.00738   0.00876   0.01238
     Eigenvalues ---    0.01304   0.01948   0.02347   0.02499   0.02549
     Eigenvalues ---    0.02766   0.02908   0.03021   0.03300   0.03415
     Eigenvalues ---    0.03540   0.03853   0.04500   0.04631   0.06084
     Eigenvalues ---    0.06173   0.06213   0.06625   0.07751   0.08821
     Eigenvalues ---    0.10089   0.10509   0.10825   0.11398   0.11995
     Eigenvalues ---    0.13414   0.13452   0.14629   0.14893   0.15318
     Eigenvalues ---    0.15982   0.16138   0.16624   0.16666   0.19316
     Eigenvalues ---    0.19757   0.21447   0.22054   0.22202   0.22500
     Eigenvalues ---    0.22531   0.22823   0.23186   0.24242   0.25934
     Eigenvalues ---    0.28002   0.28294   0.30604   0.31385   0.33959
     Eigenvalues ---    0.34834   0.34899   0.35092   0.35285   0.35587
     Eigenvalues ---    0.36114   0.36205   0.37183   0.37378   0.37398
     Eigenvalues ---    0.37533   0.37738   0.39453   0.40429   0.43266
     Eigenvalues ---    0.44190   0.45078   0.46121   0.46599   0.51262
     Eigenvalues ---    0.51394   0.51546   0.54728   0.55009   0.59039
     Eigenvalues ---    0.83087
 Eigenvectors required to have negative eigenvalues:
                          R6        A19       A11       R2        D27
   1                   -0.83336  -0.20777   0.17782   0.15817  -0.13551
                          D26       D10       D6        D5        R1
   1                   -0.12807   0.12563  -0.12047  -0.11895  -0.10799
 RFO step:  Lambda0=2.444375229D-03 Lambda=-2.67207742D-02.
 Linear search not attempted -- option 19 set.
 Maximum step size (   0.100) exceeded in Quadratic search.
    -- Step size scaled by   0.268
 Iteration  1 RMS(Cart)=  0.02935056 RMS(Int)=  0.00045265
 Iteration  2 RMS(Cart)=  0.00090444 RMS(Int)=  0.00012446
 Iteration  3 RMS(Cart)=  0.00000071 RMS(Int)=  0.00012446
 Variable       Old X    -DE/DX   Delta X   Delta X   Delta X     New X
                                 (Linear)    (Quad)   (Total)
    R1        2.81028  -0.01493   0.00000  -0.01950  -0.01950   2.79078
    R2        2.58675   0.01802   0.00000   0.01222   0.01222   2.59897
    R3        3.55180   0.00678   0.00000   0.00947   0.00947   3.56127
    R4        2.31167  -0.01764   0.00000  -0.00133  -0.00133   2.31034
    R5        2.56610  -0.00955   0.00000  -0.00490  -0.00490   2.56121
    R6        3.56696   0.03433   0.00000   0.00340   0.00340   3.57036
    R7        2.83593  -0.00598   0.00000  -0.00265  -0.00265   2.83327
    R8        2.08150  -0.00511   0.00000  -0.00218  -0.00218   2.07932
    R9        2.07006   0.00384   0.00000   0.00257   0.00257   2.07263
   R10        2.06807   0.00272   0.00000   0.00146   0.00146   2.06952
   R11        2.06822   0.00262   0.00000   0.00146   0.00146   2.06969
   R12        2.77226   0.00031   0.00000  -0.00463  -0.00463   2.76763
   R13        1.93587  -0.00110   0.00000  -0.00168  -0.00168   1.93419
   R14        1.94024  -0.00151   0.00000  -0.00221  -0.00221   1.93804
   R15        2.64917  -0.00191   0.00000  -0.00034  -0.00034   2.64884
   R16        2.64848  -0.00193   0.00000  -0.00112  -0.00112   2.64736
   R17        2.63816  -0.00218   0.00000  -0.00179  -0.00179   2.63637
   R18        2.05543   0.00332   0.00000   0.00192   0.00192   2.05735
   R19        2.63329   0.00023   0.00000   0.00041   0.00041   2.63370
   R20        2.05593   0.00287   0.00000   0.00196   0.00196   2.05789
   R21        2.63291   0.00097   0.00000   0.00003   0.00003   2.63294
   R22        2.05606   0.00295   0.00000   0.00189   0.00189   2.05795
   R23        2.63851  -0.00282   0.00000  -0.00089  -0.00089   2.63762
   R24        2.05604   0.00281   0.00000   0.00191   0.00191   2.05796
   R25        2.05796   0.00259   0.00000   0.00183   0.00183   2.05978
   R26        2.69044  -0.00589   0.00000  -0.00574  -0.00574   2.68470
   R27        2.06775   0.00200   0.00000   0.00119   0.00119   2.06894
   R28        2.07068   0.00245   0.00000   0.00214   0.00214   2.07282
   R29        2.07064   0.00285   0.00000   0.00209   0.00209   2.07273
    A1        2.02961   0.00363   0.00000   0.00777   0.00775   2.03736
    A2        2.06898   0.00320   0.00000   0.00608   0.00606   2.07504
    A3        2.18458  -0.00682   0.00000  -0.01378  -0.01379   2.17078
    A4        2.17674  -0.00034   0.00000  -0.00011  -0.00012   2.17662
    A5        1.94291   0.01362   0.00000   0.01051   0.01051   1.95342
    A6        2.16345  -0.01331   0.00000  -0.01043  -0.01043   2.15302
    A7        1.87616   0.01395   0.00000   0.01508   0.01515   1.89131
    A8        2.13442   0.00484   0.00000   0.00982   0.00986   2.14429
    A9        2.01358  -0.00582   0.00000  -0.01555  -0.01587   1.99771
   A10        1.84182  -0.02006   0.00000  -0.03118  -0.03117   1.81065
   A11        1.48941   0.00798   0.00000   0.02844   0.02855   1.51796
   A12        1.97667  -0.00035   0.00000  -0.00107  -0.00079   1.97588
   A13        1.89785  -0.00050   0.00000   0.00037   0.00037   1.89822
   A14        1.90043  -0.00064   0.00000   0.00099   0.00099   1.90143
   A15        1.92795   0.00471   0.00000   0.00217   0.00217   1.93013
   A16        1.89616   0.00016   0.00000  -0.00112  -0.00113   1.89503
   A17        1.92120  -0.00243   0.00000  -0.00164  -0.00164   1.91957
   A18        1.91970  -0.00135   0.00000  -0.00079  -0.00079   1.91891
   A19        2.22636  -0.02253   0.00000  -0.06651  -0.06661   2.15975
   A20        1.85932   0.00316   0.00000   0.00767   0.00710   1.86642
   A21        1.79253   0.00699   0.00000   0.02998   0.03030   1.82283
   A22        1.87278   0.01007   0.00000   0.01654   0.01580   1.88858
   A23        1.86729   0.00730   0.00000   0.01805   0.01848   1.88577
   A24        1.80339  -0.00209   0.00000   0.00773   0.00730   1.81069
   A25        2.14477   0.00001   0.00000  -0.00078  -0.00078   2.14399
   A26        2.06619  -0.00089   0.00000   0.00129   0.00129   2.06747
   A27        2.07169   0.00090   0.00000  -0.00043  -0.00044   2.07125
   A28        2.10536  -0.00010   0.00000   0.00047   0.00047   2.10584
   A29        2.10215  -0.00106   0.00000  -0.00145  -0.00145   2.10069
   A30        2.07567   0.00116   0.00000   0.00097   0.00097   2.07664
   A31        2.09601   0.00011   0.00000   0.00037   0.00037   2.09638
   A32        2.09221  -0.00042   0.00000  -0.00087  -0.00087   2.09134
   A33        2.09496   0.00031   0.00000   0.00051   0.00051   2.09547
   A34        2.09175  -0.00104   0.00000  -0.00107  -0.00107   2.09068
   A35        2.09564   0.00048   0.00000   0.00024   0.00024   2.09588
   A36        2.09579   0.00056   0.00000   0.00083   0.00083   2.09662
   A37        2.09556   0.00027   0.00000   0.00040   0.00040   2.09596
   A38        2.09534   0.00027   0.00000  -0.00003  -0.00003   2.09530
   A39        2.09229  -0.00054   0.00000  -0.00037  -0.00037   2.09193
   A40        2.10590  -0.00013   0.00000   0.00030   0.00030   2.10620
   A41        2.09791  -0.00184   0.00000  -0.00244  -0.00244   2.09547
   A42        2.07936   0.00197   0.00000   0.00214   0.00215   2.08150
   A43        1.99808   0.00525   0.00000   0.00634   0.00634   2.00442
   A44        1.87976  -0.00514   0.00000  -0.00576  -0.00575   1.87401
   A45        1.93276   0.00166   0.00000   0.00352   0.00352   1.93628
   A46        1.93088   0.00168   0.00000   0.00198   0.00198   1.93286
   A47        1.89594   0.00269   0.00000   0.00367   0.00368   1.89961
   A48        1.89645   0.00276   0.00000   0.00400   0.00400   1.90046
   A49        1.92673  -0.00361   0.00000  -0.00728  -0.00727   1.91946
    D1       -0.45100   0.00536   0.00000   0.02980   0.02976  -0.42124
    D2        2.67643   0.00321   0.00000   0.02732   0.02727   2.70370
    D3        2.68373   0.00664   0.00000   0.04046   0.04051   2.72424
    D4       -0.47202   0.00448   0.00000   0.03798   0.03802  -0.43400
    D5       -1.34225  -0.00810   0.00000  -0.03195  -0.03189  -1.37413
    D6        2.81002   0.00331   0.00000  -0.00974  -0.00974   2.80028
    D7        0.28371   0.00602   0.00000   0.00309   0.00294   0.28665
    D8        1.80672  -0.00952   0.00000  -0.04351  -0.04339   1.76333
    D9       -0.32420   0.00189   0.00000  -0.02130  -0.02124  -0.34544
   D10       -2.85050   0.00460   0.00000  -0.00847  -0.00856  -2.85907
   D11        3.13939  -0.00045   0.00000  -0.00758  -0.00759   3.13180
   D12       -0.01624  -0.00247   0.00000  -0.00995  -0.00994  -0.02618
   D13        1.24580  -0.00271   0.00000  -0.01789  -0.01750   1.22829
   D14       -0.99325  -0.00047   0.00000   0.01184   0.01191  -0.98134
   D15       -2.88281  -0.00195   0.00000  -0.01080  -0.01083  -2.89364
   D16       -2.73376  -0.00107   0.00000  -0.01684  -0.01651  -2.75027
   D17        1.31038   0.00117   0.00000   0.01289   0.01290   1.32328
   D18       -0.57918  -0.00031   0.00000  -0.00975  -0.00984  -0.58902
   D19       -0.76398   0.00012   0.00000  -0.01125  -0.01123  -0.77521
   D20       -3.00303   0.00236   0.00000   0.01848   0.01819  -2.98485
   D21        1.39060   0.00089   0.00000  -0.00415  -0.00456   1.38604
   D22        1.19972   0.00189   0.00000  -0.00285  -0.00282   1.19691
   D23       -1.97772   0.00280   0.00000  -0.00045  -0.00042  -1.97814
   D24       -0.94715  -0.00244   0.00000  -0.00206  -0.00204  -0.94918
   D25        2.15859  -0.00153   0.00000   0.00034   0.00037   2.15896
   D26       -2.54551  -0.00256   0.00000  -0.02013  -0.02019  -2.56570
   D27        0.56022  -0.00164   0.00000  -0.01773  -0.01779   0.54244
   D28        3.05780   0.00184   0.00000   0.01750   0.01747   3.07527
   D29       -0.99155  -0.00324   0.00000  -0.01624  -0.01628  -1.00783
   D30        0.93427   0.00208   0.00000   0.00789   0.00797   0.94223
   D31       -1.12929   0.00267   0.00000   0.01829   0.01826  -1.11104
   D32        1.10455  -0.00241   0.00000  -0.01545  -0.01549   1.08905
   D33        3.03036   0.00291   0.00000   0.00868   0.00876   3.03912
   D34        0.95947   0.00050   0.00000   0.01538   0.01535   0.97482
   D35       -3.08988  -0.00458   0.00000  -0.01835  -0.01840  -3.10828
   D36       -1.16407   0.00074   0.00000   0.00577   0.00585  -1.15822
   D37        3.12047   0.00073   0.00000  -0.00051  -0.00051   3.11997
   D38       -0.02346   0.00009   0.00000  -0.00320  -0.00320  -0.02666
   D39        0.01484  -0.00015   0.00000  -0.00295  -0.00295   0.01190
   D40       -3.12909  -0.00079   0.00000  -0.00564  -0.00564  -3.13473
   D41       -3.12253  -0.00098   0.00000  -0.00012  -0.00012  -3.12265
   D42        0.02592  -0.00066   0.00000  -0.00087  -0.00087   0.02505
   D43       -0.01526  -0.00012   0.00000   0.00217   0.00217  -0.01309
   D44        3.13319   0.00020   0.00000   0.00142   0.00142   3.13461
   D45       -0.00624   0.00024   0.00000   0.00159   0.00159  -0.00465
   D46        3.13390  -0.00005   0.00000   0.00082   0.00082   3.13472
   D47        3.13766   0.00087   0.00000   0.00425   0.00425  -3.14128
   D48       -0.00538   0.00058   0.00000   0.00347   0.00347  -0.00191
   D49       -0.00222  -0.00004   0.00000   0.00060   0.00060  -0.00163
   D50        3.13955  -0.00011   0.00000   0.00033   0.00033   3.13988
   D51        3.14082   0.00025   0.00000   0.00137   0.00137  -3.14099
   D52       -0.00059   0.00018   0.00000   0.00110   0.00110   0.00051
   D53        0.00181  -0.00024   0.00000  -0.00137  -0.00137   0.00044
   D54       -3.13988  -0.00007   0.00000  -0.00019  -0.00019  -3.14007
   D55       -3.13996  -0.00016   0.00000  -0.00110  -0.00110  -3.14106
   D56        0.00153   0.00000   0.00000   0.00008   0.00008   0.00161
   D57        0.00708   0.00031   0.00000  -0.00003  -0.00003   0.00705
   D58       -3.14130  -0.00002   0.00000   0.00069   0.00069  -3.14060
   D59       -3.13441   0.00014   0.00000  -0.00121  -0.00121  -3.13562
   D60        0.00040  -0.00019   0.00000  -0.00049  -0.00049  -0.00009
   D61        3.14141   0.00010   0.00000  -0.00631  -0.00631   3.13510
   D62       -1.07099   0.00119   0.00000  -0.00334  -0.00334  -1.07433
   D63        1.07108  -0.00110   0.00000  -0.00880  -0.00880   1.06228
         Item               Value     Threshold  Converged?
 Maximum Force            0.034335     0.000450     NO 
 RMS     Force            0.005864     0.000300     NO 
 Maximum Displacement     0.104520     0.001800     NO 
 RMS     Displacement     0.029507     0.001200     NO 
 Predicted change in Energy=-5.899094D-03
 GradGradGradGradGradGradGradGradGradGradGradGradGradGradGradGradGradGrad

                          Input orientation:                          
 ---------------------------------------------------------------------
 Center     Atomic      Atomic             Coordinates (Angstroms)
 Number     Number       Type             X           Y           Z
 ---------------------------------------------------------------------
      1          6           0       -0.784257   -0.105993    0.197618
      2          6           0       -2.120163    0.313416    0.667137
      3          8           0       -2.325766    1.216356    1.465343
      4          6           0        0.218268    0.833077    0.265346
      5          6           0       -1.060115    2.990554   -1.315740
      6          1           0       -0.925997    3.608956   -2.211585
      7          1           0       -2.022263    2.472260   -1.386354
      8          1           0       -1.077775    3.640522   -0.434400
      9          7           0        0.026040    2.015452   -1.195712
     10          1           0        0.038500    1.444430   -2.045059
     11          1           0        0.915536    2.524674   -1.231370
     12          6           0        1.673419    0.472605    0.242759
     13          6           0        2.309613   -0.049879   -0.891719
     14          6           0        3.672836   -0.345637   -0.869921
     15          6           0        4.419404   -0.117771    0.284675
     16          6           0        3.800345    0.408228    1.416644
     17          6           0        2.436759    0.705380    1.394156
     18          1           0        1.744067   -0.235422   -1.803313
     19          1           0        4.152022   -0.757130   -1.757024
     20          1           0        5.483171   -0.350305    0.301690
     21          1           0        4.379878    0.589323    2.320700
     22          1           0        1.966440    1.117275    2.287030
     23          1           0       -0.005557    1.692422    0.915079
     24         35           0       -0.557049   -1.860025   -0.452961
     25          8           0       -3.109728   -0.411366    0.090614
     26          6           0       -4.423107   -0.066882    0.508593
     27          1           0       -5.119167   -0.716128   -0.032374
     28          1           0       -4.548000   -0.233060    1.585605
     29          1           0       -4.647717    0.978043    0.262131
 ---------------------------------------------------------------------
[...]
     5   6     0.03  -0.01  -0.09    -0.00  -0.00   0.00    -0.04  -0.09  -0.00
     6   1    -0.14  -0.34   0.60     0.01   0.02  -0.04     0.07   0.16  -0.30
     7   1     0.03   0.03  -0.01     0.03   0.04   0.01     0.54   0.69   0.14
     8   1    -0.29   0.44   0.47     0.00  -0.01  -0.01    -0.13   0.17   0.21
     9   7    -0.00   0.00   0.00    -0.00   0.00   0.00     0.00   0.00  -0.00
    10   1    -0.00  -0.01  -0.01     0.00  -0.01  -0.00    -0.00  -0.02  -0.01
    11   1     0.01   0.01  -0.01     0.00  -0.00  -0.00    -0.01  -0.01   0.01
    12   6    -0.00   0.00   0.00    -0.00   0.00   0.00     0.00   0.00  -0.00
    13   6    -0.00  -0.00  -0.00    -0.02  -0.04  -0.04     0.00   0.00   0.00
    14   6    -0.00   0.00   0.00    -0.02   0.03   0.02     0.00  -0.00  -0.00
    15   6     0.00  -0.00   0.00     0.02  -0.00   0.01    -0.00   0.00  -0.00
    16   6    -0.00  -0.00  -0.00    -0.01  -0.01  -0.01     0.00   0.00   0.00
    17   6    -0.00   0.00   0.00    -0.01   0.01   0.01     0.00  -0.00  -0.00
    18   1     0.01   0.02   0.02     0.29   0.46   0.51    -0.01  -0.01  -0.01
    19   1     0.01  -0.01  -0.01     0.27  -0.38  -0.20    -0.02   0.02   0.01
    20   1    -0.01   0.00  -0.00    -0.28   0.05  -0.10     0.03  -0.01   0.01
    21   1     0.00   0.00   0.01     0.09   0.13   0.16    -0.01  -0.02  -0.02
    22   1     0.00  -0.01  -0.00     0.09  -0.13  -0.07    -0.02   0.02   0.01
    23   1    -0.01   0.03   0.01     0.00  -0.01  -0.00    -0.00   0.01   0.00
    24  35     0.00   0.00  -0.00    -0.00  -0.00   0.00     0.00   0.00  -0.00
    25   8    -0.00  -0.00  -0.00    -0.00   0.00   0.00    -0.00  -0.00   0.00
    26   6     0.00   0.00  -0.00     0.00  -0.00  -0.00     0.00   0.00  -0.00
    27   1    -0.00  -0.00   0.00    -0.00  -0.00   0.00    -0.00  -0.00   0.00
    28   1    -0.00  -0.00  -0.00     0.00   0.00   0.00     0.00   0.00   0.00
    29   1     0.00  -0.00   0.00    -0.00   0.00  -0.00     0.00  -0.00   0.00
                     76                     77                     78
                      A                      A                      A
 Frequencies --   3201.4645              3211.6552              3222.5579
 Red. masses --      1.0893                 1.0926                 1.0963
 Frc consts  --      6.5781                 6.6401                 6.7076
 IR Inten    --      0.0000                 0.0000                 0.0000
  Atom  AN      X      Y      Z        X      Y      Z        X      Y      Z
     1   6     0.00  -0.00   0.00     0.00  -0.00  -0.00     0.00  -0.00   0.00
     2   6    -0.00  -0.00   0.00    -0.00   0.00   0.00     0.00  -0.00  -0.00
     3   8     0.00   0.00  -0.00    -0.00  -0.00   0.00     0.00   0.00   0.00
     4   6     0.00  -0.00  -0.00    -0.00   0.00   0.00     0.00  -0.00  -0.00
     5   6     0.00   0.00   0.00     0.00   0.00   0.00     0.00   0.00   0.00
     6   1    -0.00  -0.00   0.01     0.00   0.00  -0.00     0.00   0.00  -0.00
     7   1    -0.02  -0.03  -0.01    -0.00  -0.01  -0.00    -0.00  -0.00  -0.00
     8   1     0.01  -0.01  -0.01     0.00  -0.00  -0.01     0.00  -0.00  -0.00
     9   7    -0.00   0.00   0.00    -0.00   0.00   0.00    -0.00   0.00   0.00
    10   1     0.00  -0.01   0.00     0.00  -0.01  -0.00     0.00  -0.01  -0.00
    11   1     0.00  -0.00  -0.00     0.00  -0.00  -0.00     0.00  -0.00  -0.00
    12   6     0.00   0.00   0.00    -0.00   0.00  -0.00    -0.00   0.00   0.00
    13   6    -0.01  -0.02  -0.02    -0.01  -0.02  -0.02    -0.01  -0.01  -0.02
    14   6    -0.00   0.00   0.00     0.02  -0.02  -0.01     0.03  -0.04  -0.02
    15   6    -0.02   0.00  -0.01    -0.05   0.01  -0.02     0.01   0.00   0.01
    16   6     0.02   0.03   0.03     0.01   0.00   0.01    -0.02  -0.03  -0.04
    17   6     0.03  -0.04  -0.02    -0.03   0.04   0.02     0.02  -0.03  -0.01
    18   1     0.15   0.24   0.26     0.16   0.25   0.28     0.12   0.18   0.20
    19   1     0.03  -0.04  -0.02    -0.19   0.27   0.13    -0.33   0.47   0.24
    20   1     0.25  -0.04   0.09     0.59  -0.10   0.21    -0.08   0.01  -0.03
    21   1    -0.20  -0.32  -0.38    -0.05  -0.07  -0.08     0.23   0.35   0.43
    22   1    -0.37   0.51   0.27     0.29  -0.40  -0.21    -0.21   0.29   0.15
    23   1    -0.01   0.04   0.01     0.01  -0.03  -0.00    -0.00   0.02   0.00
    24  35    -0.00   0.00   0.00    -0.00  -0.00   0.00    -0.00   0.00   0.00
    25   8     0.00   0.00  -0.00     0.00   0.00  -0.00    -0.00   0.00   0.00
    26   6    -0.00  -0.00  -0.00     0.00   0.00  -0.00    -0.00  -0.00  -0.00
    27   1     0.00   0.00  -0.00    -0.00  -0.00   0.00     0.00   0.00  -0.00
    28   1     0.00   0.00   0.00     0.00  -0.00  -0.00     0.00   0.00   0.00
    29   1    -0.00   0.00  -0.00    -0.00   0.00  -0.00    -0.00  -0.00   0.00
                     79                     80                     81
                      A                      A                      A
 Frequencies --   3234.5650              3483.8820              3556.2427
 Red. masses --      1.0996                 1.0550                 1.0956
 Frc consts  --      6.7782                 7.5445                 8.1634
 IR Inten    --      0.0000                 0.0000                 0.0000
  Atom  AN      X      Y      Z        X      Y      Z        X      Y      Z
     1   6    -0.00   0.00   0.00    -0.00   0.00   0.00    -0.00   0.00   0.00
     2   6     0.00  -0.00  -0.00     0.00  -0.00  -0.00     0.00  -0.00  -0.00
     3   8    -0.00   0.00   0.00     0.00  -0.00   0.00     0.00   0.00   0.00
     4   6     0.00  -0.00   0.00     0.00  -0.00  -0.00     0.00  -0.00  -0.00
     5   6     0.00  -0.00   0.00    -0.00  -0.00  -0.00    -0.00  -0.00   0.00
     6   1     0.00   0.00  -0.00    -0.00  -0.00   0.01     0.00   0.01  -0.01
     7   1     0.00   0.00   0.00    -0.00   0.01  -0.00     0.01   0.01   0.00
     8   1    -0.00   0.00   0.00    -0.01   0.01   0.01    -0.00   0.00   0.00
     9   7    -0.00  -0.00  -0.00     0.04  -0.04  -0.03    -0.04  -0.07   0.01
    10   1    -0.00   0.00   0.00    -0.05   0.79   0.15    -0.05   0.57   0.12
    11   1     0.00   0.00   0.00    -0.47  -0.27   0.23     0.64   0.37  -0.32
    12   6     0.00  -0.00   0.00    -0.00   0.00   0.00     0.00   0.00  -0.00
    13   6     0.01   0.01   0.01    -0.00  -0.00  -0.00    -0.00  -0.00  -0.00
    14   6    -0.02   0.03   0.02    -0.00  -0.00  -0.00     0.00  -0.00  -0.00
    15   6    -0.06   0.01  -0.02     0.00   0.00   0.00    -0.00  -0.00  -0.00
    16   6    -0.02  -0.03  -0.03     0.00  -0.00  -0.00    -0.00   0.00   0.00
    17   6     0.01  -0.01  -0.01     0.00  -0.00  -0.00     0.00   0.00   0.00
    18   1    -0.07  -0.10  -0.12     0.01   0.01   0.01     0.01   0.00   0.01
    19   1     0.25  -0.36  -0.18     0.00  -0.00  -0.00    -0.00   0.00   0.00
    20   1     0.60  -0.11   0.21     0.00  -0.00   0.00    -0.00  -0.00  -0.00
    21   1     0.20   0.31   0.38     0.00   0.00   0.00    -0.00  -0.00  -0.00
    22   1    -0.12   0.16   0.08    -0.00   0.00   0.00     0.00  -0.00  -0.00
    23   1    -0.00   0.01   0.00    -0.00   0.01   0.01    -0.00   0.01   0.00
    24  35     0.00  -0.00  -0.00     0.00  -0.00  -0.00     0.00   0.00  -0.00
    25   8    -0.00  -0.00   0.00    -0.00  -0.00   0.00    -0.00  -0.00   0.00
    26   6     0.00   0.00  -0.00     0.00   0.00  -0.00     0.00   0.00  -0.00
    27   1    -0.00  -0.00   0.00    -0.00  -0.00   0.00    -0.00  -0.00   0.00
    28   1     0.00   0.00   0.00     0.00   0.00   0.00    -0.00  -0.00  -0.00
    29   1    -0.00   0.00  -0.00     0.00  -0.00   0.00     0.00  -0.00   0.00

 -------------------
 - Thermochemistry -
 -------------------
 Temperature   298.150 Kelvin.  Pressure   1.00000 Atm.
 Atom     1 has atomic number  6 and mass  12.00000
 Atom     2 has atomic number  6 and mass  12.00000
 Atom     3 has atomic number  8 and mass  15.99491
 Atom     4 has atomic number  6 and mass  12.00000
 Atom     5 has atomic number  6 and mass  12.00000
 Atom     6 has atomic number  1 and mass   1.00783
 Atom     7 has atomic number  1 and mass   1.00783
 Atom     8 has atomic number  1 and mass   1.00783
 Atom     9 has atomic number  7 and mass  14.00307
 Atom    10 has atomic number  1 and mass   1.00783
 Atom    11 has atomic number  1 and mass   1.00783
 Atom    12 has atomic number  6 and mass  12.00000
 Atom    13 has atomic number  6 and mass  12.00000
 Atom    14 has atomic number  6 and mass  12.00000
 Atom    15 has atomic number  6 and mass  12.00000
 Atom    16 has atomic number  6 and mass  12.00000
 Atom    17 has atomic number  6 and mass  12.00000
 Atom    18 has atomic number  1 and mass   1.00783
 Atom    19 has atomic number  1 and mass   1.00783
 Atom    20 has atomic number  1 and mass   1.00783
 Atom    21 has atomic number  1 and mass   1.00783
 Atom    22 has atomic number  1 and mass   1.00783
 Atom    23 has atomic number  1 and mass   1.00783
 Atom    24 has atomic number 35 and mass  78.91834
 Atom    25 has atomic number  8 and mass  15.99491
 Atom    26 has atomic number  6 and mass  12.00000
 Atom    27 has atomic number  1 and mass   1.00783
 Atom    28 has atomic number  1 and mass   1.00783
 Atom    29 has atomic number  1 and mass   1.00783
 Molecular mass:   271.02079 amu.
 Principal axes and moments of inertia in atomic units:
                           1         2         3
     Eigenvalues --  2609.186826016.906366586.89811
           X            0.99972  -0.02364   0.00094
           Y            0.02366   0.99961  -0.01506
           Z           -0.00059   0.01507   0.99989
 This molecule is an asymmetric top.
 Rotational symmetry number  1.
 Warning -- assumption of classical behavior for rotation
           may cause significant error
 Rotational temperatures (Kelvin)      0.03320     0.01440     0.01315
 Rotational constants (GHZ):           0.69169     0.29995     0.27399
 Zero-point vibrational energy     664321.8 (Joules/Mol)
                                  158.77673 (Kcal/Mol)
 Warning -- explicit consideration of  20 degrees of freedom as
           vibrations may cause significant error
 Vibrational temperatures:     85.99   118.14   144.81   170.34   209.06
          (Kelvin)            233.97   264.89   300.89   314.19   363.72
                              418.53   484.02   498.08   518.45   577.20
                              623.02   638.50   684.48   687.50   751.40
                              941.70   954.42   983.56  1044.53  1149.38
                             1164.76  1246.31  1302.65  1326.69  1454.31
                             1465.13  1516.95  1543.46  1561.61  1569.16
                             1619.53  1642.73  1669.34  1686.02  1705.70
                             1732.00  1821.32  1838.18  1882.75  1903.55
                             1916.78  1924.06  1961.20  1970.47  2067.97
                             2144.87  2148.31  2181.20  2202.71  2265.58
                             2333.51  2364.71  2369.49  2382.63  2392.23
                             2411.01  2411.81  2415.62  2487.32  2533.16
                             2579.88  2646.89  4423.23  4468.31  4493.63
                             4511.18  4545.67  4585.86  4597.44  4602.90
                             4606.19  4620.86  4636.54  4653.82  5012.53
                             5116.64
 
 Zero-point correction=                           0.253027 (Hartree/Particle)
 Thermal correction to Energy=                    0.266604
 Thermal correction to Enthalpy=                  0.267548
 Thermal correction to Gibbs Free Energy=         0.212086
 Sum of electronic and zero-point Energies=          -3205.735661
 Sum of electronic and thermal Energies=             -3205.722084
 Sum of electronic and thermal Enthalpies=           -3205.721140
 Sum of electronic and thermal Free Energies=        -3205.776603
 
                     E (Thermal)             CV                S
                      KCal/Mol        Cal/Mol-Kelvin    Cal/Mol-Kelvin
 Total                  167.297             50.880            116.731
 Electronic               0.000              0.000              0.000
 Translational            0.889              2.981             42.690
 Rotational               0.889              2.981             33.003
 Vibrational            165.519             44.919             41.039
 Vibration     1          0.597              1.973              4.465
 Vibration     2          0.600              1.961              3.840
 Vibration     3          0.604              1.949              3.442
 Vibration     4          0.609              1.934              3.126
 Vibration     5          0.617              1.908              2.733
 Vibration     6          0.623              1.888              2.519
 Vibration     7          0.631              1.861              2.286
 Vibration     8          0.642              1.827              2.051
 Vibration     9          0.646              1.813              1.973
 Vibration    10          0.664              1.758              1.711
 Vibration    11          0.687              1.691              1.469
 Vibration    12          0.717              1.603              1.229
 Vibration    13          0.724              1.583              1.184
 Vibration    14          0.735              1.554              1.121
 Vibration    15          0.767              1.468              0.958
 Vibration    16          0.794              1.398              0.849
 Vibration    17          0.803              1.375              0.815
 Vibration    18          0.832              1.304              0.722
 Vibration    19          0.834              1.299              0.716
 Vibration    20          0.877              1.201              0.605
                       Q            Log10(Q)             Ln(Q)
 Total Bot       0.280196D-97        -97.552538       -224.623020
 Total V=0       0.678604D+19         18.831616         43.361399
 Vib (Bot)       0.438913-112       -112.357621       -258.712984
 Vib (Bot)    1  0.345520D+01          0.538473          1.239879
 Vib (Bot)    2  0.250731D+01          0.399207          0.919209
 Vib (Bot)    3  0.203888D+01          0.309391          0.712398
 Vib (Bot)    4  0.172676D+01          0.237231          0.546245
 Vib (Bot)    5  0.139733D+01          0.145299          0.334564
 Vib (Bot)    6  0.124216D+01          0.094179          0.216855
 Vib (Bot)    7  0.108938D+01          0.037179          0.085609
 Vib (Bot)    8  0.950076D+00         -0.022242         -0.051213
 Vib (Bot)    9  0.906417D+00         -0.042672         -0.098256
 Vib (Bot)   10  0.771006D+00         -0.112942         -0.260060
 Vib (Bot)   11  0.657074D+00         -0.182386         -0.419959
 Vib (Bot)   12  0.553203D+00         -0.257115         -0.592029
 Vib (Bot)   13  0.534274D+00         -0.272236         -0.626847
 Vib (Bot)   14  0.508546D+00         -0.293670         -0.676199
 Vib (Bot)   15  0.443909D+00         -0.352706         -0.812136
 Vib (Bot)   16  0.401433D+00         -0.396387         -0.912714
 Vib (Bot)   17  0.388368D+00         -0.410756         -0.945801
 Vib (Bot)   18  0.352835D+00         -0.452429         -1.041756
 Vib (Bot)   19  0.350659D+00         -0.455115         -1.047941
 Vib (Bot)   20  0.308438D+00         -0.510832         -1.176233
 Vib (V=0)       0.106300D+05          4.026533          9.271435
 Vib (V=0)    1  0.399119D+01          0.601102          1.384088
 Vib (V=0)    2  0.305667D+01          0.485249          1.117327
 Vib (V=0)    3  0.259929D+01          0.414854          0.955238
 Vib (V=0)    4  0.229769D+01          0.361292          0.831905
 Vib (V=0)    5  0.198409D+01          0.297562          0.685162
 Vib (V=0)    6  0.183902D+01          0.264586          0.609232
 Vib (V=0)    7  0.169864D+01          0.230103          0.529831
 Vib (V=0)    8  0.157361D+01          0.196898          0.453374
 Vib (V=0)    9  0.153518D+01          0.186158          0.428646
 Vib (V=0)   10  0.141894D+01          0.151964          0.349910
 Vib (V=0)   11  0.132568D+01          0.122438          0.281925
 Vib (V=0)   12  0.124568D+01          0.095405          0.219679
 Vib (V=0)   13  0.123174D+01          0.090520          0.208430
 Vib (V=0)   14  0.121318D+01          0.083924          0.193241
 Vib (V=0)   15  0.116862D+01          0.067674          0.155825
 Vib (V=0)   16  0.114121D+01          0.057365          0.132088
 Vib (V=0)   17  0.113311D+01          0.054273          0.124967
 Vib (V=0)   18  0.111196D+01          0.046088          0.106122
 Vib (V=0)   19  0.111071D+01          0.045599          0.104996
 Vib (V=0)   20  0.108748D+01          0.036422          0.083864
 Electronic      0.100000D+01          0.000000          0.000000
 Translational   0.175371D+09          8.243958         18.982414
 Rotational      0.364020D+07          6.561125         15.107549
 ***** Axes restored to original set *****
 -------------------------------------------------------------------
 Center     Atomic                   Forces (Hartrees/Bohr)
 Number     Number              X              Y              Z
 -------------------------------------------------------------------
      1        6          -0.000260568    0.000382655   -0.000400924
      2        6           0.000032493   -0.000059200    0.000115914
      3        8          -0.000012995    0.000008268   -0.000021637
      4        6          -0.000173885   -0.000510294   -0.000025480
      5        6          -0.000023816   -0.000080985   -0.000106331
      6        1          -0.000049734   -0.000186347   -0.000498933
      7        1          -0.000207922   -0.000268700    0.000421968
      8        1           0.000243615    0.000420505    0.000101411
      9        7          -0.000185182   -0.000169877   -0.000142505
     10        1           0.000530085    0.000485412   -0.000338734
     11        1          -0.000143108    0.000228513    0.000778929
     12        6          -0.000049020   -0.000164899   -0.000134127
     13        6          -0.000040670   -0.000125252    0.000023133
     14        6          -0.000000075    0.000001096    0.000004552
     15        6           0.000001852    0.000005207   -0.000000413
     16        6           0.000003548    0.000012945    0.000001898
     17        6           0.000062748    0.000171023   -0.000025883
     18        1          -0.000009919   -0.000018760    0.000003354
     19        1           0.000002714    0.000002946    0.000001708
     20        1          -0.000000008    0.000000698    0.000002151
     21        1          -0.000002193   -0.000000256    0.000001855
     22        1           0.000001602    0.000003864    0.000000591
     23        1           0.000206148   -0.000027600    0.000086015
     24       35           0.000063090   -0.000102794    0.000128567
     25        8           0.000016003   -0.000016339    0.000029692
     26        6          -0.000003037    0.000004601   -0.000003661
     27        1           0.000005799   -0.000007916    0.000012246
     28        1           0.000001509    0.000020716   -0.000000045
     29        1          -0.000009071   -0.000009228   -0.000015310
 -------------------------------------------------------------------
 Cartesian Forces:  Max     0.000778929 RMS     0.000189012


 IT IS UNWORTHY OF EXCELLENT MEN TO LOSE HOURS LIKE SLAVES IN THE LABOR
 OF CALCULATION WHICH COULD BE SAFELY RELEGATED TO ANYONE ELSE
 IF A MACHINE WERE USED.
    -- G.W. VON LEIBNIZ
 Error termination request processed by link 9999.
 Error termination via Lnk1e in /apps/gaussian/g16/C.01/g16/l9999.exe at Wed Jan 17 01:04:12 2024.
 Job cpu time:       0 days 13 hours 17 minutes 53.7 seconds.
 Elapsed time:       0 days  2 hours 14 minutes  2.3 seconds.
 File lengths (MBytes):  RWF=      6 Int=      0 D2E=      0 Chk=      2 Scr=      1
