Unloading slurm/anatra/current
  ERROR: No such file or directory on
    '/cm/local/modulefiles/slurm/anatra/current'
environment: line 0: unalias: gv: not found
environment: line 0: unalias: sl: not found
 Entering Gaussian System, Link 0=g16
 Initial command:
 /apps/gaussian/g16/C.01/g16/l1.exe "/local/jobs/1157672/Gau-609036.inp" -scrdir="/local/jobs/1157672/"
 Entering Link 1 = /apps/gaussian/g16/C.01/g16/l1.exe PID=    609039.
  
 Copyright (c) 1988-2019, Gaussian, Inc.  All Rights Reserved.
  
 This is part of the Gaussian(R) 16 program.  It is based on
 the Gaussian(R) 09 system (copyright 2009, Gaussian, Inc.),
 the Gaussian(R) 03 system (copyright 2003, Gaussian, Inc.),
 the Gaussian(R) 98 system (copyright 1998, Gaussian, Inc.),
 the Gaussian(R) 94 system (copyright 1995, Gaussian, Inc.),
 the Gaussian 92(TM) system (copyright 1992, Gaussian, Inc.),
 the Gaussian 90(TM) system (copyright 1990, Gaussian, Inc.),
 the Gaussian 88(TM) system (copyright 1988, Gaussian, Inc.),
 the Gaussian 86(TM) system (copyright 1986, Carnegie Mellon
 University), and the Gaussian 82(TM) system (copyright 1983,
 Carnegie Mellon University). Gaussian is a federally registered
 trademark of Gaussian, Inc.
  
 This software contains proprietary and confidential information,
 including trade secrets, belonging to Gaussian, Inc.
  
 This software is provided under written license and may be
 used, copied, transmitted, or stored only in accord with that
 written license.
  
 The following legend is applicable only to US Government
 contracts under FAR:
  
                    RESTRICTED RIGHTS LEGEND
  
 Use, reproduction and disclosure by the US Government is
 subject to restrictions as set forth in subparagraphs (a)
 and (c) of the Commercial Computer Software - Restricted
 Rights clause in FAR 52.227-19.
  
 Gaussian, Inc.
 340 Quinnipiac St., Bldg. 40, Wallingford CT 06492
  
  
 ---------------------------------------------------------------
 Warning -- This program may not be used in any manner that
 competes with the business of Gaussian, Inc. or will provide
 assistance to any competitor of Gaussian, Inc.  The licensee
 of this program is prohibited from giving any competitor of
 Gaussian, Inc. access to this program.  By using this program,
 the user acknowledges that Gaussian, Inc. is engaged in the
 business of creating and licensing software in the field of
 computational chemistry and represents and warrants to the
 licensee that it is not a competitor of Gaussian, Inc. and that
 it will not use this program in any manner prohibited above.
 ---------------------------------------------------------------
  

 Cite this work as:
 Gaussian 16, Revision C.01,
 M. J. Frisch, G. W. Trucks, H. B. Schlegel, G. E. Scuseria, 
 M. A. Robb, J. R. Cheeseman, G. Scalmani, V. Barone, 
 G. A. Petersson, H. Nakatsuji, X. Li, M. Caricato, A. V. Marenich, 
 J. Bloino, B. G. Janesko, R. Gomperts, B. Mennucci, H. P. Hratchian, 
 J. V. Ortiz, A. F. Izmaylov, J. L. Sonnenberg, D. Williams-Young, 
 F. Ding, F. Lipparini, F. Egidi, J. Goings, B. Peng, A. Petrone, 
 T. Henderson, D. Ranasinghe, V. G. Zakrzewski, J. Gao, N. Rega, 
 G. Zheng, W. Liang, M. Hada, M. Ehara, K. Toyota, R. Fukuda, 
 J. Hasegawa, M. Ishida, T. Nakajima, Y. Honda, O. Kitao, H. Nakai, 
 T. Vreven, K. Throssell, J. A. Montgomery, Jr., J. E. Peralta, 
 F. Ogliaro, M. J. Bearpark, J. J. Heyd, E. N. Brothers, K. N. Kudin, 
 V. N. Staroverov, T. A. Keith, R. Kobayashi, J. Normand, 
 K. Raghavachari, A. P. Rendell, J. C. Burant, S. S. Iyengar, 
 J. Tomasi, M. Cossi, J. M. Millam, M. Klene, C. Adamo, R. Cammi, 
 J. W. Ochterski, R. L. Martin, K. Morokuma, O. Farkas, 
 J. B. Foresman, and D. J. Fox, Gaussian, Inc., Wallingford CT, 2019.
 
 ******************************************
 Gaussian 16:  ES64L-G16RevC.01  3-Jul-2019
                16-Jan-2024 
 ******************************************
 %nprocshared=12
 Will use up to   12 processors via shared memory.
 %mem=48GB
 ----------------------------------------------------------------------
 # external="~/scripts/MiMe -H 'hf 6-31g(d)' -EF 'wb97xd def2svp' -c 12
  -m 48GB" opt=(calcall,ts,noeigen,maxcycles=50,maxstep=10,nomicro)
 ----------------------------------------------------------------------
 1/5=1,6=50,8=10,10=4,11=1,18=20,26=1,38=1/1,3;
 2/9=110,12=2,17=6,18=5,40=1/2;
 3/11=9,25=1,30=1,41=9900000,43=2,71=2,140=1/1;
 4/20=17,22=2,24=3,113=1,114=1/2;
 6/7=2,8=2,9=2,10=2,18=1/1;
 7/25=1,44=-1/16;
 1/5=1,6=50,8=10,10=4,11=1,18=20,26=1/3(3);
 2/9=110/2;
 7/8=1,9=1,25=1,44=-1/16;
 99//99;
 2/9=110/2;
 3/11=9,25=1,30=1,41=9900000,43=2,71=2,140=1/1;
 4/16=2,20=17,22=2,24=3,113=1,114=1/2;
 7/25=1,44=-1/16;
 1/5=1,6=50,8=10,10=4,11=1,18=20,26=1/3(-4);
 2/9=110/2;
 6/7=2,8=2,9=2,10=2,18=1/1;
 7/8=1,9=1,25=1,44=-1/16;
 99//99;
 ----------
 TS-898.out
 ----------
 Symbolic Z-matrix:
 Charge =  0 Multiplicity = 1
 C                    -0.46944  -0.70158  -0.3157 
 C                    -1.80325  -0.37883   0.26459 
 O                    -2.1666   -0.88981   1.32245 
 C                     0.64063  -0.22369   0.32388 
 C                     0.48216   2.80238  -0.36191 
 H                     1.0592    3.479    -0.99873 
 H                    -0.56866   2.85168  -0.65767 
 H                     0.56954   3.13654   0.67555 
 N                     0.98232   1.42813  -0.49487 
 H                     0.9747    1.21586  -1.4994 
 H                     1.99051   1.47348  -0.28996 
 Cl                    2.20424  -1.06498  -0.03906 
 C                     0.5992    0.23794   1.78923 
 H                    -0.22197   0.93682   1.97915 
 H                     0.48467  -0.62723   2.45151 
 H                     1.52984   0.74582   2.06821 
 C                    -0.50617  -1.49801  -1.58355 
 H                     0.43652  -1.45603  -2.13643 
 H                    -0.72787  -2.54679  -1.36119 
 H                    -1.27943  -1.12504  -2.26314 
 C                    -2.69529   0.55705  -0.50643 
 H                    -3.55857   0.003    -0.88378 
 H                    -3.02491   1.36267   0.15514 
 H                    -2.16599   1.00486  -1.35156 
 
 Add virtual bond connecting atoms N9         and C4         Dist= 3.54D+00.

 GradGradGradGradGradGradGradGradGradGradGradGradGradGradGradGradGradGrad
 Berny optimization.
 Initialization pass.
                           ----------------------------
                           !    Initial Parameters    !
                           ! (Angstroms and Degrees)  !
 --------------------------                            --------------------------
 ! Name  Definition              Value          Derivative Info.                !
 --------------------------------------------------------------------------------
 ! R1    R(1,2)                  1.49           calculate D2E/DX2 analytically  !
 ! R2    R(1,4)                  1.3674         calculate D2E/DX2 analytically  !
 ! R3    R(1,17)                 1.4977         calculate D2E/DX2 analytically  !
 ! R4    R(2,3)                  1.2297         calculate D2E/DX2 analytically  !
 ! R5    R(2,21)                 1.5053         calculate D2E/DX2 analytically  !
 ! R6    R(4,9)                  1.875          calculate D2E/DX2 analytically  !
 ! R7    R(4,12)                 1.8123         calculate D2E/DX2 analytically  !
 ! R8    R(4,13)                 1.5369         calculate D2E/DX2 analytically  !
 ! R9    R(5,6)                  1.0938         calculate D2E/DX2 analytically  !
 ! R10   R(5,7)                  1.0928         calculate D2E/DX2 analytically  !
 ! R11   R(5,8)                  1.0934         calculate D2E/DX2 analytically  !
 ! R12   R(5,9)                  1.4685         calculate D2E/DX2 analytically  !
 ! R13   R(9,10)                 1.0267         calculate D2E/DX2 analytically  !
 ! R14   R(9,11)                 1.0298         calculate D2E/DX2 analytically  !
 ! R15   R(13,14)                1.0949         calculate D2E/DX2 analytically  !
 ! R16   R(13,15)                1.0956         calculate D2E/DX2 analytically  !
 ! R17   R(13,16)                1.0963         calculate D2E/DX2 analytically  !
 ! R18   R(17,18)                1.0937         calculate D2E/DX2 analytically  !
 ! R19   R(17,19)                1.0948         calculate D2E/DX2 analytically  !
 ! R20   R(17,20)                1.0949         calculate D2E/DX2 analytically  !
 ! R21   R(21,22)                1.093          calculate D2E/DX2 analytically  !
 ! R22   R(21,23)                1.0933         calculate D2E/DX2 analytically  !
 ! R23   R(21,24)                1.0931         calculate D2E/DX2 analytically  !
 ! A1    A(2,1,4)              117.9612         calculate D2E/DX2 analytically  !
 ! A2    A(2,1,17)             115.0201         calculate D2E/DX2 analytically  !
 ! A3    A(4,1,17)             126.9934         calculate D2E/DX2 analytically  !
 ! A4    A(1,2,3)              120.6333         calculate D2E/DX2 analytically  !
 ! A5    A(1,2,21)             117.7536         calculate D2E/DX2 analytically  !
 ! A6    A(3,2,21)             121.5909         calculate D2E/DX2 analytically  !
 ! A7    A(1,4,9)              104.5717         calculate D2E/DX2 analytically  !
 ! A8    A(1,4,12)             116.3925         calculate D2E/DX2 analytically  !
 ! A9    A(1,4,13)             121.942          calculate D2E/DX2 analytically  !
 ! A10   A(9,4,12)              99.4555         calculate D2E/DX2 analytically  !
 ! A11   A(9,4,13)              99.0118         calculate D2E/DX2 analytically  !
 ! A12   A(12,4,13)            110.7098         calculate D2E/DX2 analytically  !
 ! A13   A(6,5,7)              108.7737         calculate D2E/DX2 analytically  !
 ! A14   A(6,5,8)              108.7359         calculate D2E/DX2 analytically  !
 ! A15   A(6,5,9)              110.2743         calculate D2E/DX2 analytically  !
 ! A16   A(7,5,8)              108.6541         calculate D2E/DX2 analytically  !
 ! A17   A(7,5,9)              110.1965         calculate D2E/DX2 analytically  !
 ! A18   A(8,5,9)              110.1625         calculate D2E/DX2 analytically  !
 ! A19   A(4,9,5)              136.2896         calculate D2E/DX2 analytically  !
 ! A20   A(4,9,10)             104.1071         calculate D2E/DX2 analytically  !
 ! A21   A(4,9,11)              97.488          calculate D2E/DX2 analytically  !
 ! A22   A(5,9,10)             106.2324         calculate D2E/DX2 analytically  !
 ! A23   A(5,9,11)             105.9157         calculate D2E/DX2 analytically  !
 ! A24   A(10,9,11)            102.1836         calculate D2E/DX2 analytically  !
 ! A25   A(4,13,14)            112.1679         calculate D2E/DX2 analytically  !
 ! A26   A(4,13,15)            109.998          calculate D2E/DX2 analytically  !
 ! A27   A(4,13,16)            111.0323         calculate D2E/DX2 analytically  !
 ! A28   A(14,13,15)           108.7118         calculate D2E/DX2 analytically  !
 ! A29   A(14,13,16)           107.2666         calculate D2E/DX2 analytically  !
 ! A30   A(15,13,16)           107.5031         calculate D2E/DX2 analytically  !
 ! A31   A(1,17,18)            112.7305         calculate D2E/DX2 analytically  !
 ! A32   A(1,17,19)            110.0265         calculate D2E/DX2 analytically  !
 ! A33   A(1,17,20)            111.1983         calculate D2E/DX2 analytically  !
 ! A34   A(18,17,19)           108.3006         calculate D2E/DX2 analytically  !
 ! A35   A(18,17,20)           106.3728         calculate D2E/DX2 analytically  !
 ! A36   A(19,17,20)           108.0213         calculate D2E/DX2 analytically  !
 ! A37   A(2,21,22)            109.2519         calculate D2E/DX2 analytically  !
 ! A38   A(2,21,23)            109.0768         calculate D2E/DX2 analytically  !
 ! A39   A(2,21,24)            111.3301         calculate D2E/DX2 analytically  !
 ! A40   A(22,21,23)           110.1396         calculate D2E/DX2 analytically  !
 ! A41   A(22,21,24)           108.8556         calculate D2E/DX2 analytically  !
 ! A42   A(23,21,24)           108.1763         calculate D2E/DX2 analytically  !
 ! D1    D(4,1,2,3)            -70.3005         calculate D2E/DX2 analytically  !
 ! D2    D(4,1,2,21)           111.3855         calculate D2E/DX2 analytically  !
 ! D3    D(17,1,2,3)           111.4016         calculate D2E/DX2 analytically  !
 ! D4    D(17,1,2,21)          -66.9123         calculate D2E/DX2 analytically  !
 ! D5    D(2,1,4,9)            -91.6361         calculate D2E/DX2 analytically  !
 ! D6    D(2,1,4,12)           159.7922         calculate D2E/DX2 analytically  !
 ! D7    D(2,1,4,13)            19.0221         calculate D2E/DX2 analytically  !
 ! D8    D(17,1,4,9)            86.4327         calculate D2E/DX2 analytically  !
 ! D9    D(17,1,4,12)          -22.1391         calculate D2E/DX2 analytically  !
 ! D10   D(17,1,4,13)         -162.9091         calculate D2E/DX2 analytically  !
 ! D11   D(2,1,17,18)          162.4272         calculate D2E/DX2 analytically  !
 ! D12   D(2,1,17,19)          -76.5718         calculate D2E/DX2 analytically  !
 ! D13   D(2,1,17,20)           43.0679         calculate D2E/DX2 analytically  !
 ! D14   D(4,1,17,18)          -15.6904         calculate D2E/DX2 analytically  !
 ! D15   D(4,1,17,19)          105.3106         calculate D2E/DX2 analytically  !
 ! D16   D(4,1,17,20)         -135.0496         calculate D2E/DX2 analytically  !
 ! D17   D(1,2,21,22)          111.7252         calculate D2E/DX2 analytically  !
 ! D18   D(1,2,21,23)         -127.832          calculate D2E/DX2 analytically  !
 ! D19   D(1,2,21,24)           -8.532          calculate D2E/DX2 analytically  !
 ! D20   D(3,2,21,22)          -66.5717         calculate D2E/DX2 analytically  !
 ! D21   D(3,2,21,23)           53.8711         calculate D2E/DX2 analytically  !
 ! D22   D(3,2,21,24)          173.1712         calculate D2E/DX2 analytically  !
 ! D23   D(1,4,9,5)             82.3572         calculate D2E/DX2 analytically  !
 ! D24   D(1,4,9,10)           -50.486          calculate D2E/DX2 analytically  !
 ! D25   D(1,4,9,11)          -155.1123         calculate D2E/DX2 analytically  !
 ! D26   D(12,4,9,5)          -157.0514         calculate D2E/DX2 analytically  !
 ! D27   D(12,4,9,10)           70.1054         calculate D2E/DX2 analytically  !
 ! D28   D(12,4,9,11)          -34.5209         calculate D2E/DX2 analytically  !
 ! D29   D(13,4,9,5)           -44.1342         calculate D2E/DX2 analytically  !
 ! D30   D(13,4,9,10)         -176.9775         calculate D2E/DX2 analytically  !
 ! D31   D(13,4,9,11)           78.3962         calculate D2E/DX2 analytically  !
 ! D32   D(1,4,13,14)          -50.0825         calculate D2E/DX2 analytically  !
 ! D33   D(1,4,13,15)           71.0434         calculate D2E/DX2 analytically  !
 ! D34   D(1,4,13,16)         -170.0859         calculate D2E/DX2 analytically  !
 ! D35   D(9,4,13,14)           63.4373         calculate D2E/DX2 analytically  !
 ! D36   D(9,4,13,15)         -175.4367         calculate D2E/DX2 analytically  !
 ! D37   D(9,4,13,16)          -56.566          calculate D2E/DX2 analytically  !
 ! D38   D(12,4,13,14)         167.1932         calculate D2E/DX2 analytically  !
 ! D39   D(12,4,13,15)         -71.6809         calculate D2E/DX2 analytically  !
 ! D40   D(12,4,13,16)          47.1898         calculate D2E/DX2 analytically  !
 ! D41   D(6,5,9,4)            174.2025         calculate D2E/DX2 analytically  !
 ! D42   D(6,5,9,10)           -53.5824         calculate D2E/DX2 analytically  !
 ! D43   D(6,5,9,11)            54.5726         calculate D2E/DX2 analytically  !
 ! D44   D(7,5,9,4)            -65.7013         calculate D2E/DX2 analytically  !
 ! D45   D(7,5,9,10)            66.5137         calculate D2E/DX2 analytically  !
 ! D46   D(7,5,9,11)           174.6688         calculate D2E/DX2 analytically  !
 ! D47   D(8,5,9,4)             54.1752         calculate D2E/DX2 analytically  !
 ! D48   D(8,5,9,10)          -173.6098         calculate D2E/DX2 analytically  !
 ! D49   D(8,5,9,11)           -65.4548         calculate D2E/DX2 analytically  !
 --------------------------------------------------------------------------------
 Trust Radius=1.00D-01 FncErr=1.00D-07 GrdErr=1.00D-07 EigMax=2.50D+02 EigMin=1.00D-04
 Number of steps in this run=     50 maximum allowed number of steps=    144.
 Search for a saddle point of order  1.
 GradGradGradGradGradGradGradGradGradGradGradGradGradGradGradGradGradGrad

                          Input orientation:                          
 ---------------------------------------------------------------------
 Center     Atomic      Atomic             Coordinates (Angstroms)
 Number     Number       Type             X           Y           Z
 ---------------------------------------------------------------------
      1          6           0       -0.469440   -0.701580   -0.315700
      2          6           0       -1.803250   -0.378830    0.264590
      3          8           0       -2.166600   -0.889810    1.322450
      4          6           0        0.640630   -0.223690    0.323880
      5          6           0        0.482160    2.802380   -0.361910
      6          1           0        1.059200    3.479000   -0.998730
      7          1           0       -0.568660    2.851680   -0.657670
      8          1           0        0.569540    3.136540    0.675550
      9          7           0        0.982320    1.428130   -0.494870
     10          1           0        0.974700    1.215860   -1.499400
     11          1           0        1.990510    1.473480   -0.289960
     12         17           0        2.204240   -1.064980   -0.039060
     13          6           0        0.599200    0.237940    1.789230
     14          1           0       -0.221970    0.936820    1.979150
     15          1           0        0.484670   -0.627230    2.451510
     16          1           0        1.529840    0.745820    2.068210
     17          6           0       -0.506170   -1.498010   -1.583550
     18          1           0        0.436520   -1.456030   -2.136430
     19          1           0       -0.727870   -2.546790   -1.361190
     20          1           0       -1.279430   -1.125040   -2.263140
     21          6           0       -2.695290    0.557050   -0.506430
     22          1           0       -3.558570    0.003000   -0.883780
     23          1           0       -3.024910    1.362670    0.155140
     24          1           0       -2.165990    1.004860   -1.351560
 ---------------------------------------------------------------------
                    Distance matrix (angstroms):
                    1          2          3          4          5
     1  C    0.000000
     2  C    1.489951   0.000000
     3  O    2.366288   1.229712   0.000000
     4  C    1.367369   2.449517   3.053096   0.000000
     5  C    3.631172   3.966825   4.846160   3.106851   0.000000
     6  H    4.503390   4.967137   5.905943   3.954037   1.093768
     7  H    3.571057   3.579242   4.524714   3.447278   1.092761
     8  H    4.097953   4.261085   4.910849   3.379330   1.093445
     9  N    2.583674   3.406066   4.311751   1.874997   1.468469
    10  H    2.676427   3.656734   4.718522   2.346968   2.013337
    11  H    3.283733   4.258074   5.046441   2.253744   2.011535
    12  Cl   2.712407   4.077129   4.581336   1.812283   4.245735
    13  C    2.540752   2.911477   3.023136   1.536903   3.349247
    14  H    2.830536   2.677890   2.747620   2.197904   3.075171
    15  H    2.928021   3.174728   2.893606   2.171170   4.435940
    16  H    3.431489   3.953147   4.110366   2.184795   3.351501
    17  C    1.497696   2.520040   3.401731   2.564631   4.578488
    18  H    2.169105   3.455695   4.365855   2.759248   4.613573
    19  H    2.136501   2.915416   3.466619   3.179473   5.574617
    20  H    2.151261   2.687124   3.701197   3.345405   4.705582
    21  C    2.564164   1.505350   2.391175   3.525242   3.893402
    22  H    3.218986   2.132064   2.757198   4.375284   4.943316
    23  H    3.318621   2.130083   2.678241   3.997649   3.826179
    24  H    2.619776   2.158268   3.277210   3.491926   3.350102
                    6          7          8          9         10
     6  H    0.000000
     7  H    1.777577   0.000000
     8  H    1.777712   1.775984   0.000000
     9  N    2.113257   2.111525   2.111619   0.000000
    10  H    2.319399   2.401328   2.929774   1.026741   0.000000
    11  H    2.322026   2.929846   2.391053   1.029802   1.600307
    12  Cl   4.783287   4.838582   4.564612   2.813618   2.974322
    13  C    4.299859   3.766013   3.105325   2.603929   3.451437
    14  H    4.119690   3.277149   2.676682   2.795080   3.689199
    15  H    5.394012   4.783233   4.162596   3.626750   4.387118
    16  H    4.134960   4.033456   2.928689   2.708266   3.641011
    17  C    5.250050   4.447579   5.266853   3.458775   3.092757
    18  H    5.102608   4.664063   5.386708   3.363182   2.799007
    19  H    6.295645   5.446445   6.175097   4.413077   4.132237
    20  H    5.316494   4.347071   5.496877   3.842001   3.338295
    21  C    4.782922   3.132213   4.325501   3.779382   3.858607
    22  H    5.780968   4.135900   5.412197   4.775136   4.732922
    23  H    4.742386   2.985126   4.041969   4.060134   4.330812
    24  H    4.080160   2.538443   4.017009   3.290126   3.151240
                   11         12         13         14         15
    11  H    0.000000
    12  Cl   2.559768   0.000000
    13  C    2.790221   2.759782   0.000000
    14  H    3.214332   3.737228   1.094908   0.000000
    15  H    3.767784   3.058020   1.095560   1.780089   0.000000
    16  H    2.510512   2.859091   1.096295   1.764441   1.767644
    17  C    4.091032   3.149490   3.951077   4.324581   4.245201
    18  H    3.795572   2.770689   4.278645   4.805969   4.662448
    19  H    4.969879   3.541336   4.409193   4.852767   4.437527
    20  H    4.619335   4.133533   4.669975   4.833892   5.058437
    21  C    4.779480   5.182163   4.028095   3.526988   4.501563
    22  H    5.771241   5.921496   4.948457   4.494584   5.279123
    23  H    5.036351   5.768467   4.131518   3.371177   4.642216
    24  H    4.315448   5.010569   4.254292   3.857133   4.914576
                   16         17         18         19         20
    16  H    0.000000
    17  C    4.745046   0.000000
    18  H    4.870574   1.093665   0.000000
    19  H    5.263014   1.094776   1.773854   0.000000
    20  H    5.491148   1.094934   1.752168   1.771752   0.000000
    21  C    4.951376   3.189938   4.064188   3.772954   2.814270
    22  H    5.929413   3.472730   4.433807   3.839559   2.893024
    23  H    4.978563   4.189342   5.017755   4.781164   3.883746
    24  H    5.041933   3.012172   3.666750   3.831775   2.480613
                   21         22         23         24
    21  C    0.000000
    22  H    1.092985   0.000000
    23  H    1.093320   1.792443   0.000000
    24  H    1.093132   1.778151   1.770852   0.000000
 Stoichiometry    C7H14ClNO
 Framework group  C1[X(C7H14ClNO)]
 Deg. of freedom    66
 Full point group                 C1      NOp   1
 Largest Abelian subgroup         C1      NOp   1
 Largest concise Abelian subgroup C1      NOp   1
                         Standard orientation:                         
 ---------------------------------------------------------------------
 Center     Atomic      Atomic             Coordinates (Angstroms)
 Number     Number       Type             X           Y           Z
 ---------------------------------------------------------------------
      1          6           0       -0.469441   -0.701580   -0.315698
      2          6           0       -1.803251   -0.378831    0.264592
      3          8           0       -2.166601   -0.889811    1.322452
      4          6           0        0.640629   -0.223689    0.323882
      5          6           0        0.482157    2.802381   -0.361908
      6          1           0        1.059196    3.479001   -0.998728
      7          1           0       -0.568663    2.851680   -0.657668
      8          1           0        0.569536    3.136541    0.675552
      9          7           0        0.982317    1.428131   -0.494868
     10          1           0        0.974698    1.215861   -1.499398
     11          1           0        1.990507    1.473482   -0.289958
     12         17           0        2.204239   -1.064978   -0.039058
     13          6           0        0.599198    0.237941    1.789232
     14          1           0       -0.221972    0.936820    1.979152
     15          1           0        0.484669   -0.627229    2.451512
     16          1           0        1.529838    0.745821    2.068212
     17          6           0       -0.506171   -1.498010   -1.583548
     18          1           0        0.436519   -1.456029   -2.136428
     19          1           0       -0.727870   -2.546790   -1.361188
     20          1           0       -1.279431   -1.125041   -2.263138
     21          6           0       -2.695292    0.557049   -0.506428
     22          1           0       -3.558572    0.002998   -0.883778
     23          1           0       -3.024912    1.362668    0.155142
     24          1           0       -2.165992    1.004859   -1.351558
 ---------------------------------------------------------------------
 Rotational constants (GHZ):           1.2552322           0.8692634           0.7181864
 Standard basis: STO-3G (5D, 7F)
 There are    68 symmetry adapted cartesian basis functions of A   symmetry.
 There are    68 symmetry adapted basis functions of A   symmetry.
    68 basis functions,   204 primitive gaussians,    68 cartesian basis functions
    44 alpha electrons       44 beta electrons
       nuclear repulsion energy       665.0561892251 Hartrees.
 NAtoms=   24 NActive=   24 NUniq=   24 SFac= 1.00D+00 NAtFMM=   60 NAOKFM=F Big=F
 Integral buffers will be    131072 words long.
 Raffenetti 1 integral format.
 Two-electron integral symmetry is turned on.
 External calculation of energy, first and second derivatives.
 Running external command "~/scripts/MiMe -H 'hf 6-31g(d)' -EF 'wb97xd def2svp' -c 12 -m 48GB R"
         input file       "/local/jobs/1157672/Gau-609039.EIn"
         output file      "/local/jobs/1157672/Gau-609039.EOu"
         message file     "/local/jobs/1157672/Gau-609039.EMs"
         fchk file        "/local/jobs/1157672/Gau-609039.EFC"
         mat. el file     "/local/jobs/1157672/Gau-609039.EUF"
 Read checkpoint file Gau-609039_H.chk type G16
 Write formatted file Gau-609039_H.fchk

deriv: 2

spelevel: wb97xd def2svp
gradlevel: wb97xd def2svp
hesslevel: hf 6-31g(d)

runspe: False
runforce: True
runfreq: True

Running Gaussian ...

Parsing files ...
SPE file: Gau-609039_F.out
FORCE file: Gau-609039_F.out
HESS file: Gau-609039_H.out

 ExternalExternalExternalExternalExternalExternalExternalExternalExternalExternal
 Output from external command:
 "~/scripts/MiMe -H 'hf 6-31g(d)' -EF 'wb97xd def2svp' -c 12 -m 48GB R /local/jobs/1157672/Gau-609039.EIn /local/jobs/1157672/Gau-609039.EOu /local/jobs/1157672/Gau-609039.EMs /local/jobs/1157672/Gau-609039.EFC /local/jobs/1157672/Gau-609039.EUF"
  
 --------------------------------------------------
 Force calculation at wb97xd def2svp
 Hessian calculation at hf 6-31g(d)
 ExternalExternalExternalExternalExternalExternalExternalExternalExternalExternal

 Recovered energy= -864.686600681     dipole=      2.062100000000      5.416600000000     -2.646100000000
 Energy=    -864.686601     NIter=   0.
 Dipole moment=       2.062100       5.416600      -2.646100
 ***** Axes restored to original set *****
 -------------------------------------------------------------------
 Center     Atomic                   Forces (Hartrees/Bohr)
 Number     Number              X              Y              Z
 -------------------------------------------------------------------
      1        6          -0.002524357   -0.008794464    0.010740800
      2        6           0.008218536   -0.025620249    0.024492253
      3        8          -0.000696935    0.019945956   -0.016037902
      4        6          -0.037976309   -0.044906467    0.030617841
      5        6          -0.003202489   -0.006205890    0.004308950
      6        1           0.000214442    0.006613082   -0.002225141
      7        1          -0.004395629   -0.000448568   -0.000196767
      8        1          -0.000083615    0.000438273    0.003424103
      9        7           0.053935154    0.054643268   -0.026235811
     10        1          -0.004099176   -0.007659621    0.005286562
     11        1          -0.003564365    0.000726759   -0.002516217
     12       17          -0.001495736    0.011088421   -0.003041206
     13        6           0.007278419   -0.001336171   -0.011632435
     14        1          -0.004047133   -0.000770268   -0.001645569
     15        1          -0.002224811   -0.001599464   -0.001076458
     16        1           0.003509354    0.001445782   -0.000850574
     17        6           0.004103954    0.007620992   -0.000196375
     18        1           0.004833492   -0.001574944   -0.001419966
     19        1          -0.001216929   -0.006416838   -0.002455783
     20        1          -0.005912335    0.000026960   -0.004381063
     21        6           0.000586805    0.000100163   -0.003652801
     22        1          -0.006912666    0.000851659   -0.000298748
     23        1          -0.005032257    0.000946033    0.003406422
     24        1           0.000704584    0.000885596   -0.004414113
 -------------------------------------------------------------------
 Cartesian Forces:  Max     0.054643268 RMS     0.014005430
 FormGI is forming the generalized inverse of G from B-inverse, IUseBI=4.

 GradGradGradGradGradGradGradGradGradGradGradGradGradGradGradGradGradGrad
 Berny optimization.
 Internal  Forces:  Max     0.057379704 RMS     0.008148635
 Search for a saddle point.
 Step number   1 out of a maximum of   50
 All quantities printed in internal units (Hartrees-Bohrs-Radians)
 Swapping is turned off.
 Second derivative matrix not updated -- analytic derivatives used.
 ITU=  0
     Eigenvalues ---   -0.07094   0.00433   0.00475   0.00712   0.00930
     Eigenvalues ---    0.01113   0.01297   0.01565   0.02092   0.03342
     Eigenvalues ---    0.04646   0.05058   0.05663   0.05907   0.06178
     Eigenvalues ---    0.06291   0.07098   0.07279   0.07328   0.07601
     Eigenvalues ---    0.07777   0.07918   0.10181   0.11208   0.12199
     Eigenvalues ---    0.13296   0.15333   0.15532   0.15775   0.15934
     Eigenvalues ---    0.16657   0.16922   0.18223   0.18580   0.19080
     Eigenvalues ---    0.19340   0.19813   0.21489   0.21553   0.22032
     Eigenvalues ---    0.22589   0.24421   0.26367   0.27427   0.30323
     Eigenvalues ---    0.32351   0.34471   0.34838   0.35041   0.35069
     Eigenvalues ---    0.35440   0.35530   0.35770   0.35777   0.36258
     Eigenvalues ---    0.36344   0.36408   0.36642   0.37726   0.38448
     Eigenvalues ---    0.39467   0.42303   0.43034   0.43477   0.58937
     Eigenvalues ---    0.82817
 Eigenvectors required to have negative eigenvalues:
                          R6        A19       A21       D5        D6
   1                   -0.75043  -0.32471   0.19590  -0.16724  -0.15420
                          R2        A11       D1        D8        D2
   1                    0.14083   0.11925   0.11925  -0.11874   0.11454
 RFO step:  Lambda0=8.810543756D-03 Lambda=-4.01672560D-02.
 Linear search not attempted -- option 19 set.
 Maximum step size (   0.100) exceeded in Quadratic search.
    -- Step size scaled by   0.221
 Iteration  1 RMS(Cart)=  0.03360121 RMS(Int)=  0.00066006
 Iteration  2 RMS(Cart)=  0.00122449 RMS(Int)=  0.00017347
 Iteration  3 RMS(Cart)=  0.00000148 RMS(Int)=  0.00017347
 Iteration  4 RMS(Cart)=  0.00000000 RMS(Int)=  0.00017347
 Variable       Old X    -DE/DX   Delta X   Delta X   Delta X     New X
                                 (Linear)    (Quad)   (Total)
    R1        2.81560   0.00354   0.00000  -0.00247  -0.00247   2.81313
    R2        2.58395   0.00462   0.00000   0.00448   0.00448   2.58843
    R3        2.83024   0.00730   0.00000   0.00418   0.00418   2.83442
    R4        2.32382  -0.02188   0.00000  -0.00490  -0.00490   2.31892
    R5        2.84470   0.01058   0.00000   0.00748   0.00748   2.85218
    R6        3.54323   0.05738   0.00000   0.01321   0.01321   3.55644
    R7        3.42472  -0.00583   0.00000   0.00308   0.00308   3.42780
    R8        2.90432  -0.01530   0.00000  -0.00972  -0.00972   2.89461
    R9        2.06692   0.00550   0.00000   0.00265   0.00265   2.06958
   R10        2.06502   0.00426   0.00000   0.00272   0.00272   2.06774
   R11        2.06631   0.00338   0.00000   0.00123   0.00123   2.06754
   R12        2.77500   0.00340   0.00000  -0.00587  -0.00587   2.76914
   R13        1.94026  -0.00356   0.00000  -0.00213  -0.00213   1.93813
   R14        1.94604  -0.00396   0.00000  -0.00273  -0.00273   1.94332
   R15        2.06908   0.00226   0.00000   0.00118   0.00118   2.07025
   R16        2.07031   0.00085   0.00000   0.00016   0.00016   2.07047
   R17        2.07170   0.00343   0.00000   0.00149   0.00149   2.07319
   R18        2.06673   0.00482   0.00000   0.00262   0.00262   2.06935
   R19        2.06883   0.00589   0.00000   0.00338   0.00338   2.07221
   R20        2.06913   0.00691   0.00000   0.00353   0.00353   2.07266
   R21        2.06544   0.00513   0.00000   0.00289   0.00289   2.06833
   R22        2.06607   0.00428   0.00000   0.00245   0.00245   2.06853
   R23        2.06572   0.00412   0.00000   0.00225   0.00225   2.06797
    A1        2.05881   0.00338   0.00000   0.00618   0.00618   2.06499
    A2        2.00748   0.00286   0.00000   0.00422   0.00422   2.01169
    A3        2.21645  -0.00626   0.00000  -0.01030  -0.01030   2.20616
    A4        2.10545   0.01312   0.00000   0.01096   0.01096   2.11640
    A5        2.05519   0.00032   0.00000  -0.00007  -0.00007   2.05512
    A6        2.12216  -0.01342   0.00000  -0.01081  -0.01081   2.11135
    A7        1.82512   0.02299   0.00000   0.01947   0.01947   1.84459
    A8        2.03143  -0.00150   0.00000   0.00232   0.00246   2.03389
    A9        2.12829  -0.00276   0.00000  -0.00249  -0.00268   2.12561
   A10        1.73583  -0.01285   0.00000  -0.02972  -0.02970   1.70613
   A11        1.72808  -0.01212   0.00000   0.00734   0.00728   1.73536
   A12        1.93225   0.00418   0.00000  -0.00006  -0.00004   1.93221
   A13        1.89846  -0.00187   0.00000  -0.00125  -0.00125   1.89721
   A14        1.89780  -0.00175   0.00000  -0.00045  -0.00045   1.89735
   A15        1.92465   0.00697   0.00000   0.00152   0.00152   1.92617
   A16        1.89637   0.00011   0.00000   0.00020   0.00020   1.89657
   A17        1.92329  -0.00181   0.00000  -0.00032  -0.00032   1.92298
   A18        1.92270  -0.00176   0.00000   0.00025   0.00025   1.92295
   A19        2.37870  -0.01980   0.00000  -0.07155  -0.07169   2.30702
   A20        1.81701  -0.00103   0.00000   0.01061   0.00981   1.82682
   A21        1.70149   0.00842   0.00000   0.03813   0.03866   1.74015
   A22        1.85410   0.01330   0.00000   0.02075   0.01982   1.87393
   A23        1.84858   0.00376   0.00000   0.01517   0.01596   1.86454
   A24        1.78344  -0.00159   0.00000   0.00530   0.00481   1.78825
   A25        1.95770  -0.00345   0.00000  -0.00161  -0.00161   1.95609
   A26        1.91983  -0.00194   0.00000  -0.00289  -0.00290   1.91693
   A27        1.93788  -0.00088   0.00000   0.00013   0.00014   1.93801
   A28        1.89738   0.00114   0.00000  -0.00221  -0.00222   1.89516
   A29        1.87215   0.00307   0.00000   0.00388   0.00389   1.87604
   A30        1.87628   0.00245   0.00000   0.00298   0.00299   1.87927
   A31        1.96752  -0.00096   0.00000   0.00001   0.00001   1.96753
   A32        1.92033   0.00447   0.00000   0.00348   0.00347   1.92380
   A33        1.94078   0.00157   0.00000   0.00265   0.00265   1.94343
   A34        1.89020  -0.00266   0.00000  -0.00392  -0.00392   1.88628
   A35        1.85656   0.00060   0.00000   0.00115   0.00114   1.85770
   A36        1.88533  -0.00339   0.00000  -0.00381  -0.00381   1.88152
   A37        1.90681   0.00361   0.00000   0.00640   0.00639   1.91319
   A38        1.90375  -0.00070   0.00000  -0.00576  -0.00576   1.89799
   A39        1.94308   0.00185   0.00000   0.00348   0.00347   1.94655
   A40        1.92230  -0.00465   0.00000  -0.00710  -0.00709   1.91521
   A41        1.89989  -0.00157   0.00000  -0.00015  -0.00017   1.89972
   A42        1.88803   0.00132   0.00000   0.00293   0.00294   1.89097
    D1       -1.22698   0.00588   0.00000   0.03469   0.03471  -1.19226
    D2        1.94404   0.00491   0.00000   0.03182   0.03183   1.97587
    D3        1.94433   0.00648   0.00000   0.03131   0.03130   1.97563
    D4       -1.16784   0.00551   0.00000   0.02844   0.02841  -1.13943
    D5       -1.59935  -0.00043   0.00000  -0.03711  -0.03710  -1.63645
    D6        2.78890   0.00161   0.00000  -0.01435  -0.01437   2.77453
    D7        0.33200   0.00015   0.00000  -0.01408  -0.01407   0.31793
    D8        1.50853  -0.00091   0.00000  -0.03295  -0.03294   1.47560
    D9       -0.38640   0.00113   0.00000  -0.01019  -0.01021  -0.39661
   D10       -2.84330  -0.00033   0.00000  -0.00992  -0.00991  -2.85321
   D11        2.83489   0.00054   0.00000   0.00343   0.00343   2.83832
   D12       -1.33643  -0.00035   0.00000   0.00089   0.00088  -1.33555
   D13        0.75168  -0.00066   0.00000   0.00010   0.00010   0.75178
   D14       -0.27385   0.00099   0.00000  -0.00067  -0.00066  -0.27451
   D15        1.83802   0.00011   0.00000  -0.00321  -0.00321   1.83481
   D16       -2.35706  -0.00021   0.00000  -0.00400  -0.00399  -2.36105
   D17        1.94997   0.00278   0.00000   0.00462   0.00462   1.95459
   D18       -2.23109  -0.00113   0.00000  -0.00367  -0.00368  -2.23477
   D19       -0.14891   0.00120   0.00000  -0.00160  -0.00162  -0.15053
   D20       -1.16190   0.00132   0.00000   0.00133   0.00135  -1.16054
   D21        0.94023  -0.00259   0.00000  -0.00696  -0.00695   0.93328
   D22        3.02241  -0.00026   0.00000  -0.00488  -0.00488   3.01752
   D23        1.43741  -0.00069   0.00000  -0.01961  -0.01915   1.41825
   D24       -0.88115   0.00103   0.00000   0.01618   0.01623  -0.86491
   D25       -2.70722   0.00044   0.00000  -0.00274  -0.00293  -2.71015
   D26       -2.74106   0.00052   0.00000  -0.02222  -0.02192  -2.76298
   D27        1.22357   0.00224   0.00000   0.01356   0.01347   1.23704
   D28       -0.60250   0.00164   0.00000  -0.00536  -0.00570  -0.60820
   D29       -0.77029  -0.00125   0.00000  -0.02767  -0.02739  -0.79767
   D30       -3.08884   0.00047   0.00000   0.00811   0.00800  -3.08084
   D31        1.36827  -0.00013   0.00000  -0.01081  -0.01116   1.35711
   D32       -0.87411  -0.00516   0.00000  -0.00230  -0.00228  -0.87639
   D33        1.23994  -0.00737   0.00000  -0.00819  -0.00817   1.23177
   D34       -2.96856  -0.00612   0.00000  -0.00625  -0.00624  -2.97479
   D35        1.10719   0.01349   0.00000   0.02661   0.02660   1.13379
   D36       -3.06195   0.01128   0.00000   0.02071   0.02071  -3.04124
   D37       -0.98726   0.01253   0.00000   0.02266   0.02264  -0.96462
   D38        2.91807  -0.00476   0.00000  -0.00293  -0.00294   2.91513
   D39       -1.25107  -0.00697   0.00000  -0.00883  -0.00883  -1.25990
   D40        0.82362  -0.00572   0.00000  -0.00689  -0.00690   0.81672
   D41        3.04041   0.00282   0.00000   0.02451   0.02451   3.06492
   D42       -0.93519  -0.00349   0.00000  -0.01579  -0.01583  -0.95102
   D43        0.95247   0.00150   0.00000   0.00439   0.00443   0.95690
   D44       -1.14670   0.00379   0.00000   0.02373   0.02373  -1.12297
   D45        1.16088  -0.00252   0.00000  -0.01657  -0.01661   1.14428
   D46        3.04855   0.00247   0.00000   0.00361   0.00365   3.05220
   D47        0.94553   0.00167   0.00000   0.02394   0.02394   0.96947
   D48       -3.03006  -0.00464   0.00000  -0.01636  -0.01640  -3.04646
   D49       -1.14240   0.00035   0.00000   0.00382   0.00386  -1.13854
         Item               Value     Threshold  Converged?
 Maximum Force            0.057380     0.000450     NO 
 RMS     Force            0.008149     0.000300     NO 
 Maximum Displacement     0.110420     0.001800     NO 
 RMS     Displacement     0.033641     0.001200     NO 
 Predicted change in Energy=-6.504448D-03
 GradGradGradGradGradGradGradGradGradGradGradGradGradGradGradGradGradGrad

                          Input orientation:                          
 ---------------------------------------------------------------------
 Center     Atomic      Atomic             Coordinates (Angstroms)
 Number     Number       Type             X           Y           Z
 ---------------------------------------------------------------------
      1          6           0       -0.479805   -0.685900   -0.311933
      2          6           0       -1.812514   -0.372377    0.272579
      3          8           0       -2.168038   -0.855681    1.343016
      4          6           0        0.636523   -0.210493    0.323666
      5          6           0        0.500495    2.777427   -0.344661
      6          1           0        1.052955    3.489183   -0.967233
      7          1           0       -0.554019    2.801503   -0.635693
      8          1           0        0.582334    3.088576    0.701059
      9          7           0        1.040752    1.425807   -0.513587
     10          1           0        1.028040    1.214218   -1.517057
     11          1           0        2.047503    1.480092   -0.311032
     12         17           0        2.197672   -1.061424   -0.035518
     13          6           0        0.597369    0.256708    1.781911
     14          1           0       -0.219724    0.962803    1.966237
     15          1           0        0.469782   -0.605888    2.445304
     16          1           0        1.533667    0.755826    2.060873
     17          6           0       -0.509589   -1.479389   -1.584417
     18          1           0        0.435542   -1.431171   -2.135367
     19          1           0       -0.724642   -2.532918   -1.369284
     20          1           0       -1.285596   -1.111229   -2.266507
     21          6           0       -2.728808    0.533903   -0.512962
     22          1           0       -3.592202   -0.036338   -0.869798
     23          1           0       -3.065946    1.345038    0.140173
     24          1           0       -2.216371    0.974965   -1.373438
 ---------------------------------------------------------------------
                    Distance matrix (angstroms):
                    1          2          3          4          5
     1  C    0.000000
     2  C    1.488645   0.000000
     3  O    2.370193   1.227118   0.000000
     4  C    1.369739   2.454913   3.053016   0.000000
     5  C    3.599541   3.956294   4.813398   3.064773   0.000000
     6  H    4.495563   4.965852   5.881317   3.940487   1.095173
     7  H    3.503185   3.533027   4.460420   3.377851   1.094203
     8  H    4.049809   4.230494   4.851167   3.321027   1.094094
     9  N    2.609992   3.463040   4.352987   1.881986   1.465364
    10  H    2.708574   3.713331   4.762292   2.360371   2.023966
    11  H    3.328484   4.321107   5.095341   2.291677   2.019267
    12  Cl   2.717776   4.080600   4.582806   1.813913   4.208652
    13  C    2.536335   2.912279   3.012891   1.531760   3.299351
    14  H    2.824167   2.681075   2.737009   2.192675   3.025198
    15  H    2.917271   3.159768   2.869761   2.164599   4.385393
    16  H    3.429701   3.958252   4.100597   2.180947   3.307705
    17  C    1.499910   2.524188   3.421890   2.562118   4.547280
    18  H    2.172142   3.460202   4.382804   2.752688   4.574183
    19  H    2.142292   2.923546   3.500442   3.180017   5.545321
    20  H    2.156517   2.696386   3.724603   3.348860   4.690977
    21  C    2.566387   1.509309   2.385386   3.546762   3.935750
    22  H    3.228027   2.141317   2.756105   4.397363   4.994319
    23  H    3.319221   2.130290   2.663876   4.020152   3.873797
    24  H    2.626961   2.165133   3.276084   3.524837   3.418862
                    6          7          8          9         10
     6  H    0.000000
     7  H    1.779097   0.000000
     8  H    1.779092   1.777812   0.000000
     9  N    2.112692   2.109679   2.109577   0.000000
    10  H    2.340596   2.408150   2.938011   1.025614   0.000000
    11  H    2.335845   2.935889   2.399639   1.028359   1.601402
    12  Cl   4.783983   4.780608   4.513797   2.784480   2.956610
    13  C    4.267816   3.694115   3.031162   2.613942   3.462008
    14  H    4.075237   3.203531   2.600554   2.820053   3.708566
    15  H    5.362379   4.706488   4.087068   3.634395   4.395992
    16  H    4.107524   3.976770   2.862840   2.705492   3.642440
    17  C    5.244918   4.384985   5.223218   3.462715   3.102316
    18  H    5.094666   4.598237   5.338068   3.340475   2.780548
    19  H    6.291836   5.387329   6.131534   4.418182   4.139416
    20  H    5.321722   4.301655   5.471195   3.862793   3.364862
    21  C    4.820972   3.144325   4.354752   3.873638   3.947777
    22  H    5.832347   4.163977   5.446047   4.871244   4.830060
    23  H    4.773788   3.005501   4.082213   4.159193   4.418625
    24  H    4.144247   2.577581   4.074756   3.398743   3.256390
                   11         12         13         14         15
    11  H    0.000000
    12  Cl   2.560813   0.000000
    13  C    2.824884   2.757080   0.000000
    14  H    3.254821   3.734745   1.095531   0.000000
    15  H    3.799724   3.057383   1.095646   1.779246   0.000000
    16  H    2.532691   2.852745   1.097084   1.768100   1.770283
    17  C    4.113242   3.146910   3.946081   4.319198   4.238021
    18  H    3.795006   2.766077   4.268512   4.794126   4.654547
    19  H    4.990885   3.533291   4.411322   4.858056   4.437474
    20  H    4.652781   4.136780   4.669743   4.832578   5.053501
    21  C    4.873314   5.200310   4.050523   3.553292   4.503492
    22  H    5.866690   5.938810   4.966885   4.518295   5.273898
    23  H    5.135093   5.790301   4.159284   3.403174   4.649851
    24  H    4.423175   5.041893   4.288269   3.891038   4.929229
                   16         17         18         19         20
    16  H    0.000000
    17  C    4.739116   0.000000
    18  H    4.857702   1.095054   0.000000
    19  H    5.261347   1.096564   1.773909   0.000000
    20  H    5.491844   1.096802   1.755527   1.772252   0.000000
    21  C    4.984232   3.182184   4.062859   3.762361   2.804325
    22  H    5.957423   3.477870   4.446340   3.834749   2.902864
    23  H    5.019233   4.181693   5.014562   4.774799   3.872337
    24  H    5.089725   2.996911   3.660966   3.811892   2.452778
                   21         22         23         24
    21  C    0.000000
    22  H    1.094512   0.000000
    23  H    1.094617   1.790303   0.000000
    24  H    1.094324   1.780252   1.774753   0.000000
 Stoichiometry    C7H14ClNO
 Framework group  C1[X(C7H14ClNO)]
 Deg. of freedom    66
 Full point group                 C1      NOp   1
 Largest Abelian subgroup         C1      NOp   1
 Largest concise Abelian subgroup C1      NOp   1
                         Standard orientation:                         
 ---------------------------------------------------------------------
 Center     Atomic      Atomic             Coordinates (Angstroms)
 Number     Number       Type             X           Y           Z
 ---------------------------------------------------------------------
      1          6           0       -0.488315   -0.686900   -0.308726
      2          6           0       -1.818393   -0.349979    0.268716
      3          8           0       -2.183562   -0.818358    1.342536
      4          6           0        0.632443   -0.220602    0.325823
      5          6           0        0.538706    2.762456   -0.370890
      6          1           0        1.102551    3.460820   -0.998401
      7          1           0       -0.514524    2.797984   -0.665380
      8          1           0        0.621647    3.082303    0.672116
      9          7           0        1.061177    1.402156   -0.525478
     10          1           0        1.048575    1.181323   -1.526956
     11          1           0        2.067967    1.444789   -0.320343
     12         17           0        2.183025   -1.095813   -0.020563
     13          6           0        0.595290    0.260787    1.779499
     14          1           0       -0.212744    0.979521    1.954683
     15          1           0        0.454122   -0.593732    2.450549
     16          1           0        1.537408    0.749860    2.056652
     17          6           0       -0.525043   -1.491858   -1.573804
     18          1           0        0.422274   -1.461553   -2.122270
     19          1           0       -0.754921   -2.540325   -1.349472
     20          1           0       -1.293996   -1.119721   -2.261700
     21          6           0       -2.720056    0.561119   -0.528100
     22          1           0       -3.590006   -0.000781   -0.882233
     23          1           0       -3.048148    1.382830    0.116364
     24          1           0       -2.199178    0.987126   -1.391089
 ---------------------------------------------------------------------
 Rotational constants (GHZ):           1.2679351           0.8613491           0.7183777
 Standard basis: STO-3G (5D, 7F)
 There are    68 symmetry adapted cartesian basis functions of A   symmetry.
 There are    68 symmetry adapted basis functions of A   symmetry.
    68 basis functions,   204 primitive gaussians,    68 cartesian basis functions
    44 alpha electrons       44 beta electrons
       nuclear repulsion energy       664.9636718816 Hartrees.
 NAtoms=   24 NActive=   24 NUniq=   24 SFac= 1.00D+00 NAtFMM=   60 NAOKFM=F Big=F
 Integral buffers will be    131072 words long.
 Raffenetti 1 integral format.
 Two-electron integral symmetry is turned on.
 External calculation of energy, first and second derivatives.
 Running external command "~/scripts/MiMe -H 'hf 6-31g(d)' -EF 'wb97xd def2svp' -c 12 -m 48GB R"
         input file       "/local/jobs/1157672/Gau-609039.EIn"
         output file      "/local/jobs/1157672/Gau-609039.EOu"
         message file     "/local/jobs/1157672/Gau-609039.EMs"
         fchk file        "/local/jobs/1157672/Gau-609039.EFC"
         mat. el file     "/local/jobs/1157672/Gau-609039.EUF"
 Read checkpoint file Gau-609039_H.chk type G16
 Write formatted file Gau-609039_H.fchk

deriv: 2

spelevel: wb97xd def2svp
gradlevel: wb97xd def2svp
hesslevel: hf 6-31g(d)

runspe: False
runforce: True
runfreq: True

Running Gaussian ...

Parsing files ...
SPE file: Gau-609039_F.out
FORCE file: Gau-609039_F.out
HESS file: Gau-609039_H.out

 ExternalExternalExternalExternalExternalExternalExternalExternalExternalExternal
 Output from external command:
 "~/scripts/MiMe -H 'hf 6-31g(d)' -EF 'wb97xd def2svp' -c 12 -m 48GB R /local/jobs/1157672/Gau-609039.EIn /local/jobs/1157672/Gau-609039.EOu /local/jobs/1157672/Gau-609039.EMs /local/jobs/1157672/Gau-609039.EFC /local/jobs/1157672/Gau-609039.EUF"
  
 --------------------------------------------------
 Force calculation at wb97xd def2svp
 Hessian calculation at hf 6-31g(d)
 ExternalExternalExternalExternalExternalExternalExternalExternalExternalExternal

 Recovered energy= -864.693182295     dipole=      2.247600000000      5.370600000000     -2.724400000000
 Energy=    -864.693182     NIter=   0.
 Dipole moment=       2.247600       5.370600      -2.724400
 ***** Axes restored to original set *****
 -------------------------------------------------------------------
 Center     Atomic                   Forces (Hartrees/Bohr)
 Number     Number              X              Y              Z
 -------------------------------------------------------------------
      1        6          -0.001383232   -0.006237007    0.009175011
      2        6           0.006732066   -0.021423892    0.020201101
      3        8          -0.000330589    0.017078565   -0.012456018
      4        6          -0.035982074   -0.039923205    0.026292770
      5        6          -0.003001586   -0.005808986    0.002483536
      6        1          -0.000425663    0.005740186   -0.001601214
      7        1          -0.003605074   -0.000844059    0.000093787
      8        1           0.000020295    0.000085134    0.002940514
      9        7           0.049364093    0.047341140   -0.022337372
     10        1          -0.004380878   -0.006722488    0.004352556
     11        1          -0.002946824    0.000661914   -0.001508965
     12       17          -0.000772215    0.008968170   -0.002707852
     13        6           0.006990974   -0.000346588   -0.009778053
     14        1          -0.003531825   -0.000872726   -0.001310381
     15        1          -0.001999950   -0.001337107   -0.000889747
     16        1           0.002834960    0.001133904   -0.000759014
     17        6           0.003252748    0.007405514   -0.000878373
     18        1           0.003932241   -0.001317781   -0.000996866
     19        1          -0.000859657   -0.005144855   -0.002160168
     20        1          -0.004865535   -0.000171739   -0.003486887
     21        6           0.000695590   -0.000251763   -0.003819245
     22        1          -0.005723990    0.000705122    0.000084386
     23        1          -0.004317522    0.000601433    0.002771593
     24        1           0.000303647    0.000681114   -0.003705098
 -------------------------------------------------------------------
 Cartesian Forces:  Max     0.049364093 RMS     0.012331509
 FormGI is forming the generalized inverse of G from B-inverse, IUseBI=4.

 GradGradGradGradGradGradGradGradGradGradGradGradGradGradGradGradGradGrad
 Berny optimization.
 Internal  Forces:  Max     0.049621632 RMS     0.006968136
 Search for a saddle point.
 Step number   2 out of a maximum of   50
 All quantities printed in internal units (Hartrees-Bohrs-Radians)
 Swapping is turned off.
 Second derivative matrix not updated -- analytic derivatives used.
 ITU=  0  0
     Eigenvalues ---   -0.06499   0.00450   0.00492   0.00717   0.00937
     Eigenvalues ---    0.01162   0.01301   0.01592   0.02196   0.03429
     Eigenvalues ---    0.04607   0.05085   0.05682   0.05890   0.06169
     Eigenvalues ---    0.06281   0.07155   0.07255   0.07387   0.07625
     Eigenvalues ---    0.07793   0.07968   0.09905   0.11380   0.12152
     Eigenvalues ---    0.12942   0.15431   0.15517   0.15819   0.16242
     Eigenvalues ---    0.16643   0.17121   0.18282   0.18529   0.19131
     Eigenvalues ---    0.19312   0.19743   0.21270   0.21485   0.22038
     Eigenvalues ---    0.22635   0.24466   0.25822   0.27209   0.30746
     Eigenvalues ---    0.32632   0.34120   0.34608   0.34800   0.34873
     Eigenvalues ---    0.35217   0.35429   0.35473   0.35599   0.36055
     Eigenvalues ---    0.36168   0.36286   0.36386   0.37647   0.38232
     Eigenvalues ---    0.39658   0.42742   0.43418   0.43859   0.58447
     Eigenvalues ---    0.84142
 Eigenvectors required to have negative eigenvalues:
                          R6        A19       A21       D6        D5
   1                   -0.78044  -0.27234   0.16803  -0.16688  -0.16051
                          R2        D1        A11       D2        D9
   1                    0.14030   0.12791   0.12575   0.12126  -0.11761
 RFO step:  Lambda0=9.569101056D-03 Lambda=-3.31217906D-02.
 Linear search not attempted -- option 19 set.
 Maximum step size (   0.100) exceeded in Quadratic search.
    -- Step size scaled by   0.242
 Iteration  1 RMS(Cart)=  0.03738709 RMS(Int)=  0.00070364
 Iteration  2 RMS(Cart)=  0.00131219 RMS(Int)=  0.00020214
 Iteration  3 RMS(Cart)=  0.00000158 RMS(Int)=  0.00020214
 Iteration  4 RMS(Cart)=  0.00000000 RMS(Int)=  0.00020214
 Variable       Old X    -DE/DX   Delta X   Delta X   Delta X     New X
                                 (Linear)    (Quad)   (Total)
    R1        2.81313   0.00302   0.00000  -0.00403  -0.00403   2.80910
    R2        2.58843   0.00270   0.00000   0.00607   0.00607   2.59450
    R3        2.83442   0.00595   0.00000   0.00407   0.00407   2.83849
    R4        2.31892  -0.01750   0.00000  -0.00358  -0.00358   2.31534
    R5        2.85218   0.00896   0.00000   0.00722   0.00722   2.85940
    R6        3.55644   0.04962   0.00000   0.00106   0.00106   3.55749
    R7        3.42780  -0.00434   0.00000   0.00739   0.00739   3.43519
    R8        2.89461  -0.01267   0.00000  -0.00846  -0.00846   2.88615
    R9        2.06958   0.00443   0.00000   0.00220   0.00220   2.07178
   R10        2.06774   0.00343   0.00000   0.00233   0.00233   2.07007
   R11        2.06754   0.00284   0.00000   0.00091   0.00091   2.06845
   R12        2.76914   0.00227   0.00000  -0.00532  -0.00532   2.76382
   R13        1.93813  -0.00282   0.00000  -0.00213  -0.00213   1.93600
   R14        1.94332  -0.00315   0.00000  -0.00236  -0.00236   1.94096
   R15        2.07025   0.00185   0.00000   0.00086   0.00086   2.07112
   R16        2.07047   0.00075   0.00000   0.00001   0.00001   2.07048
   R17        2.07319   0.00274   0.00000   0.00133   0.00133   2.07452
   R18        2.06935   0.00384   0.00000   0.00248   0.00248   2.07183
   R19        2.07221   0.00469   0.00000   0.00313   0.00313   2.07533
   R20        2.07266   0.00555   0.00000   0.00300   0.00300   2.07566
   R21        2.06833   0.00412   0.00000   0.00263   0.00263   2.07096
   R22        2.06853   0.00343   0.00000   0.00222   0.00222   2.07075
   R23        2.06797   0.00333   0.00000   0.00193   0.00193   2.06990
    A1        2.06499   0.00241   0.00000   0.00601   0.00600   2.07099
    A2        2.01169   0.00264   0.00000   0.00557   0.00556   2.01726
    A3        2.20616  -0.00506   0.00000  -0.01144  -0.01144   2.19471
    A4        2.11640   0.01088   0.00000   0.01086   0.01086   2.12727
    A5        2.05512   0.00014   0.00000  -0.00010  -0.00010   2.05501
    A6        2.11135  -0.01100   0.00000  -0.01067  -0.01067   2.10068
    A7        1.84459   0.01907   0.00000   0.01655   0.01652   1.86111
    A8        2.03389  -0.00098   0.00000   0.00158   0.00168   2.03558
    A9        2.12561  -0.00211   0.00000  -0.00160  -0.00179   2.12382
   A10        1.70613  -0.01054   0.00000  -0.02577  -0.02574   1.68039
   A11        1.73536  -0.01054   0.00000   0.01007   0.01000   1.74537
   A12        1.93221   0.00323   0.00000  -0.00255  -0.00249   1.92972
   A13        1.89721  -0.00159   0.00000  -0.00056  -0.00056   1.89666
   A14        1.89735  -0.00152   0.00000  -0.00019  -0.00019   1.89716
   A15        1.92617   0.00663   0.00000   0.00131   0.00131   1.92748
   A16        1.89657   0.00030   0.00000   0.00076   0.00076   1.89733
   A17        1.92298  -0.00203   0.00000  -0.00129  -0.00129   1.92169
   A18        1.92295  -0.00188   0.00000  -0.00003  -0.00003   1.92292
   A19        2.30702  -0.01821   0.00000  -0.07256  -0.07275   2.23427
   A20        1.82682  -0.00074   0.00000   0.00629   0.00532   1.83214
   A21        1.74015   0.00791   0.00000   0.04121   0.04181   1.78196
   A22        1.87393   0.01114   0.00000   0.01824   0.01706   1.89099
   A23        1.86454   0.00390   0.00000   0.01724   0.01810   1.88264
   A24        1.78825  -0.00126   0.00000   0.00742   0.00695   1.79520
   A25        1.95609  -0.00289   0.00000  -0.00157  -0.00157   1.95451
   A26        1.91693  -0.00168   0.00000  -0.00290  -0.00290   1.91403
   A27        1.93801  -0.00069   0.00000  -0.00014  -0.00014   1.93787
   A28        1.89516   0.00083   0.00000  -0.00279  -0.00280   1.89236
   A29        1.87604   0.00264   0.00000   0.00450   0.00450   1.88054
   A30        1.87927   0.00210   0.00000   0.00316   0.00316   1.88243
   A31        1.96753  -0.00091   0.00000   0.00023   0.00022   1.96775
   A32        1.92380   0.00376   0.00000   0.00319   0.00319   1.92698
   A33        1.94343   0.00135   0.00000   0.00306   0.00306   1.94649
   A34        1.88628  -0.00225   0.00000  -0.00443  -0.00443   1.88185
   A35        1.85770   0.00060   0.00000   0.00129   0.00128   1.85898
   A36        1.88152  -0.00288   0.00000  -0.00381  -0.00382   1.87770
   A37        1.91319   0.00275   0.00000   0.00683   0.00681   1.92001
   A38        1.89799  -0.00050   0.00000  -0.00653  -0.00653   1.89146
   A39        1.94655   0.00191   0.00000   0.00385   0.00384   1.95039
   A40        1.91521  -0.00402   0.00000  -0.00725  -0.00724   1.90797
   A41        1.89972  -0.00133   0.00000   0.00006   0.00003   1.89974
   A42        1.89097   0.00105   0.00000   0.00278   0.00278   1.89375
    D1       -1.19226   0.00624   0.00000   0.04734   0.04738  -1.14488
    D2        1.97587   0.00516   0.00000   0.04355   0.04356   2.01943
    D3        1.97563   0.00676   0.00000   0.04231   0.04230   2.01793
    D4       -1.13943   0.00568   0.00000   0.03852   0.03848  -1.10095
    D5       -1.63645  -0.00021   0.00000  -0.04182  -0.04180  -1.67825
    D6        2.77453   0.00129   0.00000  -0.02158  -0.02159   2.75294
    D7        0.31793  -0.00017   0.00000  -0.01667  -0.01666   0.30127
    D8        1.47560  -0.00065   0.00000  -0.03583  -0.03583   1.43976
    D9       -0.39661   0.00085   0.00000  -0.01560  -0.01562  -0.41223
   D10       -2.85321  -0.00061   0.00000  -0.01069  -0.01069  -2.86390
   D11        2.83832   0.00045   0.00000   0.00393   0.00393   2.84225
   D12       -1.33555  -0.00038   0.00000   0.00067   0.00066  -1.33489
   D13        0.75178  -0.00065   0.00000  -0.00003  -0.00004   0.75174
   D14       -0.27451   0.00088   0.00000  -0.00191  -0.00190  -0.27641
   D15        1.83481   0.00004   0.00000  -0.00517  -0.00516   1.82965
   D16       -2.36105  -0.00022   0.00000  -0.00587  -0.00586  -2.36691
   D17        1.95459   0.00258   0.00000   0.00422   0.00422   1.95882
   D18       -2.23477  -0.00097   0.00000  -0.00450  -0.00451  -2.23928
   D19       -0.15053   0.00118   0.00000  -0.00292  -0.00295  -0.15347
   D20       -1.16054   0.00116   0.00000   0.00010   0.00012  -1.16042
   D21        0.93328  -0.00239   0.00000  -0.00862  -0.00861   0.92467
   D22        3.01752  -0.00024   0.00000  -0.00704  -0.00704   3.01048
   D23        1.41825  -0.00084   0.00000  -0.02346  -0.02295   1.39531
   D24       -0.86491   0.00115   0.00000   0.01738   0.01735  -0.84756
   D25       -2.71015   0.00014   0.00000  -0.00529  -0.00549  -2.71563
   D26       -2.76298  -0.00003   0.00000  -0.02685  -0.02645  -2.78943
   D27        1.23704   0.00196   0.00000   0.01399   0.01384   1.25088
   D28       -0.60820   0.00096   0.00000  -0.00868  -0.00899  -0.61719
   D29       -0.79767  -0.00146   0.00000  -0.03341  -0.03307  -0.83074
   D30       -3.08084   0.00054   0.00000   0.00743   0.00723  -3.07361
   D31        1.35711  -0.00047   0.00000  -0.01524  -0.01561   1.34151
   D32       -0.87639  -0.00390   0.00000  -0.00112  -0.00111  -0.87750
   D33        1.23177  -0.00592   0.00000  -0.00768  -0.00766   1.22411
   D34       -2.97479  -0.00482   0.00000  -0.00570  -0.00568  -2.98048
   D35        1.13379   0.01125   0.00000   0.02680   0.02678   1.16057
   D36       -3.04124   0.00923   0.00000   0.02024   0.02024  -3.02100
   D37       -0.96462   0.01033   0.00000   0.02222   0.02221  -0.94241
   D38        2.91513  -0.00396   0.00000   0.00211   0.00210   2.91723
   D39       -1.25990  -0.00598   0.00000  -0.00444  -0.00444  -1.26435
   D40        0.81672  -0.00488   0.00000  -0.00247  -0.00247   0.81425
   D41        3.06492   0.00295   0.00000   0.02904   0.02902   3.09393
   D42       -0.95102  -0.00351   0.00000  -0.01799  -0.01802  -0.96904
   D43        0.95690   0.00157   0.00000   0.00580   0.00586   0.96276
   D44       -1.12297   0.00391   0.00000   0.02836   0.02833  -1.09464
   D45        1.14428  -0.00254   0.00000  -0.01868  -0.01871   1.12557
   D46        3.05220   0.00253   0.00000   0.00512   0.00517   3.05737
   D47        0.96947   0.00180   0.00000   0.02846   0.02843   0.99791
   D48       -3.04646  -0.00465   0.00000  -0.01857  -0.01860  -3.06507
   D49       -1.13854   0.00042   0.00000   0.00522   0.00528  -1.13326
         Item               Value     Threshold  Converged?
 Maximum Force            0.049622     0.000450     NO 
 RMS     Force            0.006968     0.000300     NO 
 Maximum Displacement     0.124733     0.001800     NO 
 RMS     Displacement     0.037526     0.001200     NO 
 Predicted change in Energy=-5.339735D-03
 GradGradGradGradGradGradGradGradGradGradGradGradGradGradGradGradGradGrad

                          Input orientation:                          
 ---------------------------------------------------------------------
 Center     Atomic      Atomic             Coordinates (Angstroms)
 Number     Number       Type             X           Y           Z
 ---------------------------------------------------------------------
      1          6           0       -0.489913   -0.662694   -0.308836
      2          6           0       -1.820220   -0.359725    0.281256
      3          8           0       -2.163864   -0.809687    1.367818
      4          6           0        0.633932   -0.193707    0.325217
      5          6           0        0.516026    2.743966   -0.330894
      6          1           0        1.039610    3.488145   -0.942460
      7          1           0       -0.541174    2.735497   -0.617664
      8          1           0        0.592202    3.037662    0.720790
      9          7           0        1.101022    1.418075   -0.527985
     10          1           0        1.081742    1.202735   -1.529401
     11          1           0        2.106250    1.484214   -0.327738
     12         17           0        2.190883   -1.063470   -0.026775
     13          6           0        0.598344    0.275861    1.778087
     14          1           0       -0.213397    0.989729    1.958802
     15          1           0        0.456114   -0.585200    2.440506
     16          1           0        1.541270    0.763537    2.057728
     17          6           0       -0.511894   -1.448877   -1.588532
     18          1           0        0.435972   -1.393008   -2.136660
     19          1           0       -0.720003   -2.507625   -1.384012
     20          1           0       -1.289997   -1.083844   -2.272470
     21          6           0       -2.765353    0.508174   -0.520634
     22          1           0       -3.627086   -0.082420   -0.851726
     23          1           0       -3.111526    1.326221    0.121023
     24          1           0       -2.273560    0.939681   -1.399109
 ---------------------------------------------------------------------
                    Distance matrix (angstroms):
                    1          2          3          4          5
     1  C    0.000000
     2  C    1.486511   0.000000
     3  O    2.373792   1.225224   0.000000
     4  C    1.372953   2.460154   3.048624   0.000000
     5  C    3.552145   3.932642   4.764020   3.012359   0.000000
     6  H    4.468823   4.947950   5.837036   3.915050   1.096337
     7  H    3.412580   3.467624   4.375339   3.293955   1.095436
     8  H    3.990456   4.189893   4.776676   3.255759   1.094578
     9  N    2.628441   3.514129   4.383660   1.882544   1.462550
    10  H    2.727582   3.760471   4.793504   2.364360   2.032694
    11  H    3.368922   4.380428   5.135248   2.325832   2.028743
    12  Cl   2.725225   4.084004   4.579642   1.817824   4.170636
    13  C    2.533858   2.914433   2.996085   1.527282   3.247479
    14  H    2.819423   2.686459   2.718727   2.187941   2.975250
    15  H    2.908583   3.145615   2.839954   2.158549   4.332159
    16  H    3.429353   3.964490   4.083996   2.177423   3.267834
    17  C    1.502062   2.528651   3.446386   2.559454   4.496466
    18  H    2.175215   3.464736   4.402360   2.745605   4.514616
    19  H    2.147723   2.932076   3.541228   3.179437   5.496911
    20  H    2.161795   2.706843   3.753732   3.352883   4.656562
    21  C    2.567765   1.513127   2.380084   3.572568   3.975200
    22  H    3.236248   2.150654   2.756141   4.421974   5.042331
    23  H    3.318647   2.129686   2.648521   4.047262   3.920888
    24  H    2.633951   2.172004   3.275395   3.565302   3.489745
                    6          7          8          9         10
     6  H    0.000000
     7  H    1.780688   0.000000
     8  H    1.780312   1.779692   0.000000
     9  N    2.112048   2.107238   2.107463   0.000000
    10  H    2.359952   2.411323   2.944481   1.024489   0.000000
    11  H    2.351881   2.942553   2.409348   1.027111   1.604008
    12  Cl   4.783419   4.716507   4.464742   2.756279   2.936625
    13  C    4.232595   3.617725   2.957273   2.622081   3.468753
    14  H    4.028577   3.129428   2.525013   2.845222   3.726972
    15  H    5.327013   4.623205   4.012615   3.638813   4.398669
    16  H    4.083660   3.922107   2.803530   2.703359   3.643015
    17  C    5.215243   4.295629   5.165368   3.456251   3.094223
    18  H    5.061240   4.506298   5.274492   3.306405   2.742930
    19  H    6.264221   5.301849   6.074725   4.411353   4.127250
    20  H    5.300856   4.229242   5.430386   3.875539   3.377239
    21  C    4.851382   3.149183   4.383220   3.972006   4.037346
    22  H    5.876668   4.185487   5.478149   4.971047   4.927873
    23  H    4.799671   3.022983   4.123875   4.263239   4.508064
    24  H    4.204794   2.614723   4.136193   3.517886   3.368119
                   11         12         13         14         15
    11  H    0.000000
    12  Cl   2.566794   0.000000
    13  C    2.858041   2.754545   0.000000
    14  H    3.294472   3.733458   1.095988   0.000000
    15  H    3.829961   3.053792   1.095653   1.777832   0.000000
    16  H    2.555196   2.846946   1.097787   1.771950   1.772900
    17  C    4.128838   3.145255   3.942268   4.315030   4.232745
    18  H    3.786877   2.764041   4.258724   4.782460   4.647947
    19  H    5.003819   3.521496   4.414148   4.864415   4.439134
    20  H    4.680961   4.142474   4.671364   4.833470   5.050712
    21  C    4.972161   5.222858   4.080753   3.590540   4.510174
    22  H    5.966578   5.957497   4.989844   4.549928   5.269165
    23  H    5.239421   5.817904   4.196695   3.448160   4.664932
    24  H    4.541706   5.082044   4.333944   3.939840   4.951670
                   16         17         18         19         20
    16  H    0.000000
    17  C    4.733442   0.000000
    18  H    4.844095   1.096364   0.000000
    19  H    5.259223   1.098219   1.773451   0.000000
    20  H    5.493587   1.098391   1.758692   1.772400   0.000000
    21  C    5.025949   3.169942   4.058881   3.744853   2.789287
    22  H    5.991033   3.480590   4.458378   3.823098   2.912619
    23  H    5.071089   4.169153   5.007603   4.762656   3.854243
    24  H    5.151085   2.973980   3.650614   3.781228   2.413464
                   21         22         23         24
    21  C    0.000000
    22  H    1.095905   0.000000
    23  H    1.095793   1.787824   0.000000
    24  H    1.095343   1.782233   1.778315   0.000000
 Stoichiometry    C7H14ClNO
 Framework group  C1[X(C7H14ClNO)]
 Deg. of freedom    66
 Full point group                 C1      NOp   1
 Largest Abelian subgroup         C1      NOp   1
 Largest concise Abelian subgroup C1      NOp   1
                         Standard orientation:                         
 ---------------------------------------------------------------------
 Center     Atomic      Atomic             Coordinates (Angstroms)
 Number     Number       Type             X           Y           Z
 ---------------------------------------------------------------------
      1          6           0       -0.501559   -0.669489   -0.303221
      2          6           0       -1.828471   -0.331970    0.275658
      3          8           0       -2.184133   -0.755270    1.369045
      4          6           0        0.628062   -0.208640    0.326520
      5          6           0        0.564873    2.717807   -0.384975
      6          1           0        1.103897    3.440968   -1.008230
      7          1           0       -0.491228    2.722671   -0.675849
      8          1           0        0.642315    3.029827    0.661326
      9          7           0        1.126935    1.378294   -0.554808
     10          1           0        1.107583    1.144541   -1.552086
     11          1           0        2.132422    1.430374   -0.351733
     12         17           0        2.170611   -1.112301   -0.002762
     13          6           0        0.595383    0.288715    1.770182
     14          1           0       -0.204208    1.020117    1.934179
     15          1           0        0.435382   -0.557087    2.448027
     16          1           0        1.545777    0.764788    2.044486
     17          6           0       -0.532718   -1.479078   -1.568047
     18          1           0        0.418040   -1.450318   -2.113250
     19          1           0       -0.760386   -2.529943   -1.344583
     20          1           0       -1.301638   -1.113246   -2.261872
     21          6           0       -2.755009    0.537301   -0.546200
     22          1           0       -3.625861   -0.044061   -0.869686
     23          1           0       -3.088984    1.373269    0.078605
     24          1           0       -2.252331    0.943440   -1.430588
 ---------------------------------------------------------------------
 Rotational constants (GHZ):           1.2842933           0.8526737           0.7201697
 Standard basis: STO-3G (5D, 7F)
 There are    68 symmetry adapted cartesian basis functions of A   symmetry.
 There are    68 symmetry adapted basis functions of A   symmetry.
    68 basis functions,   204 primitive gaussians,    68 cartesian basis functions
    44 alpha electrons       44 beta electrons
       nuclear repulsion energy       665.1670687100 Hartrees.
 NAtoms=   24 NActive=   24 NUniq=   24 SFac= 1.00D+00 NAtFMM=   60 NAOKFM=F Big=F
 Integral buffers will be    131072 words long.
 Raffenetti 1 integral format.
 Two-electron integral symmetry is turned on.
 External calculation of energy, first and second derivatives.
 Running external command "~/scripts/MiMe -H 'hf 6-31g(d)' -EF 'wb97xd def2svp' -c 12 -m 48GB R"
         input file       "/local/jobs/1157672/Gau-609039.EIn"
         output file      "/local/jobs/1157672/Gau-609039.EOu"
         message file     "/local/jobs/1157672/Gau-609039.EMs"
         fchk file        "/local/jobs/1157672/Gau-609039.EFC"
         mat. el file     "/local/jobs/1157672/Gau-609039.EUF"
 Read checkpoint file Gau-609039_H.chk type G16
 Write formatted file Gau-609039_H.fchk

deriv: 2

spelevel: wb97xd def2svp
gradlevel: wb97xd def2svp
hesslevel: hf 6-31g(d)

runspe: False
runforce: True
runfreq: True

Running Gaussian ...

Parsing files ...
SPE file: Gau-609039_F.out
FORCE file: Gau-609039_F.out
HESS file: Gau-609039_H.out

 ExternalExternalExternalExternalExternalExternalExternalExternalExternalExternal
 Output from external command:
 "~/scripts/MiMe -H 'hf 6-31g(d)' -EF 'wb97xd def2svp' -c 12 -m 48GB R /local/jobs/1157672/Gau-609039.EIn /local/jobs/1157672/Gau-609039.EOu /local/jobs/1157672/Gau-609039.EMs /local/jobs/1157672/Gau-609039.EFC /local/jobs/1157672/Gau-609039.EUF"
  
 --------------------------------------------------
 Force calculation at wb97xd def2svp
 Hessian calculation at hf 6-31g(d)
 ExternalExternalExternalExternalExternalExternalExternalExternalExternalExternal

 Recovered energy= -864.698602269     dipole=      2.402200000000      5.345900000000     -2.821100000000
 Energy=    -864.698602     NIter=   0.
 Dipole moment=       2.402200       5.345900      -2.821100
 ***** Axes restored to original set *****
 -------------------------------------------------------------------
 Center     Atomic                   Forces (Hartrees/Bohr)
 Number     Number              X              Y              Z
 -------------------------------------------------------------------
      1        6          -0.000276602   -0.003818515    0.007663726
      2        6           0.005252893   -0.017702248    0.016270152
      3        8           0.000130455    0.014693804   -0.009287851
      4        6          -0.033328301   -0.035343125    0.022136019
      5        6          -0.002480741   -0.004989461    0.000944303
      6        1          -0.000962651    0.004847261   -0.001134617
      7        1          -0.002900494   -0.001287174    0.000351248
      8        1           0.000131472   -0.000098592    0.002466096
      9        7           0.043939434    0.040415343   -0.018644448
     10        1          -0.004414576   -0.005896298    0.003520357
     11        1          -0.002434770    0.000683171   -0.000554391
     12       17          -0.000264968    0.006860993   -0.002301804
     13        6           0.006624974    0.000431264   -0.008094938
     14        1          -0.003090260   -0.000985865   -0.000964151
     15        1          -0.001750715   -0.001123487   -0.000727778
     16        1           0.002227760    0.000852492   -0.000670200
     17        6           0.002497771    0.007081670   -0.001418033
     18        1           0.003117391   -0.001062203   -0.000634906
     19        1          -0.000527820   -0.003999544   -0.001892791
     20        1          -0.003918139   -0.000303929   -0.002692096
     21        6           0.000721891   -0.000603913   -0.003814468
     22        1          -0.004584769    0.000522743    0.000387835
     23        1          -0.003651620    0.000326289    0.002177784
     24        1          -0.000057612    0.000499327   -0.003085051
 -------------------------------------------------------------------
 Cartesian Forces:  Max     0.043939434 RMS     0.010705458
 FormGI is forming the generalized inverse of G from B-inverse, IUseBI=4.

 GradGradGradGradGradGradGradGradGradGradGradGradGradGradGradGradGradGrad
 Berny optimization.
 Internal  Forces:  Max     0.042402899 RMS     0.005876976
 Search for a saddle point.
 Step number   3 out of a maximum of   50
 All quantities printed in internal units (Hartrees-Bohrs-Radians)
 Swapping is turned off.
 Second derivative matrix not updated -- analytic derivatives used.
 ITU=  0  0  0
     Eigenvalues ---   -0.06282   0.00467   0.00511   0.00720   0.00940
     Eigenvalues ---    0.01208   0.01302   0.01634   0.02350   0.03528
     Eigenvalues ---    0.04584   0.05121   0.05694   0.05864   0.06153
     Eigenvalues ---    0.06272   0.06914   0.07284   0.07381   0.07639
     Eigenvalues ---    0.07777   0.08320   0.09652   0.11530   0.12285
     Eigenvalues ---    0.12819   0.15407   0.15587   0.15758   0.16485
     Eigenvalues ---    0.16640   0.17473   0.18332   0.18564   0.19170
     Eigenvalues ---    0.19308   0.19682   0.21093   0.21368   0.22031
     Eigenvalues ---    0.22776   0.24530   0.25727   0.27030   0.31119
     Eigenvalues ---    0.32932   0.33813   0.34377   0.34620   0.34735
     Eigenvalues ---    0.35021   0.35199   0.35343   0.35479   0.35846
     Eigenvalues ---    0.36054   0.36136   0.36241   0.37734   0.38122
     Eigenvalues ---    0.39837   0.43148   0.44010   0.44250   0.57857
     Eigenvalues ---    0.85102
 Eigenvectors required to have negative eigenvalues:
                          R6        A19       D6        D5        R2
   1                   -0.81149  -0.20914  -0.17506  -0.15126   0.14238
                          D1        A11       A21       D9        D2
   1                    0.13408   0.13083   0.12984  -0.12598   0.12422
[...]
     3   8     0.00  -0.00  -0.00     0.00   0.00  -0.00     0.00  -0.00  -0.00
     4   6     0.00  -0.00   0.00    -0.00   0.00   0.00    -0.00  -0.00   0.00
     5   6     0.00  -0.00   0.00    -0.00   0.00  -0.00    -0.03   0.03  -0.02
     6   1     0.00   0.00  -0.01    -0.01  -0.01   0.04    -0.20  -0.18   0.50
     7   1    -0.01  -0.00  -0.00     0.05   0.01   0.00     0.68   0.15   0.04
     8   1     0.00   0.01   0.01    -0.01  -0.03  -0.04    -0.06  -0.30  -0.30
     9   7    -0.00  -0.00   0.00     0.00   0.00   0.00     0.00   0.00  -0.00
    10   1     0.00   0.00   0.00     0.00  -0.00  -0.00    -0.00   0.00   0.00
    11   1    -0.00  -0.00  -0.00     0.00  -0.00  -0.00    -0.01   0.00   0.00
    12  17     0.00   0.00   0.00     0.00   0.00   0.00    -0.00   0.00  -0.00
    13   6    -0.00  -0.00  -0.00    -0.04  -0.03  -0.03     0.00   0.00   0.00
    14   1    -0.01   0.02  -0.00    -0.21   0.29  -0.04     0.01  -0.01   0.00
    15   1    -0.01  -0.01   0.01    -0.13  -0.18   0.26     0.01   0.01  -0.02
    16   1     0.06   0.01   0.01     0.82   0.20   0.15    -0.07  -0.02  -0.01
    17   6    -0.01  -0.07   0.01     0.00   0.00  -0.00    -0.00  -0.00  -0.00
    18   1    -0.37   0.13   0.07    -0.00   0.00  -0.00    -0.01   0.00   0.00
    19   1     0.49   0.62  -0.13    -0.04  -0.05   0.01     0.01   0.01  -0.00
    20   1    -0.04   0.04  -0.09     0.00   0.00  -0.00     0.00  -0.00   0.00
    21   6    -0.01  -0.01  -0.02     0.00   0.00   0.00    -0.00   0.00  -0.00
    22   1     0.01   0.22  -0.04    -0.00  -0.02   0.00    -0.00   0.00  -0.00
    23   1     0.13  -0.07  -0.07    -0.01   0.00   0.01     0.00  -0.00  -0.00
    24   1     0.01  -0.06   0.31    -0.00   0.00  -0.02     0.00  -0.00   0.01
                     58                     59                     60
                      A                      A                      A
 Frequencies --   3112.9874              3117.8389              3163.3336
 Red. masses --      1.0962                 1.1001                 1.1062
 Frc consts  --      6.2587                 6.3009                 6.5218
 IR Inten    --      0.0000                 0.0000                 0.0000
  Atom  AN      X      Y      Z        X      Y      Z        X      Y      Z
     1   6     0.00  -0.00  -0.00     0.00   0.00  -0.00    -0.00   0.00  -0.00
     2   6    -0.00   0.00  -0.00    -0.00  -0.00   0.00     0.00  -0.00  -0.00
     3   8     0.00   0.00   0.00     0.00  -0.00   0.00     0.00   0.00   0.00
     4   6    -0.00   0.00   0.00    -0.00  -0.00   0.00     0.00  -0.00  -0.00
     5   6    -0.00  -0.00  -0.00    -0.00   0.00  -0.00     0.07   0.04  -0.04
     6   1    -0.00  -0.00   0.00    -0.00  -0.00   0.01    -0.25  -0.23   0.65
     7   1     0.00   0.00   0.00     0.00   0.00   0.00    -0.64  -0.14  -0.05
     8   1     0.00  -0.00  -0.00    -0.00  -0.00  -0.00    -0.00  -0.06  -0.08
     9   7     0.00   0.00   0.00    -0.00   0.00   0.00    -0.00  -0.00   0.00
    10   1     0.00  -0.00  -0.01     0.00  -0.00  -0.00    -0.00  -0.00  -0.00
    11   1     0.00  -0.00  -0.00    -0.00  -0.00  -0.00     0.01   0.01  -0.00
    12  17    -0.00  -0.00  -0.00    -0.00  -0.00  -0.00     0.00  -0.00   0.00
    13   6    -0.00  -0.00  -0.00     0.00  -0.00  -0.00     0.00   0.00  -0.00
    14   1    -0.01   0.01  -0.00    -0.00   0.00  -0.00    -0.01   0.01  -0.00
    15   1    -0.01  -0.01   0.01    -0.00  -0.00   0.00    -0.01  -0.01   0.02
    16   1     0.02   0.01   0.00     0.00   0.00   0.00    -0.02  -0.00  -0.00
    17   6    -0.09   0.00   0.01    -0.01  -0.00   0.00    -0.00   0.00   0.00
    18   1     0.82  -0.33  -0.13     0.10  -0.04  -0.02     0.00  -0.00  -0.00
    19   1     0.23   0.32  -0.07     0.07   0.09  -0.02     0.00   0.00  -0.00
    20   1     0.01  -0.04   0.07    -0.01   0.01  -0.01    -0.00   0.00  -0.00
    21   6    -0.00   0.01  -0.01    -0.00  -0.07   0.06    -0.00   0.00   0.00
    22   1    -0.00  -0.06   0.01     0.04   0.70  -0.08    -0.00  -0.00   0.00
    23   1     0.04  -0.02  -0.02     0.01  -0.02   0.01     0.01  -0.00  -0.00
    24   1     0.00  -0.02   0.14    -0.02   0.10  -0.68     0.00   0.00   0.00
                     61                     62                     63
                      A                      A                      A
 Frequencies --   3170.4304              3171.1373              3186.7081
 Red. masses --      1.1007                 1.0943                 1.1054
 Frc consts  --      6.5188                 6.4839                 6.6137
 IR Inten    --      0.0000                 0.0000                 0.0000
  Atom  AN      X      Y      Z        X      Y      Z        X      Y      Z
     1   6     0.00  -0.00  -0.00    -0.00  -0.00  -0.00    -0.00  -0.00   0.00
     2   6    -0.00   0.00   0.00     0.00  -0.00  -0.00     0.00  -0.00  -0.00
     3   8     0.00  -0.00  -0.00     0.00   0.00   0.00    -0.00  -0.00   0.00
     4   6     0.00   0.00  -0.00     0.00   0.00  -0.00    -0.00   0.00  -0.00
     5   6    -0.00   0.00   0.00     0.00   0.00   0.01    -0.02  -0.04  -0.06
     6   1     0.01   0.01  -0.01     0.02   0.02  -0.06    -0.10  -0.10   0.25
     7   1     0.00   0.00   0.00    -0.02  -0.00   0.00     0.21   0.04   0.00
     8   1    -0.00  -0.01  -0.01    -0.01  -0.06  -0.06     0.10   0.50   0.51
     9   7    -0.00  -0.00   0.00    -0.00  -0.00   0.00     0.00   0.00   0.00
    10   1     0.00   0.00   0.00    -0.00   0.00   0.00    -0.00  -0.01  -0.02
    11   1    -0.00  -0.00   0.00    -0.00   0.00   0.00    -0.01  -0.00   0.00
    12  17    -0.00   0.00   0.00    -0.00   0.00   0.00     0.00  -0.00   0.00
    13   6     0.02   0.00  -0.01     0.08   0.01  -0.04    -0.01   0.04  -0.03
    14   1    -0.05   0.07  -0.01    -0.23   0.35  -0.05     0.25  -0.35   0.04
    15   1    -0.05  -0.08   0.11    -0.26  -0.39   0.58    -0.15  -0.19   0.30
    16   1    -0.09  -0.02  -0.02    -0.43  -0.10  -0.08     0.04   0.01   0.01
    17   6     0.00   0.00  -0.00    -0.00  -0.00  -0.00     0.00   0.00  -0.00
    18   1    -0.02   0.01   0.00    -0.00   0.00   0.00    -0.00   0.00   0.00
    19   1    -0.01  -0.02   0.00     0.00   0.00  -0.00    -0.00  -0.00   0.00
    20   1    -0.00   0.00  -0.00     0.00  -0.00   0.00     0.00  -0.00   0.00
    21   6    -0.06   0.05   0.05     0.01  -0.01  -0.01     0.00  -0.00  -0.00
    22   1    -0.02  -0.23   0.04     0.00   0.05  -0.01     0.00   0.00   0.00
    23   1     0.71  -0.41  -0.40    -0.14   0.08   0.08    -0.00   0.00   0.00
    24   1    -0.01   0.05  -0.23     0.00  -0.01   0.05    -0.00  -0.00   0.00
                     64                     65                     66
                      A                      A                      A
 Frequencies --   3195.7146              3519.1672              3596.1950
 Red. masses --      1.1027                 1.0539                 1.0974
 Frc consts  --      6.6351                 7.6902                 8.3620
 IR Inten    --      0.0000                 0.0000                 0.0000
  Atom  AN      X      Y      Z        X      Y      Z        X      Y      Z
     1   6    -0.00   0.00  -0.00     0.00   0.00   0.00     0.00   0.00   0.00
     2   6    -0.00  -0.00  -0.00    -0.00   0.00   0.00     0.00  -0.00  -0.00
     3   8     0.00   0.00   0.00     0.00  -0.00  -0.00    -0.00  -0.00   0.00
     4   6     0.00  -0.00   0.00    -0.00  -0.00   0.00     0.00   0.00  -0.00
     5   6    -0.01  -0.03  -0.04     0.00  -0.00   0.00    -0.00  -0.00  -0.00
     6   1    -0.07  -0.06   0.16     0.00   0.00  -0.01    -0.00  -0.00   0.00
     7   1     0.14   0.03   0.00     0.01  -0.00   0.00     0.01  -0.00   0.00
     8   1     0.07   0.36   0.37     0.00  -0.01  -0.00     0.00   0.02   0.01
     9   7     0.00   0.00   0.00    -0.05   0.03   0.02    -0.04  -0.04  -0.06
    10   1    -0.00  -0.00  -0.01     0.02  -0.44  -0.50    -0.04   0.48   0.56
    11   1    -0.00  -0.00   0.00     0.68   0.12   0.26     0.62   0.11   0.22
    12  17    -0.00   0.00   0.00     0.00   0.00  -0.00     0.00   0.00   0.00
    13   6     0.03  -0.06   0.03     0.00   0.00  -0.00    -0.00  -0.00   0.00
    14   1    -0.40   0.57  -0.07    -0.00  -0.00   0.00    -0.00   0.00  -0.00
    15   1     0.16   0.19  -0.30     0.00  -0.00  -0.00     0.00   0.00   0.00
    16   1    -0.12  -0.03  -0.02     0.00   0.00   0.00     0.00   0.00   0.00
    17   6     0.00   0.00  -0.00     0.00  -0.00  -0.00    -0.00   0.00   0.00
    18   1    -0.00   0.00   0.00    -0.00   0.00  -0.00     0.00  -0.00   0.00
    19   1    -0.00  -0.00   0.00    -0.00   0.00   0.00     0.00   0.00  -0.00
    20   1     0.00  -0.00   0.00     0.00   0.00   0.00    -0.00   0.00  -0.00
    21   6     0.00  -0.00  -0.00    -0.00  -0.00  -0.00    -0.00   0.00   0.00
    22   1    -0.00   0.00  -0.00     0.00   0.00  -0.00    -0.00  -0.00   0.00
    23   1    -0.00   0.00   0.00     0.00  -0.00   0.00     0.00  -0.00  -0.00
    24   1     0.00  -0.00   0.00     0.00  -0.00   0.00    -0.00   0.00  -0.00

 -------------------
 - Thermochemistry -
 -------------------
 Temperature   298.150 Kelvin.  Pressure   1.00000 Atm.
 Atom     1 has atomic number  6 and mass  12.00000
 Atom     2 has atomic number  6 and mass  12.00000
 Atom     3 has atomic number  8 and mass  15.99491
 Atom     4 has atomic number  6 and mass  12.00000
 Atom     5 has atomic number  6 and mass  12.00000
 Atom     6 has atomic number  1 and mass   1.00783
 Atom     7 has atomic number  1 and mass   1.00783
 Atom     8 has atomic number  1 and mass   1.00783
 Atom     9 has atomic number  7 and mass  14.00307
 Atom    10 has atomic number  1 and mass   1.00783
 Atom    11 has atomic number  1 and mass   1.00783
 Atom    12 has atomic number 17 and mass  34.96885
 Atom    13 has atomic number  6 and mass  12.00000
 Atom    14 has atomic number  1 and mass   1.00783
 Atom    15 has atomic number  1 and mass   1.00783
 Atom    16 has atomic number  1 and mass   1.00783
 Atom    17 has atomic number  6 and mass  12.00000
 Atom    18 has atomic number  1 and mass   1.00783
 Atom    19 has atomic number  1 and mass   1.00783
 Atom    20 has atomic number  1 and mass   1.00783
 Atom    21 has atomic number  6 and mass  12.00000
 Atom    22 has atomic number  1 and mass   1.00783
 Atom    23 has atomic number  1 and mass   1.00783
 Atom    24 has atomic number  1 and mass   1.00783
 Molecular mass:   163.07639 amu.
 Principal axes and moments of inertia in atomic units:
                           1         2         3
     Eigenvalues --  1297.287882228.997602428.65034
           X            0.99647   0.08235   0.01615
           Y           -0.08322   0.99450   0.06357
           Z           -0.01082  -0.06469   0.99785
 This molecule is an asymmetric top.
 Rotational symmetry number  1.
 Warning -- assumption of classical behavior for rotation
           may cause significant error
 Rotational temperatures (Kelvin)      0.06677     0.03886     0.03566
 Rotational constants (GHZ):           1.39116     0.80966     0.74310
    1 imaginary frequencies ignored.
 Zero-point vibrational energy     575697.9 (Joules/Mol)
                                  137.59510 (Kcal/Mol)
 Warning -- explicit consideration of  18 degrees of freedom as
           vibrations may cause significant error
 Vibrational temperatures:    135.12   184.52   249.68   313.39   357.77
          (Kelvin)            389.28   491.09   505.47   521.23   557.08
                              574.03   590.90   616.61   641.89   721.75
                              756.97   793.96   887.47   944.91  1050.93
                             1095.12  1352.86  1461.90  1584.44  1611.04
                             1670.69  1683.58  1717.96  1731.42  1746.94
                             1804.13  1839.39  1849.15  2079.49  2095.72
                             2131.01  2176.88  2258.57  2310.73  2313.40
                             2334.85  2338.42  2342.48  2361.77  2363.07
                             2388.18  2393.81  2395.90  2412.43  2565.04
                             2647.81  4323.29  4421.75  4433.82  4446.58
                             4452.93  4478.89  4485.87  4551.33  4561.54
                             4562.56  4584.96  4597.92  5063.30  5174.12
 
 Zero-point correction=                           0.219272 (Hartree/Particle)
 Thermal correction to Energy=                    0.229579
 Thermal correction to Enthalpy=                  0.230524
 Thermal correction to Gibbs Free Energy=         0.184115
 Sum of electronic and zero-point Energies=           -864.509655
 Sum of electronic and thermal Energies=              -864.499347
 Sum of electronic and thermal Enthalpies=            -864.498403
 Sum of electronic and thermal Free Energies=         -864.544811
 
                     E (Thermal)             CV                S
                      KCal/Mol        Cal/Mol-Kelvin    Cal/Mol-Kelvin
 Total                  144.063             39.746             97.675
 Electronic               0.000              0.000              0.000
 Translational            0.889              2.981             41.176
 Rotational               0.889              2.981             30.330
 Vibrational            142.286             33.785             26.169
 Vibration     1          0.603              1.954              3.577
 Vibration     2          0.611              1.925              2.972
 Vibration     3          0.627              1.875              2.397
 Vibration     4          0.646              1.814              1.977
 Vibration     5          0.662              1.765              1.740
 Vibration     6          0.674              1.727              1.593
 Vibration     7          0.721              1.593              1.206
 Vibration     8          0.728              1.573              1.160
 Vibration     9          0.736              1.550              1.112
 Vibration    10          0.756              1.498              1.011
 Vibration    11          0.765              1.472              0.966
 Vibration    12          0.775              1.447              0.924
 Vibration    13          0.790              1.408              0.863
 Vibration    14          0.805              1.369              0.808
 Vibration    15          0.857              1.246              0.654
 Vibration    16          0.881              1.192              0.596
 Vibration    17          0.907              1.136              0.540
 Vibration    18          0.977              0.996              0.422
                       Q            Log10(Q)             Ln(Q)
 Total Bot       0.205593D-84        -84.686992       -194.999005
 Total V=0       0.148226D+17         16.170925         37.234931
 Vib (Bot)       0.264769D-98        -98.577134       -226.982238
 Vib (Bot)    1  0.218778D+01          0.340004          0.782887
 Vib (Bot)    2  0.159033D+01          0.201489          0.463944
 Vib (Bot)    3  0.115993D+01          0.064431          0.148358
 Vib (Bot)    4  0.908957D+00         -0.041457         -0.095457
 Vib (Bot)    5  0.785388D+00         -0.104916         -0.241577
 Vib (Bot)    6  0.714078D+00         -0.146254         -0.336762
 Vib (Bot)    7  0.543562D+00         -0.264751         -0.609611
 Vib (Bot)    8  0.524715D+00         -0.280077         -0.644900
 Vib (Bot)    9  0.505174D+00         -0.296559         -0.682852
 Vib (Bot)   10  0.464607D+00         -0.332914         -0.766563
 Vib (Bot)   11  0.447079D+00         -0.349616         -0.805020
 Vib (Bot)   12  0.430563D+00         -0.365963         -0.842661
 Vib (Bot)   13  0.407015D+00         -0.390389         -0.898905
 Vib (Bot)   14  0.385588D+00         -0.413877         -0.952986
 Vib (Bot)   15  0.327153D+00         -0.485249         -1.117328
 Vib (Bot)   16  0.305076D+00         -0.515593         -1.187196
 Vib (Bot)   17  0.283884D+00         -0.546859         -1.259190
 Vib (Bot)   18  0.237883D+00         -0.623637         -1.435978
 Vib (V=0)       0.190890D+03          2.280784          5.251698
 Vib (V=0)    1  0.274419D+01          0.438414          1.009485
 Vib (V=0)    2  0.216708D+01          0.335875          0.773382
 Vib (V=0)    3  0.176310D+01          0.246278          0.567076
 Vib (V=0)    4  0.153740D+01          0.186788          0.430094
 Vib (V=0)    5  0.143104D+01          0.155652          0.358401
 Vib (V=0)    6  0.137173D+01          0.137268          0.316071
 Vib (V=0)    7  0.123855D+01          0.092914          0.213943
 Vib (V=0)    8  0.122479D+01          0.088063          0.202772
 Vib (V=0)    9  0.121077D+01          0.083063          0.191260
 Vib (V=0)   10  0.118254D+01          0.072816          0.167664
 Vib (V=0)   11  0.117073D+01          0.068457          0.157628
 Vib (V=0)   12  0.115984D+01          0.064397          0.148279
 Vib (V=0)   13  0.114472D+01          0.058699          0.135158
 Vib (V=0)   14  0.113141D+01          0.053620          0.123464
 Vib (V=0)   15  0.109752D+01          0.040412          0.093052
 Vib (V=0)   16  0.108572D+01          0.035719          0.082246
 Vib (V=0)   17  0.107497D+01          0.031396          0.072292
 Vib (V=0)   18  0.105370D+01          0.022719          0.052312
 Electronic      0.100000D+01          0.000000          0.000000
 Translational   0.818541D+08          7.913041         18.220449
 Rotational      0.948639D+06          5.977101         13.762784
 ***** Axes restored to original set *****
 -------------------------------------------------------------------
 Center     Atomic                   Forces (Hartrees/Bohr)
 Number     Number              X              Y              Z
 -------------------------------------------------------------------
      1        6           0.000000015    0.000007028   -0.000002798
      2        6           0.000002770    0.000002235   -0.000004199
      3        8           0.000002406   -0.000014000    0.000007396
      4        6           0.000006924    0.000006548   -0.000001447
      5        6           0.000001331    0.000004839    0.000004689
      6        1          -0.000007099    0.000002857    0.000000311
      7        1          -0.000000772   -0.000006187    0.000002204
      8        1          -0.000006388    0.000003516   -0.000000113
      9        7          -0.000008524   -0.000004249   -0.000005524
     10        1           0.000003652   -0.000000080    0.000004869
     11        1          -0.000001490    0.000011961    0.000001819
     12       17           0.000003748   -0.000000246   -0.000002486
     13        6          -0.000001007   -0.000003570   -0.000000962
     14        1          -0.000008278   -0.000006308    0.000001051
     15        1           0.000008727   -0.000003064    0.000001367
     16        1           0.000001119    0.000007031   -0.000002507
     17        6          -0.000001560   -0.000011867   -0.000000500
     18        1          -0.000005724   -0.000031596    0.000016913
     19        1          -0.000030100    0.000024170   -0.000024330
     20        1           0.000039887    0.000017693    0.000004903
     21        6           0.000002830   -0.000000877   -0.000004507
     22        1          -0.000009397   -0.000004355    0.000011500
     23        1           0.000002519    0.000007140   -0.000003009
     24        1           0.000004408   -0.000008615   -0.000004642
 -------------------------------------------------------------------
 Cartesian Forces:  Max     0.000039887 RMS     0.000009970


 SOME PEOPLE TRY TO PULL THE WOOL OVER YOUR EYES
 USING THE WRONG YARN.
 Error termination request processed by link 9999.
 Error termination via Lnk1e in /apps/gaussian/g16/C.01/g16/l9999.exe at Wed Jan 17 00:15:18 2024.
 Job cpu time:       0 days  7 hours 24 minutes 34.5 seconds.
 Elapsed time:       0 days  1 hours 12 minutes 42.9 seconds.
 File lengths (MBytes):  RWF=      6 Int=      0 D2E=      0 Chk=      2 Scr=      1
