Unloading slurm/anatra/current
  ERROR: No such file or directory on
    '/cm/local/modulefiles/slurm/anatra/current'
environment: line 0: unalias: gv: not found
environment: line 0: unalias: sl: not found
 Entering Gaussian System, Link 0=g16
 Initial command:
 /apps/gaussian/g16/C.01/g16/l1.exe "/local/jobs/1176108/Gau-587160.inp" -scrdir="/local/jobs/1176108/"
 Entering Link 1 = /apps/gaussian/g16/C.01/g16/l1.exe PID=    587164.
  
 Copyright (c) 1988-2019, Gaussian, Inc.  All Rights Reserved.
  
 This is part of the Gaussian(R) 16 program.  It is based on
 the Gaussian(R) 09 system (copyright 2009, Gaussian, Inc.),
 the Gaussian(R) 03 system (copyright 2003, Gaussian, Inc.),
 the Gaussian(R) 98 system (copyright 1998, Gaussian, Inc.),
 the Gaussian(R) 94 system (copyright 1995, Gaussian, Inc.),
 the Gaussian 92(TM) system (copyright 1992, Gaussian, Inc.),
 the Gaussian 90(TM) system (copyright 1990, Gaussian, Inc.),
 the Gaussian 88(TM) system (copyright 1988, Gaussian, Inc.),
 the Gaussian 86(TM) system (copyright 1986, Carnegie Mellon
 University), and the Gaussian 82(TM) system (copyright 1983,
 Carnegie Mellon University). Gaussian is a federally registered
 trademark of Gaussian, Inc.
  
 This software contains proprietary and confidential information,
 including trade secrets, belonging to Gaussian, Inc.
  
 This software is provided under written license and may be
 used, copied, transmitted, or stored only in accord with that
 written license.
  
 The following legend is applicable only to US Government
 contracts under FAR:
  
                    RESTRICTED RIGHTS LEGEND
  
 Use, reproduction and disclosure by the US Government is
 subject to restrictions as set forth in subparagraphs (a)
 and (c) of the Commercial Computer Software - Restricted
 Rights clause in FAR 52.227-19.
  
 Gaussian, Inc.
 340 Quinnipiac St., Bldg. 40, Wallingford CT 06492
  
  
 ---------------------------------------------------------------
 Warning -- This program may not be used in any manner that
 competes with the business of Gaussian, Inc. or will provide
 assistance to any competitor of Gaussian, Inc.  The licensee
 of this program is prohibited from giving any competitor of
 Gaussian, Inc. access to this program.  By using this program,
 the user acknowledges that Gaussian, Inc. is engaged in the
 business of creating and licensing software in the field of
 computational chemistry and represents and warrants to the
 licensee that it is not a competitor of Gaussian, Inc. and that
 it will not use this program in any manner prohibited above.
 ---------------------------------------------------------------
  

 Cite this work as:
 Gaussian 16, Revision C.01,
 M. J. Frisch, G. W. Trucks, H. B. Schlegel, G. E. Scuseria, 
 M. A. Robb, J. R. Cheeseman, G. Scalmani, V. Barone, 
 G. A. Petersson, H. Nakatsuji, X. Li, M. Caricato, A. V. Marenich, 
 J. Bloino, B. G. Janesko, R. Gomperts, B. Mennucci, H. P. Hratchian, 
 J. V. Ortiz, A. F. Izmaylov, J. L. Sonnenberg, D. Williams-Young, 
 F. Ding, F. Lipparini, F. Egidi, J. Goings, B. Peng, A. Petrone, 
 T. Henderson, D. Ranasinghe, V. G. Zakrzewski, J. Gao, N. Rega, 
 G. Zheng, W. Liang, M. Hada, M. Ehara, K. Toyota, R. Fukuda, 
 J. Hasegawa, M. Ishida, T. Nakajima, Y. Honda, O. Kitao, H. Nakai, 
 T. Vreven, K. Throssell, J. A. Montgomery, Jr., J. E. Peralta, 
 F. Ogliaro, M. J. Bearpark, J. J. Heyd, E. N. Brothers, K. N. Kudin, 
 V. N. Staroverov, T. A. Keith, R. Kobayashi, J. Normand, 
 K. Raghavachari, A. P. Rendell, J. C. Burant, S. S. Iyengar, 
 J. Tomasi, M. Cossi, J. M. Millam, M. Klene, C. Adamo, R. Cammi, 
 J. W. Ochterski, R. L. Martin, K. Morokuma, O. Farkas, 
 J. B. Foresman, and D. J. Fox, Gaussian, Inc., Wallingford CT, 2019.
 
 ******************************************
 Gaussian 16:  ES64L-G16RevC.01  3-Jul-2019
                20-May-2024 
 ******************************************
 %nprocshared=12
 Will use up to   12 processors via shared memory.
 %mem=48GB
 ----------------------------------------------------------------------
 # external="~/scripts/MiMe -H 'am1' -EF 'wb97xd def2svp' -c 12 -m 48GB
 " opt=(calcall,ts,noeigen,maxcycles=50,maxstep=10,nomicro,cartesian)
 ----------------------------------------------------------------------
 1/5=1,6=50,8=10,10=4,11=1,18=10,26=1,38=1/1,3;
 2/12=2,17=6,18=5,29=2,40=1/2;
 3/11=9,25=1,30=1,41=9900000,43=2,71=2,140=1/1;
 4/20=17,22=2,24=3,113=1,114=1/2;
 6/7=2,8=2,9=2,10=2,18=1/1;
 7/7=1,25=1,44=-1/16;
 1/5=1,6=50,8=10,10=4,11=1,18=10,26=1/3(3);
 2/29=1/2;
 7/7=1,8=1,9=1,25=1,44=-1/16;
 99/12=1/99;
 2/29=1/2;
 3/11=9,25=1,30=1,41=9900000,43=2,71=2,140=1/1;
 4/16=2,20=17,22=2,24=3,113=1,114=1/2;
 7/7=1,25=1,44=-1/16;
 1/5=1,6=50,8=10,10=4,11=1,18=10,26=1/3(-4);
 2/29=1/2;
 6/7=2,8=2,9=2,10=2,18=1/1;
 7/7=1,8=1,9=1,25=1,44=-1/16;
 99/12=1/99;
 ----------
 TS-898.out
 ----------
 Symbolic Z-matrix:
 Charge =  0 Multiplicity = 1
 C                    -0.46944  -0.70158  -0.3157 
 C                    -1.80325  -0.37883   0.26459 
 O                    -2.1666   -0.88981   1.32245 
 C                     0.64063  -0.22369   0.32388 
 C                     0.48216   2.80238  -0.36191 
 H                     1.0592    3.479    -0.99873 
 H                    -0.56866   2.85168  -0.65767 
 H                     0.56954   3.13654   0.67555 
 N                     0.98232   1.42813  -0.49487 
 H                     0.9747    1.21586  -1.4994 
 H                     1.99051   1.47348  -0.28996 
 Cl                    2.20424  -1.06498  -0.03906 
 C                     0.5992    0.23794   1.78923 
 H                    -0.22197   0.93682   1.97915 
 H                     0.48467  -0.62723   2.45151 
 H                     1.52984   0.74582   2.06821 
 C                    -0.50617  -1.49801  -1.58355 
 H                     0.43652  -1.45603  -2.13643 
 H                    -0.72787  -2.54679  -1.36119 
 H                    -1.27943  -1.12504  -2.26314 
 C                    -2.69529   0.55705  -0.50643 
 H                    -3.55857   0.003    -0.88378 
 H                    -3.02491   1.36267   0.15514 
 H                    -2.16599   1.00486  -1.35156 
 

 GradGradGradGradGradGradGradGradGradGradGradGradGradGradGradGradGradGrad
 Berny optimization.
 Initialization pass.
 No Z-matrix variables, so optimization will use Cartesian coordinates.
 Trust Radius=1.00D-01 FncErr=1.00D-07 GrdErr=1.00D-07 EigMax=2.50D+02 EigMin=1.00D-04
 Number of steps in this run=     50 maximum allowed number of steps=    144.
 Search for a saddle point of order  1.
 GradGradGradGradGradGradGradGradGradGradGradGradGradGradGradGradGradGrad

 ---------------------------------------------------------------------------------------------------
                            Z-MATRIX (ANGSTROMS AND DEGREES)
   CD    Cent   Atom    N1       Length/X        N2       Alpha/Y        N3        Beta/Z          J
 ---------------------------------------------------------------------------------------------------
      1      1  C        0  -0.469440         -0.701580         -0.315700
      2      2  C        0  -1.803250         -0.378830          0.264590
      3      3  O        0  -2.166600         -0.889810          1.322450
      4      4  C        0   0.640630         -0.223690          0.323880
      5      5  C        0   0.482160          2.802380         -0.361910
      6      6  H        0   1.059200          3.479000         -0.998730
      7      7  H        0  -0.568660          2.851680         -0.657670
      8      8  H        0   0.569540          3.136540          0.675550
      9      9  N        0   0.982320          1.428130         -0.494870
     10     10  H        0   0.974700          1.215860         -1.499400
     11     11  H        0   1.990510          1.473480         -0.289960
     12     12  Cl       0   2.204240         -1.064980         -0.039060
     13     13  C        0   0.599200          0.237940          1.789230
     14     14  H        0  -0.221970          0.936820          1.979150
     15     15  H        0   0.484670         -0.627230          2.451510
     16     16  H        0   1.529840          0.745820          2.068210
     17     17  C        0  -0.506170         -1.498010         -1.583550
     18     18  H        0   0.436520         -1.456030         -2.136430
     19     19  H        0  -0.727870         -2.546790         -1.361190
     20     20  H        0  -1.279430         -1.125040         -2.263140
     21     21  C        0  -2.695290          0.557050         -0.506430
     22     22  H        0  -3.558570          0.003000         -0.883780
     23     23  H        0  -3.024910          1.362670          0.155140
     24     24  H        0  -2.165990          1.004860         -1.351560
 ---------------------------------------------------------------------------------------------------
                         Z-Matrix orientation:                         
 ---------------------------------------------------------------------
 Center     Atomic      Atomic             Coordinates (Angstroms)
 Number     Number       Type             X           Y           Z
 ---------------------------------------------------------------------
      1          6           0       -0.469440   -0.701580   -0.315700
      2          6           0       -1.803250   -0.378830    0.264590
      3          8           0       -2.166600   -0.889810    1.322450
      4          6           0        0.640630   -0.223690    0.323880
      5          6           0        0.482160    2.802380   -0.361910
      6          1           0        1.059200    3.479000   -0.998730
      7          1           0       -0.568660    2.851680   -0.657670
      8          1           0        0.569540    3.136540    0.675550
      9          7           0        0.982320    1.428130   -0.494870
     10          1           0        0.974700    1.215860   -1.499400
     11          1           0        1.990510    1.473480   -0.289960
     12         17           0        2.204240   -1.064980   -0.039060
     13          6           0        0.599200    0.237940    1.789230
     14          1           0       -0.221970    0.936820    1.979150
     15          1           0        0.484670   -0.627230    2.451510
     16          1           0        1.529840    0.745820    2.068210
     17          6           0       -0.506170   -1.498010   -1.583550
     18          1           0        0.436520   -1.456030   -2.136430
     19          1           0       -0.727870   -2.546790   -1.361190
     20          1           0       -1.279430   -1.125040   -2.263140
     21          6           0       -2.695290    0.557050   -0.506430
     22          1           0       -3.558570    0.003000   -0.883780
     23          1           0       -3.024910    1.362670    0.155140
     24          1           0       -2.165990    1.004860   -1.351560
 ---------------------------------------------------------------------
                    Distance matrix (angstroms):
                    1          2          3          4          5
     1  C    0.000000
     2  C    1.489951   0.000000
     3  O    2.366288   1.229712   0.000000
     4  C    1.367369   2.449517   3.053096   0.000000
     5  C    3.631172   3.966825   4.846160   3.106851   0.000000
     6  H    4.503390   4.967137   5.905943   3.954037   1.093768
     7  H    3.571057   3.579242   4.524714   3.447278   1.092761
     8  H    4.097953   4.261085   4.910849   3.379330   1.093445
     9  N    2.583674   3.406066   4.311751   1.874997   1.468469
    10  H    2.676427   3.656734   4.718522   2.346968   2.013337
    11  H    3.283733   4.258074   5.046441   2.253744   2.011535
    12  Cl   2.712407   4.077129   4.581336   1.812283   4.245735
    13  C    2.540752   2.911477   3.023136   1.536903   3.349247
    14  H    2.830536   2.677890   2.747620   2.197904   3.075171
    15  H    2.928021   3.174728   2.893606   2.171170   4.435940
    16  H    3.431489   3.953147   4.110366   2.184795   3.351501
    17  C    1.497696   2.520040   3.401731   2.564631   4.578488
    18  H    2.169105   3.455695   4.365855   2.759248   4.613573
    19  H    2.136501   2.915416   3.466619   3.179473   5.574617
    20  H    2.151261   2.687124   3.701197   3.345405   4.705582
    21  C    2.564164   1.505350   2.391175   3.525242   3.893402
    22  H    3.218986   2.132064   2.757198   4.375284   4.943316
    23  H    3.318621   2.130083   2.678241   3.997649   3.826179
    24  H    2.619776   2.158268   3.277210   3.491926   3.350102
                    6          7          8          9         10
     6  H    0.000000
     7  H    1.777577   0.000000
     8  H    1.777712   1.775984   0.000000
     9  N    2.113257   2.111525   2.111619   0.000000
    10  H    2.319399   2.401328   2.929774   1.026741   0.000000
    11  H    2.322026   2.929846   2.391053   1.029802   1.600307
    12  Cl   4.783287   4.838582   4.564612   2.813618   2.974322
    13  C    4.299859   3.766013   3.105325   2.603929   3.451437
    14  H    4.119690   3.277149   2.676682   2.795080   3.689199
    15  H    5.394012   4.783233   4.162596   3.626750   4.387118
    16  H    4.134960   4.033456   2.928689   2.708266   3.641011
    17  C    5.250050   4.447579   5.266853   3.458775   3.092757
    18  H    5.102608   4.664063   5.386708   3.363182   2.799007
    19  H    6.295645   5.446445   6.175097   4.413077   4.132237
    20  H    5.316494   4.347071   5.496877   3.842001   3.338295
    21  C    4.782922   3.132213   4.325501   3.779382   3.858607
    22  H    5.780968   4.135900   5.412197   4.775136   4.732922
    23  H    4.742386   2.985126   4.041969   4.060134   4.330812
    24  H    4.080160   2.538443   4.017009   3.290126   3.151240
                   11         12         13         14         15
    11  H    0.000000
    12  Cl   2.559768   0.000000
    13  C    2.790221   2.759782   0.000000
    14  H    3.214332   3.737228   1.094908   0.000000
    15  H    3.767784   3.058020   1.095560   1.780089   0.000000
    16  H    2.510512   2.859091   1.096295   1.764441   1.767644
    17  C    4.091032   3.149490   3.951077   4.324581   4.245201
    18  H    3.795572   2.770689   4.278645   4.805969   4.662448
    19  H    4.969879   3.541336   4.409193   4.852767   4.437527
    20  H    4.619335   4.133533   4.669975   4.833892   5.058437
    21  C    4.779480   5.182163   4.028095   3.526988   4.501563
    22  H    5.771241   5.921496   4.948457   4.494584   5.279123
    23  H    5.036351   5.768467   4.131518   3.371177   4.642216
    24  H    4.315448   5.010569   4.254292   3.857133   4.914576
                   16         17         18         19         20
    16  H    0.000000
    17  C    4.745046   0.000000
    18  H    4.870574   1.093665   0.000000
    19  H    5.263014   1.094776   1.773854   0.000000
    20  H    5.491148   1.094934   1.752168   1.771752   0.000000
    21  C    4.951376   3.189938   4.064188   3.772954   2.814270
    22  H    5.929413   3.472730   4.433807   3.839559   2.893024
    23  H    4.978563   4.189342   5.017755   4.781164   3.883746
    24  H    5.041933   3.012172   3.666750   3.831775   2.480613
                   21         22         23         24
    21  C    0.000000
    22  H    1.092985   0.000000
    23  H    1.093320   1.792443   0.000000
    24  H    1.093132   1.778151   1.770852   0.000000
 Stoichiometry    C7H14ClNO
 Framework group  C1[X(C7H14ClNO)]
 Deg. of freedom    66
 Full point group                 C1      NOp   1
 Largest Abelian subgroup         C1      NOp   1
 Largest concise Abelian subgroup C1      NOp   1
                         Standard orientation:                         
 ---------------------------------------------------------------------
 Center     Atomic      Atomic             Coordinates (Angstroms)
 Number     Number       Type             X           Y           Z
 ---------------------------------------------------------------------
      1          6           0       -0.469441   -0.701580   -0.315698
      2          6           0       -1.803251   -0.378831    0.264592
      3          8           0       -2.166601   -0.889811    1.322452
      4          6           0        0.640629   -0.223689    0.323882
      5          6           0        0.482157    2.802381   -0.361908
      6          1           0        1.059196    3.479001   -0.998728
      7          1           0       -0.568663    2.851680   -0.657668
      8          1           0        0.569536    3.136541    0.675552
      9          7           0        0.982317    1.428131   -0.494868
     10          1           0        0.974698    1.215861   -1.499398
     11          1           0        1.990507    1.473482   -0.289958
     12         17           0        2.204239   -1.064978   -0.039058
     13          6           0        0.599198    0.237941    1.789232
     14          1           0       -0.221972    0.936820    1.979152
     15          1           0        0.484669   -0.627229    2.451512
     16          1           0        1.529838    0.745821    2.068212
     17          6           0       -0.506171   -1.498010   -1.583548
     18          1           0        0.436519   -1.456029   -2.136428
     19          1           0       -0.727870   -2.546790   -1.361188
     20          1           0       -1.279431   -1.125041   -2.263138
     21          6           0       -2.695292    0.557049   -0.506428
     22          1           0       -3.558572    0.002998   -0.883778
     23          1           0       -3.024912    1.362668    0.155142
     24          1           0       -2.165992    1.004859   -1.351558
 ---------------------------------------------------------------------
 Rotational constants (GHZ):           1.2552322           0.8692634           0.7181864
 Standard basis: STO-3G (5D, 7F)
 There are    68 symmetry adapted cartesian basis functions of A   symmetry.
 There are    68 symmetry adapted basis functions of A   symmetry.
    68 basis functions,   204 primitive gaussians,    68 cartesian basis functions
    44 alpha electrons       44 beta electrons
       nuclear repulsion energy       665.0561892251 Hartrees.
 NAtoms=   24 NActive=   24 NUniq=   24 SFac= 1.00D+00 NAtFMM=   60 NAOKFM=F Big=F
 Integral buffers will be    131072 words long.
 Raffenetti 1 integral format.
 Two-electron integral symmetry is turned on.
 External calculation of energy, first and second derivatives.
 Running external command "~/scripts/MiMe -H 'am1' -EF 'wb97xd def2svp' -c 12 -m 48GB R"
         input file       "/local/jobs/1176108/Gau-587164.EIn"
         output file      "/local/jobs/1176108/Gau-587164.EOu"
         message file     "/local/jobs/1176108/Gau-587164.EMs"
         fchk file        "/local/jobs/1176108/Gau-587164.EFC"
         mat. el file     "/local/jobs/1176108/Gau-587164.EUF"
 Read checkpoint file Gau-587164_H.chk type G16
 Write formatted file Gau-587164_H.fchk

deriv: 2

spelevel: wb97xd def2svp
gradlevel: wb97xd def2svp
hesslevel: am1

runspe: False
runforce: True
runfreq: True

Running Gaussian ...

Parsing files ...
SPE file: Gau-587164_F.out
FORCE file: Gau-587164_F.out
HESS file: Gau-587164_H.out

 ExternalExternalExternalExternalExternalExternalExternalExternalExternalExternal
 Output from external command:
 "~/scripts/MiMe -H 'am1' -EF 'wb97xd def2svp' -c 12 -m 48GB R /local/jobs/1176108/Gau-587164.EIn /local/jobs/1176108/Gau-587164.EOu /local/jobs/1176108/Gau-587164.EMs /local/jobs/1176108/Gau-587164.EFC /local/jobs/1176108/Gau-587164.EUF"
  
 --------------------------------------------------
 Force calculation at wb97xd def2svp
 Hessian calculation at am1
 ExternalExternalExternalExternalExternalExternalExternalExternalExternalExternal

 Recovered energy= -864.686600681     dipole=      2.062100000000      5.416600000000     -2.646100000000
 Energy=    -864.686601     NIter=   0.
 Dipole moment=       2.062100       5.416600      -2.646100
 ***** Axes restored to original set *****
 -------------------------------------------------------------------
 Center     Atomic                   Forces (Hartrees/Bohr)
 Number     Number              X              Y              Z
 -------------------------------------------------------------------
      1        6          -0.002524357   -0.008794464    0.010740800
      2        6           0.008218536   -0.025620249    0.024492253
      3        8          -0.000696935    0.019945956   -0.016037902
      4        6          -0.037976309   -0.044906467    0.030617841
      5        6          -0.003202489   -0.006205890    0.004308950
      6        1           0.000214442    0.006613082   -0.002225141
      7        1          -0.004395629   -0.000448568   -0.000196767
      8        1          -0.000083615    0.000438273    0.003424103
      9        7           0.053935154    0.054643268   -0.026235811
     10        1          -0.004099176   -0.007659621    0.005286562
     11        1          -0.003564365    0.000726759   -0.002516217
     12       17          -0.001495736    0.011088421   -0.003041206
     13        6           0.007278419   -0.001336171   -0.011632435
     14        1          -0.004047133   -0.000770268   -0.001645569
     15        1          -0.002224811   -0.001599464   -0.001076458
     16        1           0.003509354    0.001445782   -0.000850574
     17        6           0.004103954    0.007620992   -0.000196375
     18        1           0.004833492   -0.001574944   -0.001419966
     19        1          -0.001216929   -0.006416838   -0.002455783
     20        1          -0.005912335    0.000026960   -0.004381063
     21        6           0.000586805    0.000100163   -0.003652801
     22        1          -0.006912666    0.000851659   -0.000298748
     23        1          -0.005032257    0.000946033    0.003406422
     24        1           0.000704584    0.000885596   -0.004414113
 -------------------------------------------------------------------
 Cartesian Forces:  Max     0.054643268 RMS     0.014005430

 GradGradGradGradGradGradGradGradGradGradGradGradGradGradGradGradGradGrad
 Berny optimization.
 Search for a saddle point.
 Step number   1 out of a maximum of   50
 All quantities printed in internal units (Hartrees-Bohrs-Radians)
 Swapping is turned off.
 Second derivative matrix not updated -- analytic derivatives used.
 ITU=  0
     Eigenvalues ---   -0.05027  -0.00916  -0.00884  -0.00853  -0.00712
     Eigenvalues ---   -0.00230  -0.00119  -0.00020   0.00175   0.00258
     Eigenvalues ---    0.00481   0.00603   0.01192   0.01515   0.02298
     Eigenvalues ---    0.02719   0.03207   0.03579   0.03801   0.04365
     Eigenvalues ---    0.04781   0.04913   0.05388   0.05671   0.06254
     Eigenvalues ---    0.06971   0.07738   0.07870   0.08013   0.08840
     Eigenvalues ---    0.09118   0.10150   0.10398   0.11464   0.12696
     Eigenvalues ---    0.13531   0.13650   0.15142   0.15788   0.17781
     Eigenvalues ---    0.20093   0.22459   0.26125   0.26699   0.29659
     Eigenvalues ---    0.38996   0.43788   0.45194   0.49117   0.63083
     Eigenvalues ---    0.65110   0.71811   0.72658   0.79659   0.79866
     Eigenvalues ---    0.80766   0.81677   0.82887   0.83974   0.84529
     Eigenvalues ---    0.85885   0.90022   0.92997   0.95084   1.41519
     Eigenvalues ---    2.20455
 Eigenvectors required to have negative eigenvalues:
                          Y4        Y9        Y6        Z4        Y5
   1                    0.64504  -0.35302  -0.28329  -0.26536  -0.25940
                          Z15       Y10       Y7        Y1        Z9
   1                   -0.21639  -0.17227  -0.14951   0.13343   0.12510
 RFO step:  Lambda0=3.610187351D-02 Lambda=-4.50214294D-02.
 Linear search not attempted -- option 19 set.
 Maximum step size (   0.100) exceeded in Quadratic search.
    -- Step size scaled by   0.099
 B after Tr=    -0.000110    0.002861   -0.000328
         Rot=    1.000000    0.000028    0.000040   -0.000103 Ang=   0.01 deg.
 Variable       Old X    -DE/DX   Delta X   Delta X   Delta X     New X
                                 (Linear)    (Quad)   (Total)
    X1       -0.88711  -0.00252   0.00000  -0.00637  -0.00616  -0.89327
    Y1       -1.32579  -0.00879   0.00000   0.00578   0.00842  -1.31737
    Z1       -0.59659   0.01074   0.00000  -0.00186  -0.00219  -0.59877
    X2       -3.40765   0.00822   0.00000  -0.00380  -0.00380  -3.41145
    Y2       -0.71588  -0.02562   0.00000  -0.00828  -0.00610  -0.72198
    Z2        0.50000   0.02449   0.00000   0.00135   0.00079   0.50080
    X3       -4.09428  -0.00070   0.00000  -0.00649  -0.00646  -4.10074
    Y3       -1.68150   0.01995   0.00000   0.00373   0.00588  -1.67562
    Z3        2.49907  -0.01604   0.00000   0.00359   0.00303   2.50210
    X4        1.21062  -0.03798   0.00000  -0.01206  -0.01214   1.19848
    Y4       -0.42271  -0.04491   0.00000   0.02892   0.03206  -0.39065
    Z4        0.61204   0.03062   0.00000  -0.00695  -0.00716   0.60489
    X5        0.91115  -0.00320   0.00000   0.00282   0.00167   0.91282
    Y5        5.29573  -0.00621   0.00000  -0.02270  -0.01969   5.27604
    Z5       -0.68391   0.00431   0.00000   0.00976   0.00921  -0.67470
    X6        2.00160   0.00021   0.00000  -0.01552  -0.01683   1.98477
    Y6        6.57436   0.00661   0.00000  -0.01739  -0.01423   6.56013
    Z6       -1.88733  -0.00223   0.00000  -0.00313  -0.00366  -1.89099
    X7       -1.07461  -0.00440   0.00000  -0.00291  -0.00403  -1.07865
    Y7        5.38889  -0.00045   0.00000  -0.03510  -0.03253   5.35636
    Z7       -1.24282  -0.00020   0.00000   0.02330   0.02259  -1.22023
    X8        1.07627  -0.00008   0.00000   0.01256   0.01112   1.08740
    Y8        5.92720   0.00044   0.00000  -0.01472  -0.01156   5.91564
    Z8        1.27660   0.00342   0.00000   0.00697   0.00639   1.28300
    X9        1.85632   0.05394   0.00000   0.03210   0.03151   1.88782
    Y9        2.69877   0.05464   0.00000  -0.01017  -0.00697   2.69180
    Z9       -0.93517  -0.02624   0.00000  -0.00045  -0.00077  -0.93594
   X10        1.84192  -0.00410   0.00000   0.00811   0.00776   1.84967
   Y10        2.29764  -0.00766   0.00000  -0.02217  -0.01908   2.27856
   Z10       -2.83346   0.00529   0.00000   0.00376   0.00345  -2.83000
   X11        3.76152  -0.00356   0.00000   0.02937   0.02873   3.79025
   Y11        2.78447   0.00073   0.00000  -0.00164   0.00197   2.78644
   Z11       -0.54794  -0.00252   0.00000  -0.00881  -0.00899  -0.55694
   X12        4.16541  -0.00150   0.00000  -0.00297  -0.00266   4.16275
   Y12       -2.01252   0.01109   0.00000   0.01707   0.02079  -1.99173
   Z12       -0.07381  -0.00304   0.00000  -0.00349  -0.00338  -0.07719
   X13        1.13232   0.00728   0.00000  -0.00442  -0.00490   1.12743
   Y13        0.44964  -0.00134   0.00000   0.01126   0.01455   0.46419
   Z13        3.38115  -0.01163   0.00000  -0.00410  -0.00437   3.37679
   X14       -0.41946  -0.00405   0.00000  -0.00214  -0.00292  -0.42238
   Y14        1.77033  -0.00077   0.00000   0.01122   0.01420   1.78453
   Z14        3.74005  -0.00165   0.00000   0.00879   0.00833   3.74838
   X15        0.91589  -0.00222   0.00000  -0.01337  -0.01360   0.90229
   Y15       -1.18529  -0.00160   0.00000  -0.00261   0.00069  -1.18460
   Z15        4.63268  -0.00108   0.00000  -0.02286  -0.02306   4.60963
   X16        2.89098   0.00351   0.00000   0.00079   0.00008   2.89106
   Y16        1.40940   0.00145   0.00000  -0.00307   0.00061   1.41000
   Z16        3.90835  -0.00085   0.00000   0.00727   0.00709   3.91544
   X17       -0.95652   0.00410   0.00000   0.00246   0.00317  -0.95336
   Y17       -2.83083   0.00762   0.00000   0.00501   0.00751  -2.82332
   Z17       -2.99248  -0.00020   0.00000  -0.00153  -0.00178  -2.99425
   X18        0.82490   0.00483   0.00000   0.00251   0.00329   0.82819
   Y18       -2.75150  -0.00157   0.00000   0.00982   0.01263  -2.73887
   Z18       -4.03727  -0.00142   0.00000  -0.00243  -0.00254  -4.03981
   X19       -1.37547  -0.00122   0.00000   0.01327   0.01436  -1.36111
   Y19       -4.81274  -0.00642   0.00000   0.00082   0.00325  -4.80948
   Z19       -2.57228  -0.00246   0.00000  -0.00102  -0.00119  -2.57347
   X20       -2.41777  -0.00591   0.00000  -0.00532  -0.00465  -2.42242
   Y20       -2.12602   0.00003   0.00000  -0.00888  -0.00676  -2.13277
   Z20       -4.27671  -0.00438   0.00000  -0.00244  -0.00284  -4.27955
   X21       -5.09336   0.00059   0.00000  -0.00477  -0.00502  -5.09838
   Y21        1.05267   0.00010   0.00000  -0.00476  -0.00300   1.04967
   Z21       -0.95701  -0.00365   0.00000  -0.00014  -0.00093  -0.95795
   X22       -6.72472  -0.00691   0.00000  -0.01634  -0.01632  -6.74104
   Y22        0.00567   0.00085   0.00000   0.00460   0.00597   0.01164
   Z22       -1.67010  -0.00030   0.00000   0.01164   0.01078  -1.65932
   X23       -5.71625  -0.00503   0.00000   0.00697   0.00630  -5.70995
   Y23        2.57507   0.00095   0.00000   0.00117   0.00286   2.57794
   Z23        0.29317   0.00341   0.00000   0.00062  -0.00030   0.29287
   X24       -4.09313   0.00070   0.00000  -0.00822  -0.00851  -4.10164
   Y24        1.89891   0.00089   0.00000  -0.01334  -0.01147   1.88744
   Z24       -2.55408  -0.00441   0.00000  -0.00775  -0.00851  -2.56259
         Item               Value     Threshold  Converged?
 Maximum Force            0.054643     0.000450     NO 
 RMS     Force            0.014005     0.000300     NO 
 Maximum Displacement     0.032534     0.001800     NO 
 RMS     Displacement     0.011663     0.001200     NO 
 Predicted change in Energy=-8.809671D-04
 GradGradGradGradGradGradGradGradGradGradGradGradGradGradGradGradGradGrad

                          Input orientation:                          
 ---------------------------------------------------------------------
 Center     Atomic      Atomic             Coordinates (Angstroms)
 Number     Number       Type             X           Y           Z
 ---------------------------------------------------------------------
      1          6           0       -0.472700   -0.697124   -0.316858
      2          6           0       -1.805260   -0.382056    0.265010
      3          8           0       -2.170016   -0.886698    1.324054
      4          6           0        0.634207   -0.206724    0.320092
      5          6           0        0.483043    2.791960   -0.357034
      6          1           0        1.050293    3.471472   -1.000668
      7          1           0       -0.570795    2.834464   -0.645718
      8          1           0        0.575427    3.130423    0.678934
      9          7           0        0.998993    1.424441   -0.495280
     10          1           0        0.978805    1.205763   -1.497572
     11          1           0        2.005713    1.474523   -0.294720
     12         17           0        2.202830   -1.053981   -0.040846
     13          6           0        0.596610    0.245637    1.786918
     14          1           0       -0.223513    0.944334    1.983557
     15          1           0        0.477473   -0.626863    2.439310
     16          1           0        1.529884    0.746142    2.071961
     17          6           0       -0.504494   -1.494037   -1.584490
     18          1           0        0.438262   -1.449348   -2.137773
     19          1           0       -0.720271   -2.545068   -1.361820
     20          1           0       -1.281891   -1.128615   -2.264642
     21          6           0       -2.697948    0.555461   -0.506924
     22          1           0       -3.567204    0.006160   -0.878077
     23          1           0       -3.021574    1.364185    0.154979
     24          1           0       -2.170494    0.998790   -1.356065
 ---------------------------------------------------------------------
                    Distance matrix (angstroms):
                    1          2          3          4          5
     1  C    0.000000
     2  C    1.487802   0.000000
     3  O    2.368420   1.228530   0.000000
     4  C    1.368006   2.446380   3.055155   0.000000
     5  C    3.617840   3.962026   4.837076   3.077898   0.000000
     6  H    4.490468   4.960424   5.896471   3.930224   1.094429
     7  H    3.548223   3.563612   4.503838   3.410813   1.093490
     8  H    4.091489   4.263392   4.908247   3.356899   1.093764
     9  N    2.588195   3.421301   4.323651   1.859731   1.468137
    10  H    2.668695   3.657715   4.717525   2.327611   2.015596
    11  H    3.295311   4.275944   5.062856   2.255131   2.014460
    12  Cl   2.713299   4.075514   4.583963   1.818983   4.224796
    13  C    2.541278   2.911903   3.025003   1.535455   3.330644
    14  H    2.836968   2.686008   2.752544   2.197211   3.064525
    15  H    2.916200   3.162021   2.884529   2.166141   4.416777
    16  H    3.435085   3.957409   4.112760   2.186146   3.343840
    17  C    1.497656   2.519751   3.406238   2.565394   4.566361
    18  H    2.170582   3.456280   4.370805   2.761088   4.600188
    19  H    2.137320   2.915888   3.473597   3.182969   5.562503
    20  H    2.152868   2.688942   3.704866   3.346964   4.703708
    21  C    2.560630   1.507220   2.389773   3.516837   3.891414
    22  H    3.222659   2.135839   2.756576   4.374104   4.943346
    23  H    3.311855   2.130936   2.675512   3.982431   3.818775
    24  H    2.615068   2.160559   3.276904   3.482688   3.354815
                    6          7          8          9         10
     6  H    0.000000
     7  H    1.777554   0.000000
     8  H    1.778448   1.776547   0.000000
     9  N    2.109120   2.115427   2.113897   0.000000
    10  H    2.320660   2.404076   2.933293   1.026069   0.000000
    11  H    2.323574   2.934456   2.394937   1.027725   1.604253
    12  Cl   4.767528   4.814443   4.547060   2.792545   2.954104
    13  C    4.287479   3.739328   3.090318   2.599984   3.443224
    14  H    4.112738   3.256729   2.668207   2.805291   3.692178
    15  H    5.381257   4.753635   4.150387   3.618238   4.371372
    16  H    4.135031   4.019916   2.921696   2.707888   3.640948
    17  C    5.235885   4.429628   5.260698   3.458954   3.081663
    18  H    5.087441   4.647092   5.378378   3.357211   2.784180
    19  H    6.282045   5.429043   6.168850   4.411775   4.119954
    20  H    5.310133   4.339650   5.500334   3.853721   3.338931
    21  C    4.774538   3.120560   4.330319   3.797714   3.863002
    22  H    5.774487   4.126956   5.417259   4.796687   4.742259
    23  H    4.728243   2.968022   4.041354   4.073257   4.331172
    24  H    4.076020   2.536401   4.028047   3.311763   3.159263
                   11         12         13         14         15
    11  H    0.000000
    12  Cl   2.548850   0.000000
    13  C    2.798026   2.758563   0.000000
    14  H    3.231269   3.738798   1.095192   0.000000
    15  H    3.771771   3.051304   1.095931   1.779818   0.000000
    16  H    2.521533   2.856090   1.096702   1.766776   1.768518
    17  C    4.095973   3.147394   3.950353   4.330770   4.231691
    18  H    3.795098   2.768956   4.277996   4.811759   4.650560
    19  H    4.972606   3.537348   4.408715   4.859450   4.422973
    20  H    4.633062   4.134503   4.672523   4.844015   5.047205
    21  C    4.797305   5.179301   4.026389   3.532216   4.490154
    22  H    5.792565   5.926057   4.949434   4.499933   5.269268
    23  H    5.048567   5.760232   4.123788   3.368846   4.628798
    24  H    4.335145   5.006958   4.254696   3.866106   4.905032
                   16         17         18         19         20
    16  H    0.000000
    17  C    4.746233   0.000000
    18  H    4.871721   1.094033   0.000000
    19  H    5.261759   1.095814   1.773388   0.000000
    20  H    5.497901   1.095667   1.754392   1.771114   0.000000
    21  C    4.955963   3.189488   4.063833   3.775625   2.816186
    22  H    5.935538   3.482787   4.443996   3.853285   2.903952
    23  H    4.977205   4.186989   5.014294   4.783194   3.885244
    24  H    5.050543   3.006978   3.661974   3.829114   2.478100
                   21         22         23         24
    21  C    0.000000
    22  H    1.093203   0.000000
    23  H    1.094022   1.791410   0.000000
    24  H    1.093521   1.778928   1.772316   0.000000
 Stoichiometry    C7H14ClNO
 Framework group  C1[X(C7H14ClNO)]
 Deg. of freedom    66
 Full point group                 C1      NOp   1
 Largest Abelian subgroup         C1      NOp   1
 Largest concise Abelian subgroup C1      NOp   1
                         Standard orientation:                         
 ---------------------------------------------------------------------
 Center     Atomic      Atomic             Coordinates (Angstroms)
 Number     Number       Type             X           Y           Z
 ---------------------------------------------------------------------
      1          6           0       -0.477323   -0.698027   -0.313834
      2          6           0       -1.808445   -0.369805    0.264041
      3          8           0       -2.178977   -0.866362    1.324900
      4          6           0        0.632202   -0.213033    0.322700
      5          6           0        0.505417    2.783336   -0.369514
      6          1           0        1.079048    3.455252   -1.015464
      7          1           0       -0.547544    2.832539   -0.660325
      8          1           0        0.598565    3.126206    0.664935
      9          7           0        1.011032    1.411207   -0.500058
     10          1           0        0.990944    1.187727   -1.501293
     11          1           0        2.017751    1.454513   -0.297914
     12         17           0        2.194874   -1.074147   -0.031187
     13          6           0        0.595484    0.246870    1.787201
     14          1           0       -0.219566    0.952841    1.978890
     15          1           0        0.468447   -0.621440    2.443679
     16          1           0        1.532087    0.741565    2.071466
     17          6           0       -0.513011   -1.500944   -1.577568
     18          1           0        0.431047   -1.466275   -2.129346
     19          1           0       -0.737298   -2.549163   -1.350099
     20          1           0       -1.286347   -1.132910   -2.260933
     21          6           0       -2.692485    0.570735   -0.514143
     22          1           0       -3.565295    0.026325   -0.884160
     23          1           0       -3.011034    1.385203    0.143163
     24          1           0       -2.160108    1.005766   -1.364503
 ---------------------------------------------------------------------
 Rotational constants (GHZ):           1.2619777           0.8683075           0.7196229
 Standard basis: STO-3G (5D, 7F)
 There are    68 symmetry adapted cartesian basis functions of A   symmetry.
 There are    68 symmetry adapted basis functions of A   symmetry.
    68 basis functions,   204 primitive gaussians,    68 cartesian basis functions
    44 alpha electrons       44 beta electrons
       nuclear repulsion energy       665.5156076305 Hartrees.
 NAtoms=   24 NActive=   24 NUniq=   24 SFac= 1.00D+00 NAtFMM=   60 NAOKFM=F Big=F
 Integral buffers will be    131072 words long.
 Raffenetti 1 integral format.
 Two-electron integral symmetry is turned on.
 External calculation of energy, first and second derivatives.
 Running external command "~/scripts/MiMe -H 'am1' -EF 'wb97xd def2svp' -c 12 -m 48GB R"
         input file       "/local/jobs/1176108/Gau-587164.EIn"
         output file      "/local/jobs/1176108/Gau-587164.EOu"
         message file     "/local/jobs/1176108/Gau-587164.EMs"
         fchk file        "/local/jobs/1176108/Gau-587164.EFC"
         mat. el file     "/local/jobs/1176108/Gau-587164.EUF"
 Read checkpoint file Gau-587164_H.chk type G16
 Write formatted file Gau-587164_H.fchk

deriv: 2

spelevel: wb97xd def2svp
gradlevel: wb97xd def2svp
hesslevel: am1

runspe: False
runforce: True
runfreq: True

Running Gaussian ...

Parsing files ...
SPE file: Gau-587164_F.out
FORCE file: Gau-587164_F.out
HESS file: Gau-587164_H.out

 ExternalExternalExternalExternalExternalExternalExternalExternalExternalExternal
 Output from external command:
 "~/scripts/MiMe -H 'am1' -EF 'wb97xd def2svp' -c 12 -m 48GB R /local/jobs/1176108/Gau-587164.EIn /local/jobs/1176108/Gau-587164.EOu /local/jobs/1176108/Gau-587164.EMs /local/jobs/1176108/Gau-587164.EFC /local/jobs/1176108/Gau-587164.EUF"
  
 --------------------------------------------------
 Force calculation at wb97xd def2svp
 Hessian calculation at am1
 ExternalExternalExternalExternalExternalExternalExternalExternalExternalExternal

 Recovered energy= -864.687499060     dipole=      2.193700000000      5.534200000000     -2.671300000000
 Energy=    -864.687499     NIter=   0.
 Dipole moment=       2.193700       5.534200      -2.671300
 ***** Axes restored to original set *****
 -------------------------------------------------------------------
 Center     Atomic                   Forces (Hartrees/Bohr)
 Number     Number              X              Y              Z
 -------------------------------------------------------------------
      1        6          -0.002980662   -0.007304905    0.010265304
      2        6           0.007171695   -0.023380686    0.022716651
      3        8          -0.000655147    0.018707061   -0.014388577
      4        6          -0.034723877   -0.043042782    0.029394404
      5        6          -0.003096305   -0.005522690    0.003906712
      6        1          -0.000148558    0.006253088   -0.001836670
      7        1          -0.003871754   -0.001167521   -0.000067500
      8        1           0.000093970    0.000042260    0.003202587
      9        7           0.050488779    0.051109861   -0.025255910
     10        1          -0.003392639   -0.007224699    0.004943110
     11        1          -0.002070054    0.000832347   -0.002414700
     12       17          -0.001246480    0.010681760   -0.002798841
     13        6           0.006401818   -0.001639981   -0.010541712
     14        1          -0.003896134   -0.000680000   -0.001562667
     15        1          -0.002163822   -0.001136868   -0.000977359
     16        1           0.003173616    0.001387141   -0.001128000
     17        6           0.003621541    0.007013070   -0.000597459
     18        1           0.004547591   -0.001344631   -0.001401469
     19        1          -0.000990061   -0.005836362   -0.002410338
     20        1          -0.005472138    0.000039557   -0.004203520
     21        6           0.000181408   -0.000167103   -0.003540786
     22        1          -0.006754514    0.000835764   -0.000252955
     23        1          -0.004709620    0.000781146    0.003148292
     24        1           0.000491352    0.000765172   -0.004198600
 -------------------------------------------------------------------
 Cartesian Forces:  Max     0.051109861 RMS     0.013116221

 GradGradGradGradGradGradGradGradGradGradGradGradGradGradGradGradGradGrad
 Berny optimization.
 Search for a saddle point.
 Step number   2 out of a maximum of   50
 All quantities printed in internal units (Hartrees-Bohrs-Radians)
 Swapping is turned off.
 Second derivative matrix not updated -- analytic derivatives used.
 ITU=  0  0
     Eigenvalues ---   -0.05254  -0.00902  -0.00861  -0.00834  -0.00701
     Eigenvalues ---   -0.00247  -0.00116  -0.00017   0.00185   0.00261
     Eigenvalues ---    0.00468   0.00611   0.01190   0.01544   0.02312
     Eigenvalues ---    0.02749   0.03229   0.03605   0.03860   0.04369
     Eigenvalues ---    0.04796   0.04965   0.05404   0.05710   0.06250
     Eigenvalues ---    0.06947   0.07729   0.07872   0.08019   0.08831
     Eigenvalues ---    0.09126   0.10135   0.10419   0.11496   0.12697
     Eigenvalues ---    0.13483   0.13653   0.15128   0.15833   0.17866
     Eigenvalues ---    0.20065   0.22379   0.26070   0.26468   0.29548
     Eigenvalues ---    0.38767   0.43635   0.45138   0.48881   0.63101
     Eigenvalues ---    0.65197   0.72143   0.72776   0.79492   0.79685
     Eigenvalues ---    0.80605   0.81400   0.82758   0.83807   0.84469
     Eigenvalues ---    0.85687   0.90605   0.93365   0.95467   1.41117
     Eigenvalues ---    2.21689
 Eigenvectors required to have negative eigenvalues:
                          Y4        Y9        Y6        Z4        Y5
   1                    0.65199  -0.35921  -0.28446  -0.26726  -0.25570
                          Z15       Y10       Y1        Y7        Z9
   1                   -0.21618  -0.16527   0.13801  -0.13611   0.12451
 RFO step:  Lambda0=3.479687549D-02 Lambda=-4.08251587D-02.
 Linear search not attempted -- option 19 set.
 Maximum step size (   0.100) exceeded in Quadratic search.
    -- Step size scaled by   0.100
 B after Tr=    -0.000035    0.002812   -0.000281
         Rot=    1.000000    0.000039    0.000046   -0.000101 Ang=   0.01 deg.
 Variable       Old X    -DE/DX   Delta X   Delta X   Delta X     New X
                                 (Linear)    (Quad)   (Total)
    X1       -0.89327  -0.00298   0.00000  -0.00588  -0.00560  -0.89887
    Y1       -1.31737  -0.00730   0.00000   0.00695   0.00953  -1.30784
    Z1       -0.59877   0.01027   0.00000  -0.00194  -0.00220  -0.60098
    X2       -3.41145   0.00717   0.00000  -0.00361  -0.00355  -3.41499
    Y2       -0.72198  -0.02338   0.00000  -0.00775  -0.00559  -0.72757
    Z2        0.50080   0.02272   0.00000   0.00135   0.00081   0.50161
    X3       -4.10074  -0.00066   0.00000  -0.00621  -0.00614  -4.10688
    Y3       -1.67562   0.01871   0.00000   0.00373   0.00592  -1.66970
    Z3        2.50210  -0.01439   0.00000   0.00350   0.00297   2.50507
    X4        1.19848  -0.03472   0.00000  -0.01100  -0.01101   1.18746
    Y4       -0.39065  -0.04304   0.00000   0.02992   0.03302  -0.35764
    Z4        0.60489   0.02939   0.00000  -0.00746  -0.00761   0.59728
    X5        0.91282  -0.00310   0.00000   0.00234   0.00131   0.91413
    Y5        5.27604  -0.00552   0.00000  -0.02329  -0.02034   5.25570
    Z5       -0.67470   0.00391   0.00000   0.00972   0.00911  -0.66558
    X6        1.98477  -0.00015   0.00000  -0.01564  -0.01682   1.96794
    Y6        6.56013   0.00625   0.00000  -0.01785  -0.01479   6.54534
    Z6       -1.89099  -0.00184   0.00000  -0.00215  -0.00277  -1.89375
    X7       -1.07865  -0.00387   0.00000  -0.00300  -0.00399  -1.08264
    Y7        5.35636  -0.00117   0.00000  -0.03559  -0.03309   5.32327
    Z7       -1.22023  -0.00007   0.00000   0.02302   0.02222  -1.19801
    X8        1.08740   0.00009   0.00000   0.01210   0.01076   1.09816
    Y8        5.91564   0.00004   0.00000  -0.01612  -0.01298   5.90266
    Z8        1.28300   0.00320   0.00000   0.00708   0.00644   1.28944
    X9        1.88782   0.05049   0.00000   0.03003   0.02954   1.91736
    Y9        2.69180   0.05111   0.00000  -0.01132  -0.00820   2.68361
    Z9       -0.93594  -0.02526   0.00000  -0.00106  -0.00138  -0.93732
   X10        1.84967  -0.00339   0.00000   0.00837   0.00814   1.85781
   Y10        2.27856  -0.00722   0.00000  -0.02174  -0.01877   2.25979
   Z10       -2.83000   0.00494   0.00000   0.00275   0.00246  -2.82754
   X11        3.79025  -0.00207   0.00000   0.02784   0.02730   3.81754
   Y11        2.78644   0.00083   0.00000  -0.00303   0.00050   2.78695
   Z11       -0.55694  -0.00241   0.00000  -0.00860  -0.00875  -0.56569
   X12        4.16275  -0.00125   0.00000  -0.00192  -0.00155   4.16120
   Y12       -1.99173   0.01068   0.00000   0.01575   0.01939  -1.97234
   Z12       -0.07719  -0.00280   0.00000  -0.00267  -0.00241  -0.07960
   X13        1.12743   0.00640   0.00000  -0.00453  -0.00497   1.12246
   Y13        0.46419  -0.00164   0.00000   0.01145   0.01476   0.47894
   Z13        3.37679  -0.01054   0.00000  -0.00414  -0.00436   3.37243
   X14       -0.42238  -0.00390   0.00000  -0.00217  -0.00291  -0.42528
   Y14        1.78453  -0.00068   0.00000   0.01140   0.01442   1.79896
   Z14        3.74838  -0.00156   0.00000   0.00854   0.00807   3.75645
   X15        0.90229  -0.00216   0.00000  -0.01387  -0.01408   0.88821
   Y15       -1.18460  -0.00114   0.00000  -0.00202   0.00133  -1.18327
   Z15        4.60963  -0.00098   0.00000  -0.02308  -0.02319   4.58644
   X16        2.89106   0.00317   0.00000   0.00059  -0.00009   2.89098
   Y16        1.41000   0.00139   0.00000  -0.00307   0.00063   1.41064
   Z16        3.91544  -0.00113   0.00000   0.00699   0.00687   3.92230
   X17       -0.95336   0.00362   0.00000   0.00263   0.00343  -0.94992
   Y17       -2.82332   0.00701   0.00000   0.00584   0.00823  -2.81509
   Z17       -2.99425  -0.00060   0.00000  -0.00155  -0.00169  -2.99594
   X18        0.82819   0.00455   0.00000   0.00235   0.00323   0.83142
   Y18       -2.73887  -0.00134   0.00000   0.01115   0.01381  -2.72506
   Z18       -4.03981  -0.00140   0.00000  -0.00292  -0.00291  -4.04271
   X19       -1.36111  -0.00099   0.00000   0.01436   0.01553  -1.34559
   Y19       -4.80948  -0.00584   0.00000   0.00166   0.00400  -4.80548
   Z19       -2.57347  -0.00241   0.00000  -0.00079  -0.00082  -2.57428
   X20       -2.42242  -0.00547   0.00000  -0.00550  -0.00471  -2.42713
   Y20       -2.13277   0.00004   0.00000  -0.00881  -0.00682  -2.13960
   Z20       -4.27955  -0.00420   0.00000  -0.00217  -0.00250  -4.28206
   X21       -5.09838   0.00018   0.00000  -0.00501  -0.00517  -5.10355
   Y21        1.04967  -0.00017   0.00000  -0.00463  -0.00292   1.04675
   Z21       -0.95795  -0.00354   0.00000  -0.00005  -0.00088  -0.95883
   X22       -6.74104  -0.00675   0.00000  -0.01671  -0.01660  -6.75764
   Y22        0.01164   0.00084   0.00000   0.00515   0.00648   0.01812
   Z22       -1.65932  -0.00025   0.00000   0.01205   0.01116  -1.64817
   X23       -5.70995  -0.00471   0.00000   0.00737   0.00679  -5.70316
   Y23        2.57794   0.00078   0.00000   0.00126   0.00295   2.58088
   Z23        0.29287   0.00315   0.00000   0.00084  -0.00016   0.29271
   X24       -4.10164   0.00049   0.00000  -0.00866  -0.00884  -4.11048
   Y24        1.88744   0.00077   0.00000  -0.01325  -0.01147   1.87597
   Z24       -2.56259  -0.00420   0.00000  -0.00769  -0.00850  -2.57109
         Item               Value     Threshold  Converged?
 Maximum Force            0.051110     0.000450     NO 
 RMS     Force            0.013116     0.000300     NO 
 Maximum Displacement     0.033089     0.001800     NO 
 RMS     Displacement     0.011667     0.001200     NO 
 Predicted change in Energy=-5.963258D-04
 GradGradGradGradGradGradGradGradGradGradGradGradGradGradGradGradGradGrad

                          Input orientation:                          
 ---------------------------------------------------------------------
 Center     Atomic      Atomic             Coordinates (Angstroms)
 Number     Number       Type             X           Y           Z
 ---------------------------------------------------------------------
      1          6           0       -0.475662   -0.692080   -0.318024
      2          6           0       -1.807137   -0.385012    0.265441
      3          8           0       -2.173266   -0.883568    1.325627
      4          6           0        0.628379   -0.189253    0.316067
      5          6           0        0.483736    2.781195   -0.352212
      6          1           0        1.041391    3.463646   -1.002132
      7          1           0       -0.572907    2.816954   -0.633958
      8          1           0        0.581123    3.123553    0.682341
      9          7           0        1.014623    1.420104   -0.496007
     10          1           0        0.983110    1.195828   -1.496269
     11          1           0        2.020158    1.474789   -0.299350
     12         17           0        2.202012   -1.043719   -0.042124
     13          6           0        0.593982    0.253446    1.784612
     14          1           0       -0.225051    0.951966    1.987830
     15          1           0        0.470022   -0.626157    2.427040
     16          1           0        1.529838    0.746478    2.075594
     17          6           0       -0.502678   -1.489683   -1.585386
     18          1           0        0.439971   -1.442039   -2.139312
     19          1           0       -0.712054   -2.542951   -1.362253
     20          1           0       -1.284383   -1.132225   -2.265967
     21          6           0       -2.700683    0.553916   -0.507389
     22          1           0       -3.575990    0.009587   -0.872173
     23          1           0       -3.017982    1.365744    0.154894
     24          1           0       -2.175172    0.992722   -1.360560
 ---------------------------------------------------------------------
                    Distance matrix (angstroms):
                    1          2          3          4          5
     1  C    0.000000
     2  C    1.485782   0.000000
     3  O    2.370678   1.227438   0.000000
     4  C    1.368872   2.443894   3.057858   0.000000
     5  C    3.603506   3.956572   4.827555   3.048128   0.000000
     6  H    4.476552   4.953082   5.886489   3.905369   1.095041
     7  H    3.524570   3.547510   4.482743   3.373858   1.094145
     8  H    4.083697   4.264694   4.904843   3.333328   1.094071
     9  N    2.591129   3.435196   4.334500   1.843551   1.468022
    10  H    2.660916   3.658983   4.716958   2.308430   2.017828
    11  H    3.305267   4.292555   5.078110   2.254956   2.017445
    12  Cl   2.714720   4.074526   4.586878   1.826125   4.204593
    13  C    2.541503   2.912195   3.026736   1.534206   3.311750
    14  H    2.843001   2.693906   2.757398   2.196705   3.053564
    15  H    2.904142   3.148986   2.875125   2.161520   4.397099
    16  H    3.438151   3.961354   4.114909   2.187271   3.335963
    17  C    1.497700   2.519418   3.410606   2.566307   4.553475
    18  H    2.172076   3.456825   4.375695   2.762944   4.585995
    19  H    2.138228   2.916384   3.480430   3.186442   5.549472
    20  H    2.154586   2.690656   3.708301   3.348844   4.701443
    21  C    2.557164   1.509065   2.388405   3.508993   3.889135
    22  H    3.226678   2.139793   2.756027   4.373576   4.943030
    23  H    3.304797   2.131552   2.672745   3.967359   3.810865
    24  H    2.610321   2.162748   3.276594   3.473908   3.359344
                    6          7          8          9         10
     6  H    0.000000
     7  H    1.777561   0.000000
     8  H    1.779033   1.777197   0.000000
     9  N    2.105456   2.119073   2.116168   0.000000
    10  H    2.321759   2.406827   2.936674   1.025581   0.000000
    11  H    2.325390   2.938937   2.398533   1.026043   1.608074
    12  Cl   4.752368   4.791162   4.529712   2.772423   2.935274
    13  C    4.274518   3.712504   3.074522   2.596008   3.435649
    14  H    4.105153   3.236194   2.658948   2.815207   3.695682
    15  H    5.367698   4.723603   4.137227   3.609429   4.356058
    16  H    4.134487   4.006255   2.914053   2.707831   3.641295
    17  C    5.221092   4.411039   5.253489   3.457717   3.070420
    18  H    5.071551   4.629366   5.369011   3.350006   2.768907
    19  H    6.267653   5.410948   6.161326   4.408809   4.107312
    20  H    5.303635   4.331936   5.503116   3.864269   3.339730
    21  C    4.765964   3.108824   4.334597   3.814958   3.867850
    22  H    5.767809   4.117835   5.421705   4.817134   4.752058
    23  H    4.713642   2.950710   4.040006   4.085160   4.331738
    24  H    4.071881   2.534369   4.038693   3.332401   3.167714
                   11         12         13         14         15
    11  H    0.000000
    12  Cl   2.538133   0.000000
    13  C    2.805095   2.757782   0.000000
    14  H    3.247383   3.740870   1.095465   0.000000
    15  H    3.774931   3.044818   1.096258   1.779468   0.000000
    16  H    2.532037   2.853305   1.097077   1.769057   1.769421
    17  C    4.099595   3.145773   3.949436   4.336658   4.217983
    18  H    3.793460   2.767968   4.277332   4.817346   4.638765
    19  H    4.973628   3.533018   4.407757   4.865663   4.407964
    20  H    4.645869   4.136214   4.674990   4.853950   5.035709
    21  C    4.814314   5.177386   4.024720   3.537417   4.478484
    22  H    5.813072   5.931588   4.950418   4.505163   5.259201
    23  H    5.059751   5.752623   4.115759   3.366205   4.614812
    24  H    4.354233   5.004508   4.255215   3.875094   4.895277
                   16         17         18         19         20
    16  H    0.000000
    17  C    4.747031   0.000000
    18  H    4.872663   1.094391   0.000000
    19  H    5.259773   1.096814   1.772848   0.000000
    20  H    5.504409   1.096371   1.756537   1.770426   0.000000
    21  C    4.960462   3.188981   4.063338   3.778363   2.818080
    22  H    5.941533   3.493097   4.454301   3.867526   2.915108
    23  H    4.975465   4.184350   5.010436   4.785074   3.886616
    24  H    5.059139   3.001685   3.656978   3.826447   2.475614
                   21         22         23         24
    21  C    0.000000
    22  H    1.093401   0.000000
    23  H    1.094697   1.790363   0.000000
    24  H    1.093898   1.779710   1.773718   0.000000
 Stoichiometry    C7H14ClNO
 Framework group  C1[X(C7H14ClNO)]
 Deg. of freedom    66
 Full point group                 C1      NOp   1
 Largest Abelian subgroup         C1      NOp   1
 Largest concise Abelian subgroup C1      NOp   1
                         Standard orientation:                         
 ---------------------------------------------------------------------
 Center     Atomic      Atomic             Coordinates (Angstroms)
 Number     Number       Type             X           Y           Z
 ---------------------------------------------------------------------
      1          6           0       -0.484159   -0.694297   -0.312024
      2          6           0       -1.813104   -0.362561    0.263652
      3          8           0       -2.189912   -0.845322    1.327401
      4          6           0        0.624766   -0.200951    0.320989
      5          6           0        0.524745    2.764480   -0.377082
      6          1           0        1.094280    3.432455   -1.031722
      7          1           0       -0.530315    2.812459   -0.662916
      8          1           0        0.623473    3.115663    0.654381
      9          7           0        1.036670    1.394620   -0.505553
     10          1           0        1.005374    1.160905   -1.503658
     11          1           0        2.042206    1.436954   -0.305877
     12         17           0        2.187276   -1.081210   -0.023164
     13          6           0        0.591676    0.256737    1.784962
     14          1           0       -0.218008    0.968811    1.978368
     15          1           0        0.453006   -0.614600    2.435595
     16          1           0        1.533465    0.739277    2.074384
     17          6           0       -0.518218   -1.503966   -1.571541
     18          1           0        0.426897   -1.475223   -2.122561
     19          1           0       -0.743340   -2.551887   -1.338768
     20          1           0       -1.292426   -1.142200   -2.258387
     21          6           0       -2.690541    0.581263   -0.521573
     22          1           0       -3.572267    0.045840   -0.884072
     23          1           0       -2.998496    1.404048    0.131535
     24          1           0       -2.155925    1.004070   -1.377162
 ---------------------------------------------------------------------
 Rotational constants (GHZ):           1.2689456           0.8672405           0.7210232
 Standard basis: STO-3G (5D, 7F)
 There are    68 symmetry adapted cartesian basis functions of A   symmetry.
 There are    68 symmetry adapted basis functions of A   symmetry.
    68 basis functions,   204 primitive gaussians,    68 cartesian basis functions
    44 alpha electrons       44 beta electrons
       nuclear repulsion energy       665.9698058642 Hartrees.
 NAtoms=   24 NActive=   24 NUniq=   24 SFac= 1.00D+00 NAtFMM=   60 NAOKFM=F Big=F
 Integral buffers will be    131072 words long.
 Raffenetti 1 integral format.
 Two-electron integral symmetry is turned on.
 External calculation of energy, first and second derivatives.
 Running external command "~/scripts/MiMe -H 'am1' -EF 'wb97xd def2svp' -c 12 -m 48GB R"
         input file       "/local/jobs/1176108/Gau-587164.EIn"
         output file      "/local/jobs/1176108/Gau-587164.EOu"
         message file     "/local/jobs/1176108/Gau-587164.EMs"
         fchk file        "/local/jobs/1176108/Gau-587164.EFC"
         mat. el file     "/local/jobs/1176108/Gau-587164.EUF"
 Read checkpoint file Gau-587164_H.chk type G16
 Write formatted file Gau-587164_H.fchk

deriv: 2

spelevel: wb97xd def2svp
gradlevel: wb97xd def2svp
hesslevel: am1

runspe: False
runforce: True
runfreq: True

Running Gaussian ...

Parsing files ...
SPE file: Gau-587164_F.out
FORCE file: Gau-587164_F.out
HESS file: Gau-587164_H.out

 ExternalExternalExternalExternalExternalExternalExternalExternalExternalExternal
 Output from external command:
 "~/scripts/MiMe -H 'am1' -EF 'wb97xd def2svp' -c 12 -m 48GB R /local/jobs/1176108/Gau-587164.EIn /local/jobs/1176108/Gau-587164.EOu /local/jobs/1176108/Gau-587164.EMs /local/jobs/1176108/Gau-587164.EFC /local/jobs/1176108/Gau-587164.EUF"
  
 --------------------------------------------------
 Force calculation at wb97xd def2svp
 Hessian calculation at am1
 ExternalExternalExternalExternalExternalExternalExternalExternalExternalExternal

 Recovered energy= -864.688106817     dipole=      2.319600000000      5.656300000000     -2.698900000000
 Energy=    -864.688107     NIter=   0.
 Dipole moment=       2.319600       5.656300      -2.698900
 ***** Axes restored to original set *****
 -------------------------------------------------------------------
 Center     Atomic                   Forces (Hartrees/Bohr)
 Number     Number              X              Y              Z
 -------------------------------------------------------------------
      1        6          -0.003346283   -0.005865888    0.009748020
      2        6           0.006175215   -0.021242334    0.021041573
      3        8          -0.000580419    0.017530275   -0.012833909
      4        6          -0.031661775   -0.041252963    0.028246736
      5        6          -0.002992281   -0.004871671    0.003525382
      6        1          -0.000463390    0.005864337   -0.001478194
      7        1          -0.003380602   -0.001835056    0.000048708
      8        1           0.000250855   -0.000349389    0.002987757
      9        7           0.047161364    0.047730539   -0.024309919
     10        1          -0.002742121   -0.006796733    0.004664168
     11        1          -0.000821293    0.000885833   -0.002313624
     12       17          -0.000916486    0.010213006   -0.002555332
     13        6           0.005599815   -0.001862224   -0.009570508
     14        1          -0.003746247   -0.000585973   -0.001483230
     15        1          -0.002084836   -0.000712860   -0.000888805
     16        1           0.002855875    0.001348264   -0.001348927
     17        6           0.003173290    0.006469850   -0.000974395
     18        1           0.004274690   -0.001118846   -0.001390333
     19        1          -0.000775740   -0.005280149   -0.002344486
     20        1          -0.005053447    0.000067623   -0.004034757
     21        6          -0.000200986   -0.000422668   -0.003440155
     22        1          -0.006602547    0.000802316   -0.000201846
     23        1          -0.004403560    0.000634654    0.002896350
     24        1           0.000280909    0.000650057   -0.003990275
 -------------------------------------------------------------------
 Cartesian Forces:  Max     0.047730539 RMS     0.012276847

 GradGradGradGradGradGradGradGradGradGradGradGradGradGradGradGradGradGrad
 Berny optimization.
 Search for a saddle point.
 Step number   3 out of a maximum of   50
 All quantities printed in internal units (Hartrees-Bohrs-Radians)
 Swapping is turned off.
 Second derivative matrix not updated -- analytic derivatives used.
 ITU=  0  0  0
     Eigenvalues ---   -0.05415  -0.00888  -0.00839  -0.00817  -0.00691
     Eigenvalues ---   -0.00265  -0.00113  -0.00015   0.00195   0.00266
     Eigenvalues ---    0.00457   0.00618   0.01190   0.01574   0.02326
     Eigenvalues ---    0.02779   0.03246   0.03633   0.03918   0.04370
     Eigenvalues ---    0.04809   0.05026   0.05419   0.05751   0.06246
     Eigenvalues ---    0.06936   0.07720   0.07872   0.08029   0.08826
     Eigenvalues ---    0.09135   0.10120   0.10440   0.11527   0.12696
     Eigenvalues ---    0.13442   0.13655   0.15109   0.15882   0.17956
     Eigenvalues ---    0.20044   0.22293   0.26003   0.26231   0.29444
     Eigenvalues ---    0.38510   0.43478   0.45111   0.48647   0.63086
     Eigenvalues ---    0.65265   0.72423   0.72828   0.79262   0.79564
     Eigenvalues ---    0.80456   0.81122   0.82639   0.83644   0.84416
     Eigenvalues ---    0.85504   0.91142   0.93664   0.95824   1.40568
     Eigenvalues ---    2.22837
 Eigenvectors required to have negative eigenvalues:
                          Y4        Y9        Y6        Z4        Y5
   1                    0.65621  -0.36383  -0.28516  -0.26774  -0.25185
                          Z15       Y10       Y1        Y7        Z9
   1                   -0.21647  -0.15953   0.14267  -0.12488   0.12361
 RFO step:  Lambda0=3.324788460D-02 Lambda=-3.71381457D-02.
 Linear search not attempted -- option 19 set.
 Maximum step size (   0.100) exceeded in Quadratic search.
    -- Step size scaled by   0.101
 B after Tr=     0.000053    0.002750   -0.000230
         Rot=    1.000000    0.000050    0.000052   -0.000098 Ang=   0.01 deg.
 Variable       Old X    -DE/DX   Delta X   Delta X   Delta X     New X
                                 (Linear)    (Quad)   (Total)
    X1       -0.89887  -0.00335   0.00000  -0.00542  -0.00504  -0.90392
    Y1       -1.30784  -0.00587   0.00000   0.00811   0.01062  -1.29722
    Z1       -0.60098   0.00975   0.00000  -0.00206  -0.00226  -0.60323
    X2       -3.41499   0.00618   0.00000  -0.00343  -0.00329  -3.41828
    Y2       -0.72757  -0.02124   0.00000  -0.00718  -0.00505  -0.73262
    Z2        0.50161   0.02104   0.00000   0.00134   0.00082   0.50243
    X3       -4.10688  -0.00058   0.00000  -0.00587  -0.00575  -4.11263
    Y3       -1.66970   0.01753   0.00000   0.00367   0.00586  -1.66384
    Z3        2.50507  -0.01283   0.00000   0.00336   0.00287   2.50794
    X4        1.18746  -0.03166   0.00000  -0.00998  -0.00993   1.17754
    Y4       -0.35764  -0.04125   0.00000   0.03045   0.03349  -0.32415
    Z4        0.59728   0.02825   0.00000  -0.00778  -0.00785   0.58943
    X5        0.91413  -0.00299   0.00000   0.00185   0.00094   0.91507
    Y5        5.25570  -0.00487   0.00000  -0.02375  -0.02089   5.23481
    Z5       -0.66558   0.00353   0.00000   0.00961   0.00895  -0.65663
    X6        1.96794  -0.00046   0.00000  -0.01595  -0.01698   1.95096
    Y6        6.54534   0.00586   0.00000  -0.01816  -0.01522   6.53013
    Z6       -1.89375  -0.00148   0.00000  -0.00136  -0.00204  -1.89580
    X7       -1.08264  -0.00338   0.00000  -0.00318  -0.00404  -1.08668
    Y7        5.32327  -0.00184   0.00000  -0.03618  -0.03376   5.28951
    Z7       -1.19801   0.00005   0.00000   0.02290   0.02202  -1.17599
    X8        1.09816   0.00025   0.00000   0.01177   0.01054   1.10870
    Y8        5.90266  -0.00035   0.00000  -0.01749  -0.01440   5.88826
    Z8        1.28944   0.00299   0.00000   0.00715   0.00645   1.29589
    X9        1.91736   0.04716   0.00000   0.02798   0.02761   1.94497
    Y9        2.68361   0.04773   0.00000  -0.01231  -0.00927   2.67434
    Z9       -0.93732  -0.02431   0.00000  -0.00170  -0.00199  -0.93931
   X10        1.85781  -0.00274   0.00000   0.00861   0.00852   1.86633
   Y10        2.25979  -0.00680   0.00000  -0.02128  -0.01845   2.24134
   Z10       -2.82754   0.00466   0.00000   0.00169   0.00144  -2.82610
   X11        3.81754  -0.00082   0.00000   0.02627   0.02584   3.84338
   Y11        2.78695   0.00089   0.00000  -0.00442  -0.00098   2.78597
   Z11       -0.56569  -0.00231   0.00000  -0.00836  -0.00847  -0.57416
   X12        4.16120  -0.00092   0.00000  -0.00073  -0.00028   4.16091
   Y12       -1.97234   0.01021   0.00000   0.01442   0.01798  -1.95436
   Z12       -0.07960  -0.00256   0.00000  -0.00179  -0.00139  -0.08099
   X13        1.12246   0.00560   0.00000  -0.00464  -0.00503   1.11743
   Y13        0.47894  -0.00186   0.00000   0.01161   0.01492   0.49386
   Z13        3.37243  -0.00957   0.00000  -0.00419  -0.00435   3.36808
   X14       -0.42528  -0.00375   0.00000  -0.00218  -0.00287  -0.42816
   Y14        1.79896  -0.00059   0.00000   0.01163   0.01467   1.81363
   Z14        3.75645  -0.00148   0.00000   0.00817   0.00771   3.76416
   X15        0.88821  -0.00208   0.00000  -0.01435  -0.01454   0.87367
   Y15       -1.18327  -0.00071   0.00000  -0.00133   0.00205  -1.18122
   Z15        4.58644  -0.00089   0.00000  -0.02313  -0.02315   4.56330
   X16        2.89098   0.00286   0.00000   0.00036  -0.00028   2.89070
   Y16        1.41064   0.00135   0.00000  -0.00302   0.00070   1.41133
   Z16        3.92230  -0.00135   0.00000   0.00666   0.00659   3.92889
   X17       -0.94992   0.00317   0.00000   0.00277   0.00368  -0.94624
   Y17       -2.81509   0.00647   0.00000   0.00672   0.00898  -2.80611
   Z17       -2.99594  -0.00097   0.00000  -0.00162  -0.00167  -2.99761
   X18        0.83142   0.00427   0.00000   0.00225   0.00326   0.83468
   Y18       -2.72506  -0.00112   0.00000   0.01227   0.01478  -2.71028
   Z18       -4.04271  -0.00139   0.00000  -0.00330  -0.00317  -4.04588
   X19       -1.34559  -0.00078   0.00000   0.01511   0.01638  -1.32921
   Y19       -4.80548  -0.00528   0.00000   0.00264   0.00487  -4.80061
   Z19       -2.57428  -0.00234   0.00000  -0.00055  -0.00044  -2.57473
   X20       -2.42713  -0.00505   0.00000  -0.00547  -0.00455  -2.43168
   Y20       -2.13960   0.00007   0.00000  -0.00848  -0.00664  -2.14624
   Z20       -4.28206  -0.00403   0.00000  -0.00207  -0.00234  -4.28440
   X21       -5.10355  -0.00020   0.00000  -0.00528  -0.00533  -5.10888
   Y21        1.04675  -0.00042   0.00000  -0.00448  -0.00283   1.04392
   Z21       -0.95883  -0.00344   0.00000   0.00006  -0.00081  -0.95963
   X22       -6.75764  -0.00660   0.00000  -0.01708  -0.01686  -6.77450
   Y22        0.01812   0.00080   0.00000   0.00568   0.00694   0.02505
   Z22       -1.64817  -0.00020   0.00000   0.01250   0.01156  -1.63661
   X23       -5.70316  -0.00440   0.00000   0.00772   0.00724  -5.69592
   Y23        2.58088   0.00063   0.00000   0.00138   0.00304   2.58392
   Z23        0.29271   0.00290   0.00000   0.00106  -0.00003   0.29268
   X24       -4.11048   0.00028   0.00000  -0.00917  -0.00921  -4.11969
   Y24        1.87597   0.00065   0.00000  -0.01311  -0.01143   1.86454
   Z24       -2.57109  -0.00399   0.00000  -0.00761  -0.00846  -2.57955
         Item               Value     Threshold  Converged?
 Maximum Force            0.047731     0.000450     NO 
 RMS     Force            0.012277     0.000300     NO 
 Maximum Displacement     0.033761     0.001800     NO 
 RMS     Displacement     0.011672     0.001200     NO 
 Predicted change in Energy=-3.765336D-04
 GradGradGradGradGradGradGradGradGradGradGradGradGradGradGradGradGradGrad

                          Input orientation:                          
 ---------------------------------------------------------------------
 Center     Atomic      Atomic             Coordinates (Angstroms)
 Number     Number       Type             X           Y           Z
 ---------------------------------------------------------------------
      1          6           0       -0.478331   -0.686461   -0.319218
      2          6           0       -1.808877   -0.387683    0.265877
      3          8           0       -2.176311   -0.880467    1.327147
      4          6           0        0.623127   -0.171531    0.311912
      5          6           0        0.484233    2.770141   -0.347476
      6          1           0        1.032404    3.455595   -1.003214
      7          1           0       -0.575044    2.799088   -0.622305
      8          1           0        0.586698    3.115935    0.685753
      9          7           0        1.029232    1.415200   -0.497063
     10          1           0        0.987617    1.186067   -1.495509
     11          1           0        2.033830    1.474273   -0.303831
     12         17           0        2.201861   -1.034205   -0.042859
     13          6           0        0.591319    0.261341    1.782311
     14          1           0       -0.226571    0.959732    1.991910
     15          1           0        0.462328   -0.625074    2.414792
     16          1           0        1.529691    0.746846    2.079080
     17          6           0       -0.500729   -1.484928   -1.586267
     18          1           0        0.441695   -1.434216   -2.140989
     19          1           0       -0.703386   -2.540374   -1.362486
     20          1           0       -1.286790   -1.135740   -2.267205
     21          6           0       -2.703502    0.552420   -0.507816
     22          1           0       -3.584913    0.013257   -0.866057
     23          1           0       -3.014153    1.367351    0.154880
     24          1           0       -2.180047    0.986672   -1.365037
 ---------------------------------------------------------------------
                    Distance matrix (angstroms):
                    1          2          3          4          5
     1  C    0.000000
     2  C    1.483899   0.000000
     3  O    2.373034   1.226433   0.000000
     4  C    1.369922   2.442024   3.061069   0.000000
     5  C    3.588234   3.950495   4.817655   3.017867   0.000000
     6  H    4.461703   4.945124   5.876041   3.879833   1.095596
     7  H    3.500038   3.530825   4.461339   3.336608   1.094732
     8  H    4.074613   4.265023   4.900697   3.308855   1.094365
     9  N    2.592557   3.447801   4.344345   1.826767   1.468083
    10  H    2.653116   3.660540   4.716820   2.289694   2.020066
    11  H    3.313602   4.307882   5.092168   2.253418   2.020503
    12  Cl   2.716750   4.074228   4.590092   1.833704   4.185222
    13  C    2.541438   2.912344   3.028312   1.533123   3.292649
    14  H    2.848622   2.701557   2.762196   2.196391   3.042294
    15  H    2.891958   3.135692   2.865416   2.157235   4.376995
    16  H    3.440692   3.964960   4.116795   2.188187   3.327895
    17  C    1.497820   2.519055   3.414811   2.567323   4.539864
    18  H    2.173577   3.457356   4.380475   2.764781   4.571118
    19  H    2.139171   2.916805   3.486965   3.189774   5.535544
    20  H    2.156411   2.692334   3.711573   3.351018   4.698701
    21  C    2.553777   1.510877   2.387087   3.501788   3.886599
    22  H    3.231020   2.143906   2.755549   4.373712   4.942397
    23  H    3.297469   2.131937   2.669996   3.952546   3.802484
    24  H    2.605560   2.164832   3.276290   3.465743   3.363715
                    6          7          8          9         10
     6  H    0.000000
     7  H    1.777634   0.000000
     8  H    1.779503   1.777935   0.000000
     9  N    2.102239   2.122389   2.118346   0.000000
    10  H    2.322739   2.409613   2.939904   1.025246   0.000000
    11  H    2.327580   2.943262   2.401775   1.024717   1.611745
    12  Cl   4.737955   4.768763   4.512570   2.753351   2.917908
    13  C    4.261098   3.685477   3.057968   2.592046   3.428743
    14  H    4.096964   3.215398   2.648899   2.824797   3.699672
    15  H    5.353467   4.693078   4.123129   3.600416   4.341269
    16  H    4.133419   3.992379   2.905715   2.708075   3.642039
    17  C    5.205690   4.391758   5.245238   3.455125   3.059024
    18  H    5.055069   4.610968   5.358673   3.341686   2.753281
    19  H    6.252494   5.392049   6.152514   4.404258   4.094331
    20  H    5.296856   4.323789   5.505148   3.873584   3.340544
    21  C    4.757187   3.096927   4.338391   3.831163   3.873165
    22  H    5.760912   4.108476   5.425594   4.836521   4.762324
    23  H    4.698570   2.933111   4.038007   4.095886   4.332530
    24  H    4.067719   2.532299   4.048998   3.352087   3.176614
                   11         12         13         14         15
    11  H    0.000000
    12  Cl   2.527608   0.000000
    13  C    2.811411   2.757450   0.000000
    14  H    3.262605   3.743441   1.095730   0.000000
    15  H    3.777272   3.038653   1.096541   1.779050   0.000000
    16  H    2.541962   2.850716   1.097420   1.771264   1.770348
    17  C    4.101890   3.144718   3.948335   4.342220   4.204200
    18  H    3.790693   2.767733   4.276633   4.822698   4.627124
    19  H    4.972976   3.528515   4.406316   4.871351   4.392618
    20  H    4.657631   4.138685   4.677361   4.863653   5.024071
    21  C    4.830501   5.176500   4.023090   3.542558   4.466610
    22  H    5.832747   5.938147   4.951395   4.510239   5.248961
    23  H    5.069910   5.745727   4.107459   3.363250   4.600313
    24  H    4.372719   5.003320   4.255863   3.884056   4.885384
                   16         17         18         19         20
    16  H    0.000000
    17  C    4.747441   0.000000
    18  H    4.873372   1.094737   0.000000
    19  H    5.257074   1.097776   1.772248   0.000000
    20  H    5.510616   1.097042   1.758602   1.769710   0.000000
    21  C    4.964852   3.188425   4.062787   3.781045   2.820001
    22  H    5.947366   3.503635   4.464774   3.882096   2.926564
    23  H    4.973339   4.181434   5.006264   4.786686   3.887897
    24  H    5.067703   2.996307   3.651894   3.823687   2.473145
                   21         22         23         24
    21  C    0.000000
    22  H    1.093581   0.000000
    23  H    1.095346   1.789315   0.000000
    24  H    1.094261   1.780496   1.775049   0.000000
 Stoichiometry    C7H14ClNO
 Framework group  C1[X(C7H14ClNO)]
 Deg. of freedom    66
 Full point group                 C1      NOp   1
 Largest Abelian subgroup         C1      NOp   1
 Largest concise Abelian subgroup C1      NOp   1
                         Standard orientation:                         
 ---------------------------------------------------------------------
 Center     Atomic      Atomic             Coordinates (Angstroms)
 Number     Number       Type             X           Y           Z
 ---------------------------------------------------------------------
      1          6           0       -0.490011   -0.690381   -0.310324
      2          6           0       -1.817274   -0.357013    0.263432
      3          8           0       -2.199469   -0.826730    1.329936
      4          6           0        0.618249   -0.187775    0.318828
      5          6           0        0.540307    2.745949   -0.384528
      6          1           0        1.105007    3.410759   -1.047454
      7          1           0       -0.516848    2.791515   -0.665216
      8          1           0        0.644502    3.104957    0.644011
      9          7           0        1.059341    1.378546   -0.511326
     10          1           0        1.018103    1.135490   -1.506490
     11          1           0        2.063952    1.420832   -0.313803
     12         17           0        2.181465   -1.086304   -0.015046
     13          6           0        0.587778    0.267393    1.782508
     14          1           0       -0.217264    0.984666    1.977573
     15          1           0        0.438343   -0.606856    2.427303
     16          1           0        1.534038    0.738812    2.076931
[...]
    22   1     0.00   0.01   0.03    -0.00  -0.00  -0.00    -0.00  -0.00  -0.00
    23   1     0.03  -0.06   0.05     0.00  -0.00  -0.00     0.00  -0.00  -0.00
    24   1    -0.16   0.04   0.00     0.00   0.00  -0.00    -0.00  -0.00   0.00
                     55                     56                     57
                      A                      A                      A
 Frequencies --   3165.8684              3181.0526              3185.7736
 Red. masses --      1.0901                 1.0944                 1.0911
 Frc consts  --      6.4374                 6.5249                 6.5245
 IR Inten    --      0.0000                 0.0000                 0.0000
  Atom  AN      X      Y      Z        X      Y      Z        X      Y      Z
     1   6    -0.00   0.00   0.00    -0.00   0.00  -0.00     0.00   0.00   0.00
     2   6     0.00  -0.00  -0.00     0.00  -0.00  -0.00     0.00  -0.00   0.00
     3   8     0.00  -0.00   0.00    -0.00   0.00   0.00    -0.00   0.00  -0.00
     4   6    -0.00  -0.00   0.00     0.00   0.00  -0.00    -0.00   0.00  -0.00
     5   6    -0.00  -0.00  -0.00    -0.07  -0.04   0.02    -0.00  -0.00  -0.00
     6   1     0.00   0.00  -0.00     0.22   0.48  -0.42     0.00   0.00  -0.00
     7   1     0.01   0.00   0.00     0.71   0.07   0.13     0.02   0.00   0.00
     8   1    -0.00   0.00   0.00    -0.03  -0.01   0.05     0.00   0.00   0.01
     9   7     0.00   0.00   0.00     0.00  -0.00   0.00     0.00   0.00   0.00
    10   1     0.00  -0.00  -0.00     0.00  -0.01  -0.02     0.00  -0.00  -0.00
    11   1    -0.00  -0.00  -0.00    -0.07  -0.01  -0.02    -0.00   0.00  -0.00
    12  17     0.00   0.00  -0.00    -0.00   0.00   0.00     0.00  -0.00  -0.00
    13   6    -0.00   0.00  -0.00     0.00  -0.00   0.00    -0.07   0.05  -0.01
    14   1     0.00  -0.00  -0.00    -0.01   0.01   0.00     0.62  -0.57  -0.18
    15   1    -0.00  -0.00   0.00     0.00   0.00  -0.00    -0.10  -0.23   0.15
    16   1     0.00   0.00   0.00    -0.00  -0.00  -0.00     0.34   0.18   0.13
    17   6    -0.00   0.00  -0.00     0.00   0.00   0.00     0.00   0.00  -0.00
    18   1     0.00   0.00  -0.00    -0.00  -0.00   0.00    -0.00  -0.00   0.00
    19   1     0.00  -0.00   0.00     0.00   0.00  -0.00    -0.00   0.00   0.00
    20   1     0.00  -0.00   0.00    -0.00   0.00  -0.00     0.00  -0.00   0.00
    21   6     0.00  -0.05  -0.07     0.00   0.00  -0.00     0.00   0.00  -0.00
    22   1     0.36   0.24   0.11    -0.02  -0.02  -0.01    -0.00  -0.00  -0.00
    23   1    -0.31   0.53   0.59     0.00  -0.00  -0.01     0.00  -0.00  -0.00
    24   1    -0.10  -0.18   0.18    -0.01  -0.02   0.03    -0.00  -0.00   0.00
                     58                     59                     60
                      A                      A                      A
 Frequencies --   3188.3743              3190.9529              3204.6786
 Red. masses --      1.0938                 1.0927                 1.0901
 Frc consts  --      6.5513                 6.5556                 6.5960
 IR Inten    --      0.0000                 0.0000                 0.0000
  Atom  AN      X      Y      Z        X      Y      Z        X      Y      Z
     1   6    -0.00   0.00   0.00    -0.00  -0.00  -0.00     0.00   0.00   0.00
     2   6     0.00   0.00  -0.00    -0.00  -0.00   0.00     0.00   0.00  -0.00
     3   8     0.00  -0.00   0.00    -0.00   0.00  -0.00     0.00  -0.00   0.00
     4   6    -0.00  -0.00   0.00     0.00  -0.00   0.00    -0.00  -0.00  -0.00
     5   6     0.00   0.00  -0.01    -0.03   0.01  -0.08     0.00   0.00   0.00
     6   1    -0.03  -0.06   0.05    -0.20  -0.37   0.29     0.00   0.00  -0.00
     7   1     0.01   0.00  -0.00     0.43   0.06   0.03    -0.01  -0.00  -0.00
     8   1     0.01   0.02   0.06     0.10   0.21   0.67    -0.00  -0.00  -0.01
     9   7     0.00   0.00   0.00     0.01   0.00   0.01     0.00   0.00  -0.00
    10   1    -0.00  -0.00  -0.01    -0.01  -0.02  -0.12    -0.00  -0.00  -0.01
    11   1    -0.01  -0.00  -0.00    -0.10  -0.01  -0.03    -0.00   0.00  -0.00
    12  17    -0.00  -0.00   0.00     0.00   0.00   0.00     0.00  -0.00  -0.00
    13   6     0.00  -0.00   0.00     0.00  -0.00   0.00    -0.05  -0.07   0.00
    14   1    -0.00   0.00   0.00    -0.01   0.01   0.00    -0.15   0.08   0.04
    15   1     0.00   0.00  -0.00     0.00   0.01  -0.01     0.10   0.50  -0.33
    16   1    -0.00  -0.00  -0.00     0.01   0.00   0.00     0.68   0.27   0.26
    17   6     0.00  -0.00  -0.00     0.00   0.00   0.00    -0.00  -0.00  -0.00
    18   1    -0.00  -0.00   0.00    -0.00  -0.00   0.00    -0.00  -0.00   0.00
    19   1    -0.00   0.00  -0.00     0.00  -0.00   0.00    -0.00   0.00  -0.00
    20   1    -0.00   0.00  -0.00    -0.00   0.00  -0.00     0.00  -0.00   0.00
    21   6     0.06   0.05  -0.04    -0.01  -0.00   0.00     0.00   0.00   0.00
    22   1    -0.47  -0.34  -0.22     0.04   0.03   0.02    -0.00  -0.00  -0.00
    23   1     0.00   0.08   0.04     0.00  -0.01  -0.01    -0.00   0.00   0.00
    24   1    -0.25  -0.41   0.60     0.02   0.04  -0.05    -0.00  -0.00   0.00
                     61                     62                     63
                      A                      A                      A
 Frequencies --   3245.0982              3251.6750              3273.7316
 Red. masses --      1.0891                 1.0312                 1.0280
 Frc consts  --      6.7574                 6.4241                 6.4912
 IR Inten    --      0.0000                 0.0000                 0.0000
  Atom  AN      X      Y      Z        X      Y      Z        X      Y      Z
     1   6     0.00   0.00  -0.00    -0.00  -0.00  -0.01     0.00  -0.00  -0.00
     2   6     0.00  -0.00   0.00    -0.00   0.00   0.00    -0.00   0.00  -0.00
     3   8    -0.00   0.00  -0.00    -0.00  -0.00  -0.00    -0.00  -0.00   0.00
     4   6    -0.00  -0.00  -0.00     0.00   0.00   0.00    -0.00   0.00  -0.00
     5   6    -0.01  -0.00  -0.01     0.00   0.00   0.00    -0.00   0.00   0.00
     6   1    -0.02  -0.03   0.02     0.00   0.00  -0.00    -0.02  -0.03   0.03
     7   1     0.13   0.01   0.01    -0.01  -0.00  -0.00     0.04   0.01   0.01
     8   1     0.01   0.03   0.10    -0.00  -0.00  -0.01    -0.01  -0.02  -0.06
     9   7    -0.05  -0.01  -0.06     0.00   0.00   0.01     0.00   0.00  -0.00
    10   1     0.01   0.14   0.61    -0.00  -0.01  -0.05     0.00   0.00   0.00
    11   1     0.73   0.01   0.19    -0.07  -0.00  -0.02    -0.00   0.00  -0.00
    12  17    -0.00  -0.00  -0.00     0.00   0.00  -0.00     0.00  -0.00   0.00
    13   6    -0.00  -0.00   0.00     0.00   0.00  -0.00    -0.00  -0.00  -0.00
    14   1    -0.00  -0.00   0.00    -0.00   0.00   0.00    -0.00   0.00   0.00
    15   1     0.00   0.01  -0.00    -0.00  -0.00   0.00    -0.00  -0.00   0.00
    16   1     0.01   0.00   0.00    -0.00  -0.00  -0.00     0.00   0.00   0.00
    17   6    -0.00  -0.00  -0.00    -0.01  -0.01  -0.04     0.00   0.00   0.00
    18   1    -0.03  -0.02   0.02    -0.37  -0.24   0.27     0.00   0.00  -0.00
    19   1    -0.01   0.05  -0.00    -0.12   0.50  -0.02     0.00  -0.00   0.00
    20   1     0.06  -0.01   0.03     0.60  -0.07   0.30    -0.01   0.00  -0.00
    21   6    -0.00   0.00   0.00    -0.00  -0.00  -0.00    -0.03   0.02  -0.02
    22   1     0.00   0.00   0.00     0.01   0.01   0.00     0.48   0.37   0.19
    23   1     0.00  -0.00  -0.00     0.00  -0.00  -0.00     0.16  -0.32  -0.37
    24   1    -0.00   0.00   0.00    -0.00  -0.00   0.00    -0.21  -0.30   0.43
                     64                     65                     66
                      A                      A                      A
 Frequencies --   3276.1123              3297.5888              3319.0435
 Red. masses --      1.0265                 1.0304                 1.0443
 Frc consts  --      6.4911                 6.6016                 6.7779
 IR Inten    --      0.0000                 0.0000                 0.0000
  Atom  AN      X      Y      Z        X      Y      Z        X      Y      Z
     1   6     0.00  -0.00   0.00    -0.00  -0.00  -0.00    -0.00  -0.00  -0.00
     2   6    -0.00   0.00  -0.00     0.00   0.00  -0.00     0.00  -0.00  -0.00
     3   8     0.00  -0.00   0.00    -0.00  -0.00   0.00    -0.00  -0.00   0.00
     4   6    -0.00  -0.00   0.00     0.00   0.00   0.01     0.00   0.00  -0.00
     5   6     0.01  -0.03  -0.02    -0.00  -0.00  -0.00     0.00  -0.00  -0.01
     6   1     0.19   0.36  -0.32     0.00   0.00  -0.00     0.01   0.01  -0.01
     7   1    -0.50  -0.07  -0.09    -0.00  -0.00  -0.00    -0.06  -0.00  -0.01
     8   1     0.11   0.17   0.64     0.00   0.00   0.01     0.01   0.02   0.07
     9   7    -0.00  -0.00   0.00    -0.00   0.00   0.00     0.04  -0.01  -0.04
    10   1    -0.01  -0.01  -0.06    -0.00  -0.00  -0.01     0.06   0.18   0.74
    11   1     0.07   0.00   0.02     0.00   0.00   0.00    -0.61  -0.01  -0.20
    12  17    -0.00   0.00  -0.00     0.00  -0.00   0.00     0.00   0.00  -0.00
    13   6     0.00   0.00  -0.00    -0.01  -0.01   0.04    -0.00  -0.00   0.00
    14   1    -0.00   0.00   0.00     0.35  -0.32  -0.08     0.00  -0.00  -0.00
    15   1    -0.00  -0.01   0.00     0.15   0.62  -0.36     0.00   0.01  -0.00
    16   1     0.00   0.00   0.00    -0.43  -0.18  -0.14    -0.00  -0.00  -0.00
    17   6     0.00  -0.00  -0.00    -0.00  -0.00  -0.00    -0.00   0.00   0.00
    18   1    -0.00  -0.00   0.00    -0.00  -0.00  -0.00     0.00   0.00  -0.01
    19   1    -0.00   0.00   0.00    -0.00   0.00  -0.00     0.00  -0.00  -0.00
    20   1     0.00   0.00   0.00     0.00  -0.00   0.00     0.00   0.00  -0.00
    21   6    -0.00   0.00  -0.00    -0.00   0.00  -0.00    -0.00   0.00  -0.00
    22   1     0.04   0.03   0.02     0.00   0.00   0.00     0.00   0.00   0.00
    23   1     0.01  -0.03  -0.03     0.00  -0.00  -0.00     0.00  -0.00  -0.00
    24   1    -0.02  -0.03   0.04    -0.00  -0.00   0.00    -0.00  -0.00   0.00

 -------------------
 - Thermochemistry -
 -------------------
 Temperature   298.150 Kelvin.  Pressure   1.00000 Atm.
 Atom     1 has atomic number  6 and mass  12.00000
 Atom     2 has atomic number  6 and mass  12.00000
 Atom     3 has atomic number  8 and mass  15.99491
 Atom     4 has atomic number  6 and mass  12.00000
 Atom     5 has atomic number  6 and mass  12.00000
 Atom     6 has atomic number  1 and mass   1.00783
 Atom     7 has atomic number  1 and mass   1.00783
 Atom     8 has atomic number  1 and mass   1.00783
 Atom     9 has atomic number  7 and mass  14.00307
 Atom    10 has atomic number  1 and mass   1.00783
 Atom    11 has atomic number  1 and mass   1.00783
 Atom    12 has atomic number 17 and mass  34.96885
 Atom    13 has atomic number  6 and mass  12.00000
 Atom    14 has atomic number  1 and mass   1.00783
 Atom    15 has atomic number  1 and mass   1.00783
 Atom    16 has atomic number  1 and mass   1.00783
 Atom    17 has atomic number  6 and mass  12.00000
 Atom    18 has atomic number  1 and mass   1.00783
 Atom    19 has atomic number  1 and mass   1.00783
 Atom    20 has atomic number  1 and mass   1.00783
 Atom    21 has atomic number  6 and mass  12.00000
 Atom    22 has atomic number  1 and mass   1.00783
 Atom    23 has atomic number  1 and mass   1.00783
 Atom    24 has atomic number  1 and mass   1.00783
 Molecular mass:   163.07639 amu.
 Principal axes and moments of inertia in atomic units:
                           1         2         3
     Eigenvalues --  1318.032002240.711372474.61521
           X            0.99918   0.02710   0.03003
           Y           -0.02914   0.99714   0.06971
           Z           -0.02805  -0.07053   0.99711
 This molecule is an asymmetric top.
 Rotational symmetry number  1.
 Warning -- assumption of classical behavior for rotation
           may cause significant error
 Rotational temperatures (Kelvin)      0.06571     0.03865     0.03500
 Rotational constants (GHZ):           1.36927     0.80543     0.72930
    7 imaginary frequencies ignored.
 Zero-point vibrational energy     536120.4 (Joules/Mol)
                                  128.13585 (Kcal/Mol)
 Warning -- explicit consideration of  12 degrees of freedom as
           vibrations may cause significant error
 Vibrational temperatures:    115.36   213.30   273.75   290.67   371.03
          (Kelvin)            390.64   436.51   516.23   574.36   591.81
                              684.64   784.41   898.11   936.75  1170.03
                             1243.50  1397.16  1426.07  1447.18  1473.47
                             1482.91  1488.54  1518.78  1550.81  1714.33
                             1815.44  1854.53  1889.16  1909.20  1914.30
                             1930.06  1940.85  1942.85  1958.14  1961.99
                             1983.92  1984.70  1995.47  2000.82  2028.54
                             2057.94  2078.62  2421.85  2444.12  3043.86
                             4487.26  4531.27  4554.98  4576.83  4583.62
                             4587.36  4591.07  4610.82  4668.97  4678.44
                             4710.17  4713.59  4744.49  4775.36
 
 Zero-point correction=                           0.204197 (Hartree/Particle)
 Thermal correction to Energy=                    0.213190
 Thermal correction to Enthalpy=                  0.214134
 Thermal correction to Gibbs Free Energy=         0.169632
 Sum of electronic and zero-point Energies=           -864.505043
 Sum of electronic and thermal Energies=              -864.496051
 Sum of electronic and thermal Enthalpies=            -864.495107
 Sum of electronic and thermal Free Energies=         -864.539609
 
                     E (Thermal)             CV                S
                      KCal/Mol        Cal/Mol-Kelvin    Cal/Mol-Kelvin
 Total                  133.779             33.884             93.663
 Electronic               0.000              0.000              0.000
 Translational            0.889              2.981             41.176
 Rotational               0.889              2.981             30.370
 Vibrational            132.001             27.923             22.118
 Vibration     1          0.600              1.963              3.886
 Vibration     2          0.618              1.905              2.695
 Vibration     3          0.634              1.853              2.225
 Vibration     4          0.639              1.837              2.115
 Vibration     5          0.667              1.749              1.676
 Vibration     6          0.675              1.726              1.587
 Vibration     7          0.695              1.667              1.398
 Vibration     8          0.734              1.557              1.127
 Vibration     9          0.765              1.472              0.966
 Vibration    10          0.775              1.446              0.922
 Vibration    11          0.832              1.304              0.721
 Vibration    12          0.900              1.150              0.554
                       Q            Log10(Q)             Ln(Q)
 Total Bot       0.944014D-78        -78.025022       -179.659252
 Total V=0       0.792897D+16         15.899217         36.609300
 Vib (Bot)       0.119174D-91        -91.923818       -211.662412
 Vib (Bot)    1  0.256848D+01          0.409677          0.943316
 Vib (Bot)    2  0.136845D+01          0.136229          0.313678
 Vib (Bot)    3  0.105180D+01          0.021931          0.050499
 Vib (Bot)    4  0.986217D+00         -0.006027         -0.013879
 Vib (Bot)    5  0.753971D+00         -0.122645         -0.282402
 Vib (Bot)    6  0.711258D+00         -0.147973         -0.340720
 Vib (Bot)    7  0.625639D+00         -0.203676         -0.468982
 Vib (Bot)    8  0.511251D+00         -0.291365         -0.670894
 Vib (Bot)    9  0.446741D+00         -0.349944         -0.805777
 Vib (Bot)   10  0.429696D+00         -0.366839         -0.844677
 Vib (Bot)   11  0.352719D+00         -0.452571         -1.042083
 Vib (Bot)   12  0.289175D+00         -0.538840         -1.240724
 Vib (V=0)       0.100097D+03          2.000421          4.606140
 Vib (V=0)    1  0.311670D+01          0.493695          1.136774
 Vib (V=0)    2  0.195693D+01          0.291576          0.671378
 Vib (V=0)    3  0.166459D+01          0.221308          0.509580
 Vib (V=0)    4  0.160572D+01          0.205671          0.473574
 Vib (V=0)    5  0.140469D+01          0.147582          0.339820
 Vib (V=0)    6  0.136942D+01          0.136536          0.314386
 Vib (V=0)    7  0.130089D+01          0.114240          0.263048
 Vib (V=0)    8  0.121511D+01          0.084615          0.194832
 Vib (V=0)    9  0.117051D+01          0.068373          0.157435
 Vib (V=0)   10  0.115927D+01          0.064185          0.147792
 Vib (V=0)   11  0.111189D+01          0.046062          0.106062
 Vib (V=0)   12  0.107760D+01          0.032458          0.074737
 Electronic      0.100000D+01          0.000000          0.000000
 Translational   0.818541D+08          7.913041         18.220449
 Rotational      0.967733D+06          5.985755         13.782711
 ***** Axes restored to original set *****
 -------------------------------------------------------------------
 Center     Atomic                   Forces (Hartrees/Bohr)
 Number     Number              X              Y              Z
 -------------------------------------------------------------------
      1        6          -0.001880854    0.000064694   -0.000079642
      2        6           0.001773416    0.002435187    0.000415724
      3        8           0.000387052    0.003378134    0.001530996
      4        6           0.001519984    0.000882495    0.000479727
      5        6           0.000329511   -0.000372212   -0.000439401
      6        1          -0.000549988   -0.000520856    0.000004921
      7        1           0.000300149   -0.000899519    0.000281080
      8        1          -0.000044927   -0.000332911   -0.000343949
      9        7          -0.000429832   -0.000752939    0.000405548
     10        1           0.000735585   -0.000581954    0.000124595
     11        1           0.000655890   -0.000024968    0.000926479
     12       17          -0.001553477   -0.000735619    0.000251789
     13        6           0.000573463   -0.000134871    0.000114964
     14        1           0.000525119   -0.000689592    0.000171782
     15        1           0.000194788   -0.000505506   -0.000098254
     16        1           0.000440719   -0.000425300    0.000068228
     17        6           0.000071374    0.000914201    0.000077334
     18        1          -0.000259754    0.001652020   -0.000739404
     19        1           0.000060926    0.001281128   -0.000854462
     20        1           0.000632991    0.001045215    0.000110212
     21        6          -0.001176468   -0.000760815    0.000118023
     22        1          -0.000262651   -0.001807926    0.000073882
     23        1          -0.000629148   -0.001166524   -0.001542031
     24        1          -0.001413872   -0.001941565   -0.001058140
 -------------------------------------------------------------------
 Cartesian Forces:  Max     0.003378134 RMS     0.000947218


 SATCHEL PAIGE'S GUIDE TO LONGEVITY

    1.  AVOID FRIED MEATS, WHICH ANGRY UP THE BLOOD.

    2.  IF YOUR STOMACH DISPUTES YOU, LIE DOWN AND PACIFY IT WITH COOL
        THOUGHTS.

    3.  KEEP THE JUICES FLOWING BY JANGLING AROUND GENTLY AS YOU MOVE.

    4.  GO VERY LIGHT ON THE VICES, SUCH AS CARRYING ON IN SOCIETY.
        THE SOCIAL RUMBLE AIN'T RESTFUL.

    5.  AVOID RUNNING AT ALL TIMES.

    6.  DON'T LOOK BACK.  SOMETHING MAY BE GAINING ON YOU.
 Error termination request processed by link 9999.
 Error termination via Lnk1e in /apps/gaussian/g16/C.01/g16/l9999.exe at Mon May 20 13:41:56 2024.
 Job cpu time:       0 days  6 hours  2 minutes 56.2 seconds.
 Elapsed time:       0 days  0 hours 57 minutes 15.1 seconds.
 File lengths (MBytes):  RWF=      6 Int=      0 D2E=      0 Chk=      2 Scr=      1
