Unloading slurm/anatra/current
  ERROR: No such file or directory on
    '/cm/local/modulefiles/slurm/anatra/current'
environment: line 0: unalias: gv: not found
environment: line 0: unalias: sl: not found
 Entering Gaussian System, Link 0=g16
 Initial command:
 /apps/gaussian/g16/C.01/g16/l1.exe "/local/jobs/1157682/Gau-2150098.inp" -scrdir="/local/jobs/1157682/"
 Entering Link 1 = /apps/gaussian/g16/C.01/g16/l1.exe PID=   2150099.
  
 Copyright (c) 1988-2019, Gaussian, Inc.  All Rights Reserved.
  
 This is part of the Gaussian(R) 16 program.  It is based on
 the Gaussian(R) 09 system (copyright 2009, Gaussian, Inc.),
 the Gaussian(R) 03 system (copyright 2003, Gaussian, Inc.),
 the Gaussian(R) 98 system (copyright 1998, Gaussian, Inc.),
 the Gaussian(R) 94 system (copyright 1995, Gaussian, Inc.),
 the Gaussian 92(TM) system (copyright 1992, Gaussian, Inc.),
 the Gaussian 90(TM) system (copyright 1990, Gaussian, Inc.),
 the Gaussian 88(TM) system (copyright 1988, Gaussian, Inc.),
 the Gaussian 86(TM) system (copyright 1986, Carnegie Mellon
 University), and the Gaussian 82(TM) system (copyright 1983,
 Carnegie Mellon University). Gaussian is a federally registered
 trademark of Gaussian, Inc.
  
 This software contains proprietary and confidential information,
 including trade secrets, belonging to Gaussian, Inc.
  
 This software is provided under written license and may be
 used, copied, transmitted, or stored only in accord with that
 written license.
  
 The following legend is applicable only to US Government
 contracts under FAR:
  
                    RESTRICTED RIGHTS LEGEND
  
 Use, reproduction and disclosure by the US Government is
 subject to restrictions as set forth in subparagraphs (a)
 and (c) of the Commercial Computer Software - Restricted
 Rights clause in FAR 52.227-19.
  
 Gaussian, Inc.
 340 Quinnipiac St., Bldg. 40, Wallingford CT 06492
  
  
 ---------------------------------------------------------------
 Warning -- This program may not be used in any manner that
 competes with the business of Gaussian, Inc. or will provide
 assistance to any competitor of Gaussian, Inc.  The licensee
 of this program is prohibited from giving any competitor of
 Gaussian, Inc. access to this program.  By using this program,
 the user acknowledges that Gaussian, Inc. is engaged in the
 business of creating and licensing software in the field of
 computational chemistry and represents and warrants to the
 licensee that it is not a competitor of Gaussian, Inc. and that
 it will not use this program in any manner prohibited above.
 ---------------------------------------------------------------
  

 Cite this work as:
 Gaussian 16, Revision C.01,
 M. J. Frisch, G. W. Trucks, H. B. Schlegel, G. E. Scuseria, 
 M. A. Robb, J. R. Cheeseman, G. Scalmani, V. Barone, 
 G. A. Petersson, H. Nakatsuji, X. Li, M. Caricato, A. V. Marenich, 
 J. Bloino, B. G. Janesko, R. Gomperts, B. Mennucci, H. P. Hratchian, 
 J. V. Ortiz, A. F. Izmaylov, J. L. Sonnenberg, D. Williams-Young, 
 F. Ding, F. Lipparini, F. Egidi, J. Goings, B. Peng, A. Petrone, 
 T. Henderson, D. Ranasinghe, V. G. Zakrzewski, J. Gao, N. Rega, 
 G. Zheng, W. Liang, M. Hada, M. Ehara, K. Toyota, R. Fukuda, 
 J. Hasegawa, M. Ishida, T. Nakajima, Y. Honda, O. Kitao, H. Nakai, 
 T. Vreven, K. Throssell, J. A. Montgomery, Jr., J. E. Peralta, 
 F. Ogliaro, M. J. Bearpark, J. J. Heyd, E. N. Brothers, K. N. Kudin, 
 V. N. Staroverov, T. A. Keith, R. Kobayashi, J. Normand, 
 K. Raghavachari, A. P. Rendell, J. C. Burant, S. S. Iyengar, 
 J. Tomasi, M. Cossi, J. M. Millam, M. Klene, C. Adamo, R. Cammi, 
 J. W. Ochterski, R. L. Martin, K. Morokuma, O. Farkas, 
 J. B. Foresman, and D. J. Fox, Gaussian, Inc., Wallingford CT, 2019.
 
 ******************************************
 Gaussian 16:  ES64L-G16RevC.01  3-Jul-2019
                17-Jan-2024 
 ******************************************
 %nprocshared=12
 Will use up to   12 processors via shared memory.
 %mem=48GB
 ----------------------------------------------------------------------
 # external="~/scripts/MiMe -H 'hf def2svp' -EF 'wb97xd def2svp' -c 12 
 -m 48GB" opt=(calcall,ts,noeigen,maxcycles=50,maxstep=10,nomicro)
 ----------------------------------------------------------------------
 1/5=1,6=50,8=10,10=4,11=1,18=20,26=1,38=1/1,3;
 2/9=110,12=2,17=6,18=5,40=1/2;
 3/11=9,25=1,30=1,41=9900000,43=2,71=2,140=1/1;
 4/20=17,22=2,24=3,113=1,114=1/2;
 6/7=2,8=2,9=2,10=2,18=1/1;
 7/25=1,44=-1/16;
 1/5=1,6=50,8=10,10=4,11=1,18=20,26=1/3(3);
 2/9=110/2;
 7/8=1,9=1,25=1,44=-1/16;
 99//99;
 2/9=110/2;
 3/11=9,25=1,30=1,41=9900000,43=2,71=2,140=1/1;
 4/16=2,20=17,22=2,24=3,113=1,114=1/2;
 7/25=1,44=-1/16;
 1/5=1,6=50,8=10,10=4,11=1,18=20,26=1/3(-4);
 2/9=110/2;
 6/7=2,8=2,9=2,10=2,18=1/1;
 7/8=1,9=1,25=1,44=-1/16;
 99//99;
 ----------
 TS-898.out
 ----------
 Symbolic Z-matrix:
 Charge =  0 Multiplicity = 1
 C                    -0.46944  -0.70158  -0.3157 
 C                    -1.80325  -0.37883   0.26459 
 O                    -2.1666   -0.88981   1.32245 
 C                     0.64063  -0.22369   0.32388 
 C                     0.48216   2.80238  -0.36191 
 H                     1.0592    3.479    -0.99873 
 H                    -0.56866   2.85168  -0.65767 
 H                     0.56954   3.13654   0.67555 
 N                     0.98232   1.42813  -0.49487 
 H                     0.9747    1.21586  -1.4994 
 H                     1.99051   1.47348  -0.28996 
 Cl                    2.20424  -1.06498  -0.03906 
 C                     0.5992    0.23794   1.78923 
 H                    -0.22197   0.93682   1.97915 
 H                     0.48467  -0.62723   2.45151 
 H                     1.52984   0.74582   2.06821 
 C                    -0.50617  -1.49801  -1.58355 
 H                     0.43652  -1.45603  -2.13643 
 H                    -0.72787  -2.54679  -1.36119 
 H                    -1.27943  -1.12504  -2.26314 
 C                    -2.69529   0.55705  -0.50643 
 H                    -3.55857   0.003    -0.88378 
 H                    -3.02491   1.36267   0.15514 
 H                    -2.16599   1.00486  -1.35156 
 
 Add virtual bond connecting atoms N9         and C4         Dist= 3.54D+00.

 GradGradGradGradGradGradGradGradGradGradGradGradGradGradGradGradGradGrad
 Berny optimization.
 Initialization pass.
                           ----------------------------
                           !    Initial Parameters    !
                           ! (Angstroms and Degrees)  !
 --------------------------                            --------------------------
 ! Name  Definition              Value          Derivative Info.                !
 --------------------------------------------------------------------------------
 ! R1    R(1,2)                  1.49           calculate D2E/DX2 analytically  !
 ! R2    R(1,4)                  1.3674         calculate D2E/DX2 analytically  !
 ! R3    R(1,17)                 1.4977         calculate D2E/DX2 analytically  !
 ! R4    R(2,3)                  1.2297         calculate D2E/DX2 analytically  !
 ! R5    R(2,21)                 1.5053         calculate D2E/DX2 analytically  !
 ! R6    R(4,9)                  1.875          calculate D2E/DX2 analytically  !
 ! R7    R(4,12)                 1.8123         calculate D2E/DX2 analytically  !
 ! R8    R(4,13)                 1.5369         calculate D2E/DX2 analytically  !
 ! R9    R(5,6)                  1.0938         calculate D2E/DX2 analytically  !
 ! R10   R(5,7)                  1.0928         calculate D2E/DX2 analytically  !
 ! R11   R(5,8)                  1.0934         calculate D2E/DX2 analytically  !
 ! R12   R(5,9)                  1.4685         calculate D2E/DX2 analytically  !
 ! R13   R(9,10)                 1.0267         calculate D2E/DX2 analytically  !
 ! R14   R(9,11)                 1.0298         calculate D2E/DX2 analytically  !
 ! R15   R(13,14)                1.0949         calculate D2E/DX2 analytically  !
 ! R16   R(13,15)                1.0956         calculate D2E/DX2 analytically  !
 ! R17   R(13,16)                1.0963         calculate D2E/DX2 analytically  !
 ! R18   R(17,18)                1.0937         calculate D2E/DX2 analytically  !
 ! R19   R(17,19)                1.0948         calculate D2E/DX2 analytically  !
 ! R20   R(17,20)                1.0949         calculate D2E/DX2 analytically  !
 ! R21   R(21,22)                1.093          calculate D2E/DX2 analytically  !
 ! R22   R(21,23)                1.0933         calculate D2E/DX2 analytically  !
 ! R23   R(21,24)                1.0931         calculate D2E/DX2 analytically  !
 ! A1    A(2,1,4)              117.9612         calculate D2E/DX2 analytically  !
 ! A2    A(2,1,17)             115.0201         calculate D2E/DX2 analytically  !
 ! A3    A(4,1,17)             126.9934         calculate D2E/DX2 analytically  !
 ! A4    A(1,2,3)              120.6333         calculate D2E/DX2 analytically  !
 ! A5    A(1,2,21)             117.7536         calculate D2E/DX2 analytically  !
 ! A6    A(3,2,21)             121.5909         calculate D2E/DX2 analytically  !
 ! A7    A(1,4,9)              104.5717         calculate D2E/DX2 analytically  !
 ! A8    A(1,4,12)             116.3925         calculate D2E/DX2 analytically  !
 ! A9    A(1,4,13)             121.942          calculate D2E/DX2 analytically  !
 ! A10   A(9,4,12)              99.4555         calculate D2E/DX2 analytically  !
 ! A11   A(9,4,13)              99.0118         calculate D2E/DX2 analytically  !
 ! A12   A(12,4,13)            110.7098         calculate D2E/DX2 analytically  !
 ! A13   A(6,5,7)              108.7737         calculate D2E/DX2 analytically  !
 ! A14   A(6,5,8)              108.7359         calculate D2E/DX2 analytically  !
 ! A15   A(6,5,9)              110.2743         calculate D2E/DX2 analytically  !
 ! A16   A(7,5,8)              108.6541         calculate D2E/DX2 analytically  !
 ! A17   A(7,5,9)              110.1965         calculate D2E/DX2 analytically  !
 ! A18   A(8,5,9)              110.1625         calculate D2E/DX2 analytically  !
 ! A19   A(4,9,5)              136.2896         calculate D2E/DX2 analytically  !
 ! A20   A(4,9,10)             104.1071         calculate D2E/DX2 analytically  !
 ! A21   A(4,9,11)              97.488          calculate D2E/DX2 analytically  !
 ! A22   A(5,9,10)             106.2324         calculate D2E/DX2 analytically  !
 ! A23   A(5,9,11)             105.9157         calculate D2E/DX2 analytically  !
 ! A24   A(10,9,11)            102.1836         calculate D2E/DX2 analytically  !
 ! A25   A(4,13,14)            112.1679         calculate D2E/DX2 analytically  !
 ! A26   A(4,13,15)            109.998          calculate D2E/DX2 analytically  !
 ! A27   A(4,13,16)            111.0323         calculate D2E/DX2 analytically  !
 ! A28   A(14,13,15)           108.7118         calculate D2E/DX2 analytically  !
 ! A29   A(14,13,16)           107.2666         calculate D2E/DX2 analytically  !
 ! A30   A(15,13,16)           107.5031         calculate D2E/DX2 analytically  !
 ! A31   A(1,17,18)            112.7305         calculate D2E/DX2 analytically  !
 ! A32   A(1,17,19)            110.0265         calculate D2E/DX2 analytically  !
 ! A33   A(1,17,20)            111.1983         calculate D2E/DX2 analytically  !
 ! A34   A(18,17,19)           108.3006         calculate D2E/DX2 analytically  !
 ! A35   A(18,17,20)           106.3728         calculate D2E/DX2 analytically  !
 ! A36   A(19,17,20)           108.0213         calculate D2E/DX2 analytically  !
 ! A37   A(2,21,22)            109.2519         calculate D2E/DX2 analytically  !
 ! A38   A(2,21,23)            109.0768         calculate D2E/DX2 analytically  !
 ! A39   A(2,21,24)            111.3301         calculate D2E/DX2 analytically  !
 ! A40   A(22,21,23)           110.1396         calculate D2E/DX2 analytically  !
 ! A41   A(22,21,24)           108.8556         calculate D2E/DX2 analytically  !
 ! A42   A(23,21,24)           108.1763         calculate D2E/DX2 analytically  !
 ! D1    D(4,1,2,3)            -70.3005         calculate D2E/DX2 analytically  !
 ! D2    D(4,1,2,21)           111.3855         calculate D2E/DX2 analytically  !
 ! D3    D(17,1,2,3)           111.4016         calculate D2E/DX2 analytically  !
 ! D4    D(17,1,2,21)          -66.9123         calculate D2E/DX2 analytically  !
 ! D5    D(2,1,4,9)            -91.6361         calculate D2E/DX2 analytically  !
 ! D6    D(2,1,4,12)           159.7922         calculate D2E/DX2 analytically  !
 ! D7    D(2,1,4,13)            19.0221         calculate D2E/DX2 analytically  !
 ! D8    D(17,1,4,9)            86.4327         calculate D2E/DX2 analytically  !
 ! D9    D(17,1,4,12)          -22.1391         calculate D2E/DX2 analytically  !
 ! D10   D(17,1,4,13)         -162.9091         calculate D2E/DX2 analytically  !
 ! D11   D(2,1,17,18)          162.4272         calculate D2E/DX2 analytically  !
 ! D12   D(2,1,17,19)          -76.5718         calculate D2E/DX2 analytically  !
 ! D13   D(2,1,17,20)           43.0679         calculate D2E/DX2 analytically  !
 ! D14   D(4,1,17,18)          -15.6904         calculate D2E/DX2 analytically  !
 ! D15   D(4,1,17,19)          105.3106         calculate D2E/DX2 analytically  !
 ! D16   D(4,1,17,20)         -135.0496         calculate D2E/DX2 analytically  !
 ! D17   D(1,2,21,22)          111.7252         calculate D2E/DX2 analytically  !
 ! D18   D(1,2,21,23)         -127.832          calculate D2E/DX2 analytically  !
 ! D19   D(1,2,21,24)           -8.532          calculate D2E/DX2 analytically  !
 ! D20   D(3,2,21,22)          -66.5717         calculate D2E/DX2 analytically  !
 ! D21   D(3,2,21,23)           53.8711         calculate D2E/DX2 analytically  !
 ! D22   D(3,2,21,24)          173.1712         calculate D2E/DX2 analytically  !
 ! D23   D(1,4,9,5)             82.3572         calculate D2E/DX2 analytically  !
 ! D24   D(1,4,9,10)           -50.486          calculate D2E/DX2 analytically  !
 ! D25   D(1,4,9,11)          -155.1123         calculate D2E/DX2 analytically  !
 ! D26   D(12,4,9,5)          -157.0514         calculate D2E/DX2 analytically  !
 ! D27   D(12,4,9,10)           70.1054         calculate D2E/DX2 analytically  !
 ! D28   D(12,4,9,11)          -34.5209         calculate D2E/DX2 analytically  !
 ! D29   D(13,4,9,5)           -44.1342         calculate D2E/DX2 analytically  !
 ! D30   D(13,4,9,10)         -176.9775         calculate D2E/DX2 analytically  !
 ! D31   D(13,4,9,11)           78.3962         calculate D2E/DX2 analytically  !
 ! D32   D(1,4,13,14)          -50.0825         calculate D2E/DX2 analytically  !
 ! D33   D(1,4,13,15)           71.0434         calculate D2E/DX2 analytically  !
 ! D34   D(1,4,13,16)         -170.0859         calculate D2E/DX2 analytically  !
 ! D35   D(9,4,13,14)           63.4373         calculate D2E/DX2 analytically  !
 ! D36   D(9,4,13,15)         -175.4367         calculate D2E/DX2 analytically  !
 ! D37   D(9,4,13,16)          -56.566          calculate D2E/DX2 analytically  !
 ! D38   D(12,4,13,14)         167.1932         calculate D2E/DX2 analytically  !
 ! D39   D(12,4,13,15)         -71.6809         calculate D2E/DX2 analytically  !
 ! D40   D(12,4,13,16)          47.1898         calculate D2E/DX2 analytically  !
 ! D41   D(6,5,9,4)            174.2025         calculate D2E/DX2 analytically  !
 ! D42   D(6,5,9,10)           -53.5824         calculate D2E/DX2 analytically  !
 ! D43   D(6,5,9,11)            54.5726         calculate D2E/DX2 analytically  !
 ! D44   D(7,5,9,4)            -65.7013         calculate D2E/DX2 analytically  !
 ! D45   D(7,5,9,10)            66.5137         calculate D2E/DX2 analytically  !
 ! D46   D(7,5,9,11)           174.6688         calculate D2E/DX2 analytically  !
 ! D47   D(8,5,9,4)             54.1752         calculate D2E/DX2 analytically  !
 ! D48   D(8,5,9,10)          -173.6098         calculate D2E/DX2 analytically  !
 ! D49   D(8,5,9,11)           -65.4548         calculate D2E/DX2 analytically  !
 --------------------------------------------------------------------------------
 Trust Radius=1.00D-01 FncErr=1.00D-07 GrdErr=1.00D-07 EigMax=2.50D+02 EigMin=1.00D-04
 Number of steps in this run=     50 maximum allowed number of steps=    144.
 Search for a saddle point of order  1.
 GradGradGradGradGradGradGradGradGradGradGradGradGradGradGradGradGradGrad

                          Input orientation:                          
 ---------------------------------------------------------------------
 Center     Atomic      Atomic             Coordinates (Angstroms)
 Number     Number       Type             X           Y           Z
 ---------------------------------------------------------------------
      1          6           0       -0.469440   -0.701580   -0.315700
      2          6           0       -1.803250   -0.378830    0.264590
      3          8           0       -2.166600   -0.889810    1.322450
      4          6           0        0.640630   -0.223690    0.323880
      5          6           0        0.482160    2.802380   -0.361910
      6          1           0        1.059200    3.479000   -0.998730
      7          1           0       -0.568660    2.851680   -0.657670
      8          1           0        0.569540    3.136540    0.675550
      9          7           0        0.982320    1.428130   -0.494870
     10          1           0        0.974700    1.215860   -1.499400
     11          1           0        1.990510    1.473480   -0.289960
     12         17           0        2.204240   -1.064980   -0.039060
     13          6           0        0.599200    0.237940    1.789230
     14          1           0       -0.221970    0.936820    1.979150
     15          1           0        0.484670   -0.627230    2.451510
     16          1           0        1.529840    0.745820    2.068210
     17          6           0       -0.506170   -1.498010   -1.583550
     18          1           0        0.436520   -1.456030   -2.136430
     19          1           0       -0.727870   -2.546790   -1.361190
     20          1           0       -1.279430   -1.125040   -2.263140
     21          6           0       -2.695290    0.557050   -0.506430
     22          1           0       -3.558570    0.003000   -0.883780
     23          1           0       -3.024910    1.362670    0.155140
     24          1           0       -2.165990    1.004860   -1.351560
 ---------------------------------------------------------------------
                    Distance matrix (angstroms):
                    1          2          3          4          5
     1  C    0.000000
     2  C    1.489951   0.000000
     3  O    2.366288   1.229712   0.000000
     4  C    1.367369   2.449517   3.053096   0.000000
     5  C    3.631172   3.966825   4.846160   3.106851   0.000000
     6  H    4.503390   4.967137   5.905943   3.954037   1.093768
     7  H    3.571057   3.579242   4.524714   3.447278   1.092761
     8  H    4.097953   4.261085   4.910849   3.379330   1.093445
     9  N    2.583674   3.406066   4.311751   1.874997   1.468469
    10  H    2.676427   3.656734   4.718522   2.346968   2.013337
    11  H    3.283733   4.258074   5.046441   2.253744   2.011535
    12  Cl   2.712407   4.077129   4.581336   1.812283   4.245735
    13  C    2.540752   2.911477   3.023136   1.536903   3.349247
    14  H    2.830536   2.677890   2.747620   2.197904   3.075171
    15  H    2.928021   3.174728   2.893606   2.171170   4.435940
    16  H    3.431489   3.953147   4.110366   2.184795   3.351501
    17  C    1.497696   2.520040   3.401731   2.564631   4.578488
    18  H    2.169105   3.455695   4.365855   2.759248   4.613573
    19  H    2.136501   2.915416   3.466619   3.179473   5.574617
    20  H    2.151261   2.687124   3.701197   3.345405   4.705582
    21  C    2.564164   1.505350   2.391175   3.525242   3.893402
    22  H    3.218986   2.132064   2.757198   4.375284   4.943316
    23  H    3.318621   2.130083   2.678241   3.997649   3.826179
    24  H    2.619776   2.158268   3.277210   3.491926   3.350102
                    6          7          8          9         10
     6  H    0.000000
     7  H    1.777577   0.000000
     8  H    1.777712   1.775984   0.000000
     9  N    2.113257   2.111525   2.111619   0.000000
    10  H    2.319399   2.401328   2.929774   1.026741   0.000000
    11  H    2.322026   2.929846   2.391053   1.029802   1.600307
    12  Cl   4.783287   4.838582   4.564612   2.813618   2.974322
    13  C    4.299859   3.766013   3.105325   2.603929   3.451437
    14  H    4.119690   3.277149   2.676682   2.795080   3.689199
    15  H    5.394012   4.783233   4.162596   3.626750   4.387118
    16  H    4.134960   4.033456   2.928689   2.708266   3.641011
    17  C    5.250050   4.447579   5.266853   3.458775   3.092757
    18  H    5.102608   4.664063   5.386708   3.363182   2.799007
    19  H    6.295645   5.446445   6.175097   4.413077   4.132237
    20  H    5.316494   4.347071   5.496877   3.842001   3.338295
    21  C    4.782922   3.132213   4.325501   3.779382   3.858607
    22  H    5.780968   4.135900   5.412197   4.775136   4.732922
    23  H    4.742386   2.985126   4.041969   4.060134   4.330812
    24  H    4.080160   2.538443   4.017009   3.290126   3.151240
                   11         12         13         14         15
    11  H    0.000000
    12  Cl   2.559768   0.000000
    13  C    2.790221   2.759782   0.000000
    14  H    3.214332   3.737228   1.094908   0.000000
    15  H    3.767784   3.058020   1.095560   1.780089   0.000000
    16  H    2.510512   2.859091   1.096295   1.764441   1.767644
    17  C    4.091032   3.149490   3.951077   4.324581   4.245201
    18  H    3.795572   2.770689   4.278645   4.805969   4.662448
    19  H    4.969879   3.541336   4.409193   4.852767   4.437527
    20  H    4.619335   4.133533   4.669975   4.833892   5.058437
    21  C    4.779480   5.182163   4.028095   3.526988   4.501563
    22  H    5.771241   5.921496   4.948457   4.494584   5.279123
    23  H    5.036351   5.768467   4.131518   3.371177   4.642216
    24  H    4.315448   5.010569   4.254292   3.857133   4.914576
                   16         17         18         19         20
    16  H    0.000000
    17  C    4.745046   0.000000
    18  H    4.870574   1.093665   0.000000
    19  H    5.263014   1.094776   1.773854   0.000000
    20  H    5.491148   1.094934   1.752168   1.771752   0.000000
    21  C    4.951376   3.189938   4.064188   3.772954   2.814270
    22  H    5.929413   3.472730   4.433807   3.839559   2.893024
    23  H    4.978563   4.189342   5.017755   4.781164   3.883746
    24  H    5.041933   3.012172   3.666750   3.831775   2.480613
                   21         22         23         24
    21  C    0.000000
    22  H    1.092985   0.000000
    23  H    1.093320   1.792443   0.000000
    24  H    1.093132   1.778151   1.770852   0.000000
 Stoichiometry    C7H14ClNO
 Framework group  C1[X(C7H14ClNO)]
 Deg. of freedom    66
 Full point group                 C1      NOp   1
 Largest Abelian subgroup         C1      NOp   1
 Largest concise Abelian subgroup C1      NOp   1
                         Standard orientation:                         
 ---------------------------------------------------------------------
 Center     Atomic      Atomic             Coordinates (Angstroms)
 Number     Number       Type             X           Y           Z
 ---------------------------------------------------------------------
      1          6           0       -0.469441   -0.701580   -0.315698
      2          6           0       -1.803251   -0.378831    0.264592
      3          8           0       -2.166601   -0.889811    1.322452
      4          6           0        0.640629   -0.223689    0.323882
      5          6           0        0.482157    2.802381   -0.361908
      6          1           0        1.059196    3.479001   -0.998728
      7          1           0       -0.568663    2.851680   -0.657668
      8          1           0        0.569536    3.136541    0.675552
      9          7           0        0.982317    1.428131   -0.494868
     10          1           0        0.974698    1.215861   -1.499398
     11          1           0        1.990507    1.473482   -0.289958
     12         17           0        2.204239   -1.064978   -0.039058
     13          6           0        0.599198    0.237941    1.789232
     14          1           0       -0.221972    0.936820    1.979152
     15          1           0        0.484669   -0.627229    2.451512
     16          1           0        1.529838    0.745821    2.068212
     17          6           0       -0.506171   -1.498010   -1.583548
     18          1           0        0.436519   -1.456029   -2.136428
     19          1           0       -0.727870   -2.546790   -1.361188
     20          1           0       -1.279431   -1.125041   -2.263138
     21          6           0       -2.695292    0.557049   -0.506428
     22          1           0       -3.558572    0.002998   -0.883778
     23          1           0       -3.024912    1.362668    0.155142
     24          1           0       -2.165992    1.004859   -1.351558
 ---------------------------------------------------------------------
 Rotational constants (GHZ):           1.2552322           0.8692634           0.7181864
 Standard basis: STO-3G (5D, 7F)
 There are    68 symmetry adapted cartesian basis functions of A   symmetry.
 There are    68 symmetry adapted basis functions of A   symmetry.
    68 basis functions,   204 primitive gaussians,    68 cartesian basis functions
    44 alpha electrons       44 beta electrons
       nuclear repulsion energy       665.0561892251 Hartrees.
 NAtoms=   24 NActive=   24 NUniq=   24 SFac= 1.00D+00 NAtFMM=   60 NAOKFM=F Big=F
 Integral buffers will be    131072 words long.
 Raffenetti 1 integral format.
 Two-electron integral symmetry is turned on.
 External calculation of energy, first and second derivatives.
 Running external command "~/scripts/MiMe -H 'hf def2svp' -EF 'wb97xd def2svp' -c 12 -m 48GB R"
         input file       "/local/jobs/1157682/Gau-2150099.EIn"
         output file      "/local/jobs/1157682/Gau-2150099.EOu"
         message file     "/local/jobs/1157682/Gau-2150099.EMs"
         fchk file        "/local/jobs/1157682/Gau-2150099.EFC"
         mat. el file     "/local/jobs/1157682/Gau-2150099.EUF"
 Read checkpoint file Gau-2150099_H.chk type G16
 Write formatted file Gau-2150099_H.fchk

deriv: 2

spelevel: wb97xd def2svp
gradlevel: wb97xd def2svp
hesslevel: hf def2svp

runspe: False
runforce: True
runfreq: True

Running Gaussian ...

Parsing files ...
SPE file: Gau-2150099_F.out
FORCE file: Gau-2150099_F.out
HESS file: Gau-2150099_H.out

 ExternalExternalExternalExternalExternalExternalExternalExternalExternalExternal
 Output from external command:
 "~/scripts/MiMe -H 'hf def2svp' -EF 'wb97xd def2svp' -c 12 -m 48GB R /local/jobs/1157682/Gau-2150099.EIn /local/jobs/1157682/Gau-2150099.EOu /local/jobs/1157682/Gau-2150099.EMs /local/jobs/1157682/Gau-2150099.EFC /local/jobs/1157682/Gau-2150099.EUF"
  
 --------------------------------------------------
 Force calculation at wb97xd def2svp
 Hessian calculation at hf def2svp
 ExternalExternalExternalExternalExternalExternalExternalExternalExternalExternal

 Recovered energy= -864.686600681     dipole=      2.062100000000      5.416600000000     -2.646100000000
 Energy=    -864.686601     NIter=   0.
 Dipole moment=       2.062100       5.416600      -2.646100
 ***** Axes restored to original set *****
 -------------------------------------------------------------------
 Center     Atomic                   Forces (Hartrees/Bohr)
 Number     Number              X              Y              Z
 -------------------------------------------------------------------
      1        6          -0.002524357   -0.008794464    0.010740800
      2        6           0.008218536   -0.025620249    0.024492253
      3        8          -0.000696935    0.019945956   -0.016037902
      4        6          -0.037976309   -0.044906467    0.030617841
      5        6          -0.003202489   -0.006205890    0.004308950
      6        1           0.000214442    0.006613082   -0.002225141
      7        1          -0.004395629   -0.000448568   -0.000196767
      8        1          -0.000083615    0.000438273    0.003424103
      9        7           0.053935154    0.054643268   -0.026235811
     10        1          -0.004099176   -0.007659621    0.005286562
     11        1          -0.003564365    0.000726759   -0.002516217
     12       17          -0.001495736    0.011088421   -0.003041206
     13        6           0.007278419   -0.001336171   -0.011632435
     14        1          -0.004047133   -0.000770268   -0.001645569
     15        1          -0.002224811   -0.001599464   -0.001076458
     16        1           0.003509354    0.001445782   -0.000850574
     17        6           0.004103954    0.007620992   -0.000196375
     18        1           0.004833492   -0.001574944   -0.001419966
     19        1          -0.001216929   -0.006416838   -0.002455783
     20        1          -0.005912335    0.000026960   -0.004381063
     21        6           0.000586805    0.000100163   -0.003652801
     22        1          -0.006912666    0.000851659   -0.000298748
     23        1          -0.005032257    0.000946033    0.003406422
     24        1           0.000704584    0.000885596   -0.004414113
 -------------------------------------------------------------------
 Cartesian Forces:  Max     0.054643268 RMS     0.014005430
 FormGI is forming the generalized inverse of G from B-inverse, IUseBI=4.

 GradGradGradGradGradGradGradGradGradGradGradGradGradGradGradGradGradGrad
 Berny optimization.
 Internal  Forces:  Max     0.057379704 RMS     0.008148635
 Search for a saddle point.
 Step number   1 out of a maximum of   50
 All quantities printed in internal units (Hartrees-Bohrs-Radians)
 Swapping is turned off.
 Second derivative matrix not updated -- analytic derivatives used.
 ITU=  0
     Eigenvalues ---   -0.07402   0.00336   0.00380   0.00497   0.00695
     Eigenvalues ---    0.00919   0.00949   0.01416   0.02001   0.03046
     Eigenvalues ---    0.04355   0.05047   0.05337   0.05529   0.05856
     Eigenvalues ---    0.05927   0.06730   0.06839   0.07117   0.07185
     Eigenvalues ---    0.07331   0.07673   0.09732   0.11104   0.11639
     Eigenvalues ---    0.12657   0.14494   0.14702   0.14839   0.15360
     Eigenvalues ---    0.15895   0.15988   0.17269   0.17440   0.17885
     Eigenvalues ---    0.18139   0.18731   0.20854   0.21041   0.21132
     Eigenvalues ---    0.21876   0.24427   0.26325   0.27655   0.30222
     Eigenvalues ---    0.32187   0.35475   0.35803   0.36018   0.36104
     Eigenvalues ---    0.36325   0.36600   0.36752   0.36837   0.36868
     Eigenvalues ---    0.36960   0.37054   0.37174   0.38084   0.38846
     Eigenvalues ---    0.39108   0.42710   0.43208   0.44278   0.59881
     Eigenvalues ---    0.82053
 Eigenvectors required to have negative eigenvalues:
                          R6        A19       A21       D5        D6
   1                   -0.76377  -0.30980   0.18706  -0.16067  -0.15611
                          R2        A11       D1        D2        D8
   1                    0.14413   0.12021   0.11646   0.11511  -0.11245
 RFO step:  Lambda0=9.426804492D-03 Lambda=-3.96931001D-02.
 Linear search not attempted -- option 19 set.
 Maximum step size (   0.100) exceeded in Quadratic search.
    -- Step size scaled by   0.220
 Iteration  1 RMS(Cart)=  0.03458806 RMS(Int)=  0.00067707
 Iteration  2 RMS(Cart)=  0.00125282 RMS(Int)=  0.00017766
 Iteration  3 RMS(Cart)=  0.00000152 RMS(Int)=  0.00017766
 Iteration  4 RMS(Cart)=  0.00000000 RMS(Int)=  0.00017766
 Variable       Old X    -DE/DX   Delta X   Delta X   Delta X     New X
                                 (Linear)    (Quad)   (Total)
    R1        2.81560   0.00354   0.00000  -0.00243  -0.00243   2.81317
    R2        2.58395   0.00462   0.00000   0.00522   0.00522   2.58917
    R3        2.83024   0.00730   0.00000   0.00422   0.00422   2.83445
    R4        2.32382  -0.02188   0.00000  -0.00479  -0.00479   2.31902
    R5        2.84470   0.01058   0.00000   0.00756   0.00756   2.85226
    R6        3.54323   0.05738   0.00000   0.00904   0.00904   3.55227
    R7        3.42472  -0.00583   0.00000   0.00357   0.00357   3.42829
    R8        2.90432  -0.01530   0.00000  -0.00957  -0.00957   2.89476
    R9        2.06692   0.00550   0.00000   0.00260   0.00260   2.06952
   R10        2.06502   0.00426   0.00000   0.00272   0.00272   2.06774
   R11        2.06631   0.00338   0.00000   0.00120   0.00120   2.06752
   R12        2.77500   0.00340   0.00000  -0.00567  -0.00567   2.76933
   R13        1.94026  -0.00356   0.00000  -0.00185  -0.00185   1.93841
   R14        1.94604  -0.00396   0.00000  -0.00224  -0.00224   1.94381
   R15        2.06908   0.00226   0.00000   0.00113   0.00113   2.07021
   R16        2.07031   0.00085   0.00000   0.00011   0.00011   2.07042
   R17        2.07170   0.00343   0.00000   0.00146   0.00146   2.07316
   R18        2.06673   0.00482   0.00000   0.00260   0.00260   2.06932
   R19        2.06883   0.00589   0.00000   0.00341   0.00341   2.07224
   R20        2.06913   0.00691   0.00000   0.00346   0.00346   2.07259
   R21        2.06544   0.00513   0.00000   0.00289   0.00289   2.06833
   R22        2.06607   0.00428   0.00000   0.00242   0.00242   2.06850
   R23        2.06572   0.00412   0.00000   0.00226   0.00226   2.06798
    A1        2.05881   0.00338   0.00000   0.00657   0.00657   2.06538
    A2        2.00748   0.00286   0.00000   0.00425   0.00425   2.01172
    A3        2.21645  -0.00626   0.00000  -0.01069  -0.01069   2.20576
    A4        2.10545   0.01312   0.00000   0.01061   0.01061   2.11606
    A5        2.05519   0.00032   0.00000   0.00046   0.00046   2.05565
    A6        2.12216  -0.01342   0.00000  -0.01102  -0.01103   2.11114
    A7        1.82512   0.02299   0.00000   0.01922   0.01922   1.84434
    A8        2.03143  -0.00150   0.00000   0.00210   0.00223   2.03367
    A9        2.12829  -0.00276   0.00000  -0.00311  -0.00329   2.12500
   A10        1.73583  -0.01285   0.00000  -0.02804  -0.02801   1.70782
   A11        1.72808  -0.01212   0.00000   0.00770   0.00765   1.73573
   A12        1.93225   0.00418   0.00000  -0.00027  -0.00025   1.93200
   A13        1.89846  -0.00187   0.00000  -0.00105  -0.00105   1.89741
   A14        1.89780  -0.00175   0.00000  -0.00016  -0.00016   1.89764
   A15        1.92465   0.00697   0.00000   0.00292   0.00292   1.92757
   A16        1.89637   0.00011   0.00000   0.00027   0.00027   1.89664
   A17        1.92329  -0.00181   0.00000  -0.00136  -0.00136   1.92193
   A18        1.92270  -0.00176   0.00000  -0.00064  -0.00064   1.92205
   A19        2.37870  -0.01980   0.00000  -0.07215  -0.07229   2.30642
   A20        1.81701  -0.00103   0.00000   0.01040   0.00959   1.82660
   A21        1.70149   0.00842   0.00000   0.03900   0.03954   1.74103
   A22        1.85410   0.01330   0.00000   0.02115   0.02020   1.87431
   A23        1.84858   0.00376   0.00000   0.01491   0.01573   1.86431
   A24        1.78344  -0.00159   0.00000   0.00521   0.00471   1.78815
   A25        1.95770  -0.00345   0.00000  -0.00193  -0.00193   1.95577
   A26        1.91983  -0.00194   0.00000  -0.00298  -0.00299   1.91684
   A27        1.93788  -0.00088   0.00000   0.00004   0.00005   1.93792
   A28        1.89738   0.00114   0.00000  -0.00228  -0.00229   1.89509
   A29        1.87215   0.00307   0.00000   0.00422   0.00422   1.87637
   A30        1.87628   0.00245   0.00000   0.00326   0.00326   1.87954
   A31        1.96752  -0.00096   0.00000  -0.00014  -0.00014   1.96738
   A32        1.92033   0.00447   0.00000   0.00395   0.00394   1.92427
   A33        1.94078   0.00157   0.00000   0.00290   0.00289   1.94367
   A34        1.89020  -0.00266   0.00000  -0.00431  -0.00431   1.88589
   A35        1.85656   0.00060   0.00000   0.00116   0.00116   1.85771
   A36        1.88533  -0.00339   0.00000  -0.00404  -0.00404   1.88129
   A37        1.90681   0.00361   0.00000   0.00573   0.00572   1.91253
   A38        1.90375  -0.00070   0.00000  -0.00536  -0.00536   1.89839
   A39        1.94308   0.00185   0.00000   0.00407   0.00406   1.94714
   A40        1.92230  -0.00465   0.00000  -0.00752  -0.00752   1.91478
   A41        1.89989  -0.00157   0.00000  -0.00015  -0.00017   1.89972
   A42        1.88803   0.00132   0.00000   0.00303   0.00303   1.89107
    D1       -1.22698   0.00588   0.00000   0.03485   0.03488  -1.19210
    D2        1.94404   0.00491   0.00000   0.03317   0.03318   1.97723
    D3        1.94433   0.00648   0.00000   0.03068   0.03067   1.97500
    D4       -1.16784   0.00551   0.00000   0.02900   0.02898  -1.13887
    D5       -1.59935  -0.00043   0.00000  -0.03722  -0.03720  -1.63655
    D6        2.78890   0.00161   0.00000  -0.01624  -0.01625   2.77264
    D7        0.33200   0.00015   0.00000  -0.01424  -0.01423   0.31777
    D8        1.50853  -0.00091   0.00000  -0.03215  -0.03214   1.47639
    D9       -0.38640   0.00113   0.00000  -0.01117  -0.01119  -0.39759
   D10       -2.84330  -0.00033   0.00000  -0.00917  -0.00917  -2.85246
   D11        2.83489   0.00054   0.00000   0.00340   0.00339   2.83828
   D12       -1.33643  -0.00035   0.00000   0.00059   0.00059  -1.33585
   D13        0.75168  -0.00066   0.00000  -0.00002  -0.00002   0.75166
   D14       -0.27385   0.00099   0.00000  -0.00159  -0.00158  -0.27543
   D15        1.83802   0.00011   0.00000  -0.00440  -0.00439   1.83362
   D16       -2.35706  -0.00021   0.00000  -0.00501  -0.00500  -2.36206
   D17        1.94997   0.00278   0.00000   0.00559   0.00559   1.95557
   D18       -2.23109  -0.00113   0.00000  -0.00338  -0.00338  -2.23447
   D19       -0.14891   0.00120   0.00000  -0.00057  -0.00058  -0.14949
   D20       -1.16190   0.00132   0.00000   0.00350   0.00352  -1.15838
   D21        0.94023  -0.00259   0.00000  -0.00546  -0.00546   0.93477
   D22        3.02241  -0.00026   0.00000  -0.00265  -0.00266   3.01975
   D23        1.43741  -0.00069   0.00000  -0.02039  -0.01992   1.41749
   D24       -0.88115   0.00103   0.00000   0.01575   0.01580  -0.86535
   D25       -2.70722   0.00044   0.00000  -0.00329  -0.00349  -2.71071
   D26       -2.74106   0.00052   0.00000  -0.02265  -0.02233  -2.76339
   D27        1.22357   0.00224   0.00000   0.01348   0.01339   1.23696
   D28       -0.60250   0.00164   0.00000  -0.00556  -0.00590  -0.60840
   D29       -0.77029  -0.00125   0.00000  -0.02783  -0.02753  -0.79782
   D30       -3.08884   0.00047   0.00000   0.00830   0.00818  -3.08066
   D31        1.36827  -0.00013   0.00000  -0.01074  -0.01111   1.35717
   D32       -0.87411  -0.00516   0.00000  -0.00330  -0.00329  -0.87739
   D33        1.23994  -0.00737   0.00000  -0.00957  -0.00955   1.23040
   D34       -2.96856  -0.00612   0.00000  -0.00740  -0.00739  -2.97595
   D35        1.10719   0.01349   0.00000   0.02529   0.02527   1.13246
   D36       -3.06195   0.01128   0.00000   0.01902   0.01901  -3.04294
   D37       -0.98726   0.01253   0.00000   0.02118   0.02117  -0.96609
   D38        2.91807  -0.00476   0.00000  -0.00231  -0.00232   2.91575
   D39       -1.25107  -0.00697   0.00000  -0.00858  -0.00858  -1.25964
   D40        0.82362  -0.00572   0.00000  -0.00641  -0.00642   0.81720
   D41        3.04041   0.00282   0.00000   0.02491   0.02492   3.06533
   D42       -0.93519  -0.00349   0.00000  -0.01593  -0.01597  -0.95116
   D43        0.95247   0.00150   0.00000   0.00421   0.00424   0.95671
   D44       -1.14670   0.00379   0.00000   0.02460   0.02461  -1.12210
   D45        1.16088  -0.00252   0.00000  -0.01624  -0.01628   1.14460
   D46        3.04855   0.00247   0.00000   0.00389   0.00393   3.05247
   D47        0.94553   0.00167   0.00000   0.02366   0.02367   0.96920
   D48       -3.03006  -0.00464   0.00000  -0.01718  -0.01722  -3.04728
   D49       -1.14240   0.00035   0.00000   0.00296   0.00299  -1.13941
         Item               Value     Threshold  Converged?
 Maximum Force            0.057380     0.000450     NO 
 RMS     Force            0.008149     0.000300     NO 
 Maximum Displacement     0.111491     0.001800     NO 
 RMS     Displacement     0.034628     0.001200     NO 
 Predicted change in Energy=-6.267861D-03
 GradGradGradGradGradGradGradGradGradGradGradGradGradGradGradGradGradGrad

                          Input orientation:                          
 ---------------------------------------------------------------------
 Center     Atomic      Atomic             Coordinates (Angstroms)
 Number     Number       Type             X           Y           Z
 ---------------------------------------------------------------------
      1          6           0       -0.479491   -0.684444   -0.312326
      2          6           0       -1.812174   -0.370875    0.272266
      3          8           0       -2.167339   -0.854470    1.342758
      4          6           0        0.637525   -0.209418    0.323194
      5          6           0        0.500282    2.776246   -0.344098
      6          1           0        1.051280    3.489489   -0.966211
      7          1           0       -0.554389    2.798517   -0.634690
      8          1           0        0.581958    3.086226    0.701969
      9          7           0        1.041319    1.424855   -0.513268
     10          1           0        1.028524    1.212909   -1.516812
     11          1           0        2.048350    1.479993   -0.311024
     12         17           0        2.197780   -1.063102   -0.034653
     13          6           0        0.598033    0.257499    1.781604
     14          1           0       -0.218412    0.964480    1.965261
     15          1           0        0.468644   -0.605109    2.444588
     16          1           0        1.534832    0.755284    2.061207
     17          6           0       -0.509301   -1.478566   -1.584436
     18          1           0        0.435777   -1.430305   -2.135441
     19          1           0       -0.723793   -2.532212   -1.369234
     20          1           0       -1.285467   -1.111166   -2.266695
     21          6           0       -2.729640    0.534221   -0.513348
     22          1           0       -3.593151   -0.037227   -0.867963
     23          1           0       -3.066825    1.345972    0.138971
     24          1           0       -2.218939    0.974442   -1.375289
 ---------------------------------------------------------------------
                    Distance matrix (angstroms):
                    1          2          3          4          5
     1  C    0.000000
     2  C    1.488663   0.000000
     3  O    2.370030   1.227175   0.000000
     4  C    1.370130   2.455541   3.053336   0.000000
     5  C    3.596851   3.953698   4.810799   3.062402   0.000000
     6  H    4.493610   4.963426   5.878845   3.938994   1.095143
     7  H    3.498648   3.528404   4.456032   3.374296   1.094198
     8  H    4.046408   4.227063   4.847508   3.317805   1.094082
     9  N    2.608138   3.461810   4.351510   1.879779   1.465468
    10  H    2.706445   3.711972   4.760750   2.358287   2.024431
    11  H    3.327878   4.320831   5.094777   2.290583   2.019377
    12  Cl   2.718136   4.080821   4.582035   1.814174   4.209258
    13  C    2.536308   2.912396   3.012697   1.531840   3.297309
    14  H    2.823919   2.681321   2.737592   2.192499   3.021946
    15  H    2.916475   3.158477   2.867860   2.164580   4.383074
    16  H    3.429864   3.958659   4.100432   2.180940   3.307578
    17  C    1.499928   2.524242   3.421556   2.562225   4.545451
    18  H    2.172043   3.460163   4.382427   2.752481   4.572542
    19  H    2.142659   2.924119   3.500506   3.180073   5.543373
    20  H    2.156675   2.696623   3.724478   3.349413   4.690122
    21  C    2.566851   1.509348   2.385324   3.548323   3.935444
    22  H    3.228390   2.140870   2.754653   4.398536   4.994623
    23  H    3.319722   2.130606   2.664606   4.021863   3.873408
    24  H    2.628207   2.165588   3.276486   3.527853   3.421112
                    6          7          8          9         10
     6  H    0.000000
     7  H    1.779191   0.000000
     8  H    1.779244   1.777841   0.000000
     9  N    2.113757   2.109022   2.109021   0.000000
    10  H    2.342327   2.407884   2.937981   1.025761   0.000000
    11  H    2.336983   2.935560   2.399259   1.028618   1.601657
    12  Cl   4.786267   4.779810   4.513360   2.785033   2.957057
    13  C    4.266342   3.690978   3.027799   2.612596   3.460879
    14  H    4.072016   3.199424   2.595824   2.818151   3.706940
    15  H    5.360853   4.702469   4.083567   3.632854   4.394468
    16  H    4.107914   3.975865   2.861606   2.705513   3.642525
    17  C    5.243967   4.381494   5.220711   3.461456   3.100568
    18  H    5.094144   4.595173   5.335852   3.339171   2.778602
    19  H    6.290802   5.383764   6.128761   4.416636   4.137430
    20  H    5.321434   4.299248   5.469766   3.862621   3.364254
    21  C    4.820171   3.142209   4.353896   3.874708   3.948589
    22  H    5.832505   4.162924   5.445382   4.872556   4.831535
    23  H    4.772303   3.003460   4.081553   4.160347   4.419413
    24  H    4.145737   2.578073   4.076721   3.402239   3.259281
                   11         12         13         14         15
    11  H    0.000000
    12  Cl   2.562430   0.000000
    13  C    2.824359   2.757167   0.000000
    14  H    3.253527   3.734800   1.095506   0.000000
    15  H    3.799542   3.057173   1.095620   1.779160   0.000000
    16  H    2.533058   2.852833   1.097068   1.768284   1.770425
    17  C    4.112935   3.146859   3.945927   4.318963   4.237020
    18  H    3.794565   2.766370   4.268284   4.793612   4.653890
    19  H    4.990228   3.531993   4.411065   4.858099   4.436313
    20  H    4.653288   4.137310   4.670068   4.832842   5.052641
    21  C    4.874896   5.201928   4.051763   3.554560   4.502941
    22  H    5.868447   5.939840   4.967202   4.518788   5.271970
    23  H    5.136679   5.792223   4.161034   3.405045   4.649960
    24  H    4.426962   5.045423   4.291306   3.893775   4.930471
                   16         17         18         19         20
    16  H    0.000000
    17  C    4.739121   0.000000
    18  H    4.857630   1.095038   0.000000
    19  H    5.260887   1.096580   1.773661   0.000000
    20  H    5.492581   1.096765   1.755494   1.772085   0.000000
    21  C    4.986273   3.182522   4.063301   3.762842   2.804846
    22  H    5.958550   3.478638   4.447407   3.835288   2.904341
    23  H    5.021867   4.181994   5.014866   4.775436   3.872723
    24  H    5.093949   2.997308   3.661715   3.812102   2.452700
                   21         22         23         24
    21  C    0.000000
    22  H    1.094512   0.000000
    23  H    1.094601   1.790021   0.000000
    24  H    1.094328   1.780257   1.774803   0.000000
 Stoichiometry    C7H14ClNO
 Framework group  C1[X(C7H14ClNO)]
 Deg. of freedom    66
 Full point group                 C1      NOp   1
 Largest Abelian subgroup         C1      NOp   1
 Largest concise Abelian subgroup C1      NOp   1
                         Standard orientation:                         
 ---------------------------------------------------------------------
 Center     Atomic      Atomic             Coordinates (Angstroms)
 Number     Number       Type             X           Y           Z
 ---------------------------------------------------------------------
      1          6           0       -0.487246   -0.686368   -0.308653
      2          6           0       -1.817551   -0.351227    0.269348
      3          8           0       -2.181109   -0.819963    1.343625
      4          6           0        0.633761   -0.218384    0.325061
      5          6           0        0.533726    2.761957   -0.371981
      6          1           0        1.094720    3.462419   -0.999656
      7          1           0       -0.519879    2.793879   -0.665523
      8          1           0        0.616484    3.081272    0.671190
      9          7           0        1.059058    1.402629   -0.526414
     10          1           0        1.046237    1.180939   -1.527850
     11          1           0        2.066168    1.447799   -0.322101
     12         17           0        2.184629   -1.094036   -0.020290
     13          6           0        0.596203    0.263366    1.778690
     14          1           0       -0.212223    0.981776    1.953244
     15          1           0        0.454907   -0.591048    2.449805
     16          1           0        1.538162    0.752728    2.055812
     17          6           0       -0.523343   -1.492618   -1.572947
     18          1           0        0.423610   -1.461035   -2.121938
     19          1           0       -0.750895   -2.541462   -1.347930
     20          1           0       -1.293381   -1.122787   -2.260813
     21          6           0       -2.722223    0.556891   -0.527535
     22          1           0       -3.591590   -0.007738   -0.878749
     23          1           0       -3.051343    1.378999    0.115870
     24          1           0       -2.204176    0.982472   -1.392440
 ---------------------------------------------------------------------
 Rotational constants (GHZ):           1.2684679           0.8612935           0.7184541
 Standard basis: STO-3G (5D, 7F)
 There are    68 symmetry adapted cartesian basis functions of A   symmetry.
 There are    68 symmetry adapted basis functions of A   symmetry.
    68 basis functions,   204 primitive gaussians,    68 cartesian basis functions
    44 alpha electrons       44 beta electrons
       nuclear repulsion energy       664.9951133990 Hartrees.
 NAtoms=   24 NActive=   24 NUniq=   24 SFac= 1.00D+00 NAtFMM=   60 NAOKFM=F Big=F
 Integral buffers will be    131072 words long.
 Raffenetti 1 integral format.
 Two-electron integral symmetry is turned on.
 External calculation of energy, first and second derivatives.
 Running external command "~/scripts/MiMe -H 'hf def2svp' -EF 'wb97xd def2svp' -c 12 -m 48GB R"
         input file       "/local/jobs/1157682/Gau-2150099.EIn"
         output file      "/local/jobs/1157682/Gau-2150099.EOu"
         message file     "/local/jobs/1157682/Gau-2150099.EMs"
         fchk file        "/local/jobs/1157682/Gau-2150099.EFC"
         mat. el file     "/local/jobs/1157682/Gau-2150099.EUF"
 Read checkpoint file Gau-2150099_H.chk type G16
 Write formatted file Gau-2150099_H.fchk

deriv: 2

spelevel: wb97xd def2svp
gradlevel: wb97xd def2svp
hesslevel: hf def2svp

runspe: False
runforce: True
runfreq: True

Running Gaussian ...

Parsing files ...
SPE file: Gau-2150099_F.out
FORCE file: Gau-2150099_F.out
HESS file: Gau-2150099_H.out

 ExternalExternalExternalExternalExternalExternalExternalExternalExternalExternal
 Output from external command:
 "~/scripts/MiMe -H 'hf def2svp' -EF 'wb97xd def2svp' -c 12 -m 48GB R /local/jobs/1157682/Gau-2150099.EIn /local/jobs/1157682/Gau-2150099.EOu /local/jobs/1157682/Gau-2150099.EMs /local/jobs/1157682/Gau-2150099.EFC /local/jobs/1157682/Gau-2150099.EUF"
  
 --------------------------------------------------
 Force calculation at wb97xd def2svp
 Hessian calculation at hf def2svp
 ExternalExternalExternalExternalExternalExternalExternalExternalExternalExternal

 Recovered energy= -864.692963434     dipole=      2.251000000000      5.387800000000     -2.728400000000
 Energy=    -864.692963     NIter=   0.
 Dipole moment=       2.251000       5.387800      -2.728400
 ***** Axes restored to original set *****
 -------------------------------------------------------------------
 Center     Atomic                   Forces (Hartrees/Bohr)
 Number     Number              X              Y              Z
 -------------------------------------------------------------------
      1        6          -0.001412969   -0.006169960    0.009164140
      2        6           0.006854168   -0.021574910    0.020173846
      3        8          -0.000376664    0.017173289   -0.012389606
      4        6          -0.036292334   -0.039861482    0.026283454
      5        6          -0.003228195   -0.005993574    0.002653553
      6        1          -0.000352084    0.005605782   -0.001638844
      7        1          -0.003616437   -0.000771596    0.000101194
      8        1           0.000011898    0.000158921    0.002921726
      9        7           0.049931743    0.047333603   -0.022526014
     10        1          -0.004393063   -0.006674148    0.004459709
     11        1          -0.003090314    0.000646028   -0.001558339
     12       17          -0.000780086    0.009091558   -0.002740297
     13        6           0.006986804   -0.000401596   -0.009794432
     14        1          -0.003530857   -0.000849930   -0.001283190
     15        1          -0.001988419   -0.001334172   -0.000883892
     16        1           0.002836859    0.001145332   -0.000732085
     17        6           0.003280330    0.007403673   -0.000889108
     18        1           0.003944575   -0.001308161   -0.001039310
     19        1          -0.000865569   -0.005147135   -0.002120248
     20        1          -0.004881219   -0.000147715   -0.003502642
     21        6           0.000650750   -0.000318591   -0.003837937
     22        1          -0.005734567    0.000713772    0.000064963
     23        1          -0.004279758    0.000616107    0.002801829
     24        1           0.000325408    0.000664905   -0.003688470
 -------------------------------------------------------------------
 Cartesian Forces:  Max     0.049931743 RMS     0.012385509
 FormGI is forming the generalized inverse of G from B-inverse, IUseBI=4.

 GradGradGradGradGradGradGradGradGradGradGradGradGradGradGradGradGradGrad
 Berny optimization.
 Internal  Forces:  Max     0.049548986 RMS     0.006975240
 Search for a saddle point.
 Step number   2 out of a maximum of   50
 All quantities printed in internal units (Hartrees-Bohrs-Radians)
 Swapping is turned off.
 Second derivative matrix not updated -- analytic derivatives used.
 ITU=  0  0
     Eigenvalues ---   -0.06853   0.00346   0.00394   0.00500   0.00700
     Eigenvalues ---    0.00961   0.00987   0.01440   0.02087   0.03133
     Eigenvalues ---    0.04322   0.05085   0.05354   0.05522   0.05846
     Eigenvalues ---    0.05910   0.06758   0.06815   0.07080   0.07236
     Eigenvalues ---    0.07359   0.07811   0.09501   0.11254   0.11632
     Eigenvalues ---    0.12377   0.14576   0.14669   0.14783   0.15484
     Eigenvalues ---    0.15884   0.16448   0.17350   0.17421   0.17942
     Eigenvalues ---    0.18125   0.18686   0.20822   0.20942   0.21081
     Eigenvalues ---    0.21876   0.24430   0.25817   0.27398   0.30619
     Eigenvalues ---    0.32547   0.35120   0.35533   0.35847   0.35874
     Eigenvalues ---    0.36112   0.36508   0.36526   0.36643   0.36707
     Eigenvalues ---    0.36750   0.36886   0.36919   0.37978   0.38667
     Eigenvalues ---    0.39200   0.43053   0.43582   0.44619   0.59288
     Eigenvalues ---    0.83324
 Eigenvectors required to have negative eigenvalues:
                          R6        A19       D6        A21       D5
   1                   -0.79329  -0.25462  -0.16737   0.15771  -0.15383
                          R2        A11       D1        D2        D9
   1                    0.14413   0.12712   0.12445   0.12100  -0.11872
 RFO step:  Lambda0=9.952144581D-03 Lambda=-3.27588847D-02.
 Linear search not attempted -- option 19 set.
 Maximum step size (   0.100) exceeded in Quadratic search.
    -- Step size scaled by   0.242
 Iteration  1 RMS(Cart)=  0.03834328 RMS(Int)=  0.00071673
 Iteration  2 RMS(Cart)=  0.00132720 RMS(Int)=  0.00020520
 Iteration  3 RMS(Cart)=  0.00000159 RMS(Int)=  0.00020520
 Iteration  4 RMS(Cart)=  0.00000000 RMS(Int)=  0.00020520
 Variable       Old X    -DE/DX   Delta X   Delta X   Delta X     New X
                                 (Linear)    (Quad)   (Total)
    R1        2.81317   0.00295   0.00000  -0.00406  -0.00406   2.80910
    R2        2.58917   0.00265   0.00000   0.00673   0.00673   2.59590
    R3        2.83445   0.00595   0.00000   0.00413   0.00413   2.83858
    R4        2.31902  -0.01747   0.00000  -0.00347  -0.00347   2.31556
    R5        2.85226   0.00893   0.00000   0.00729   0.00729   2.85955
    R6        3.55227   0.04955   0.00000  -0.00270  -0.00270   3.54957
    R7        3.42829  -0.00441   0.00000   0.00780   0.00780   3.43609
    R8        2.89476  -0.01264   0.00000  -0.00841  -0.00841   2.88635
    R9        2.06952   0.00440   0.00000   0.00217   0.00217   2.07169
   R10        2.06774   0.00344   0.00000   0.00237   0.00237   2.07010
   R11        2.06752   0.00284   0.00000   0.00088   0.00088   2.06839
   R12        2.76933   0.00220   0.00000  -0.00509  -0.00509   2.76424
   R13        1.93841  -0.00293   0.00000  -0.00189  -0.00189   1.93652
   R14        1.94381  -0.00330   0.00000  -0.00199  -0.00199   1.94181
   R15        2.07021   0.00187   0.00000   0.00085   0.00085   2.07106
   R16        2.07042   0.00075   0.00000  -0.00002  -0.00002   2.07040
   R17        2.07316   0.00275   0.00000   0.00132   0.00132   2.07448
   R18        2.06932   0.00387   0.00000   0.00247   0.00247   2.07179
   R19        2.07224   0.00470   0.00000   0.00319   0.00319   2.07542
   R20        2.07259   0.00559   0.00000   0.00296   0.00296   2.07555
   R21        2.06833   0.00413   0.00000   0.00266   0.00266   2.07098
   R22        2.06850   0.00345   0.00000   0.00221   0.00221   2.07071
   R23        2.06798   0.00332   0.00000   0.00194   0.00194   2.06992
    A1        2.06538   0.00236   0.00000   0.00640   0.00639   2.07177
    A2        2.01172   0.00265   0.00000   0.00564   0.00563   2.01736
    A3        2.20576  -0.00502   0.00000  -0.01188  -0.01189   2.19387
    A4        2.11606   0.01102   0.00000   0.01069   0.01069   2.12675
    A5        2.05565   0.00003   0.00000   0.00034   0.00034   2.05599
    A6        2.11114  -0.01103   0.00000  -0.01096  -0.01096   2.10017
    A7        1.84434   0.01915   0.00000   0.01617   0.01614   1.86049
    A8        2.03367  -0.00096   0.00000   0.00144   0.00153   2.03519
    A9        2.12500  -0.00216   0.00000  -0.00219  -0.00238   2.12261
   A10        1.70782  -0.01069   0.00000  -0.02423  -0.02420   1.68362
   A11        1.73573  -0.01048   0.00000   0.01056   0.01050   1.74623
   A12        1.93200   0.00326   0.00000  -0.00276  -0.00270   1.92930
   A13        1.89741  -0.00154   0.00000  -0.00033  -0.00033   1.89708
   A14        1.89764  -0.00148   0.00000   0.00017   0.00017   1.89781
   A15        1.92757   0.00634   0.00000   0.00248   0.00248   1.93005
   A16        1.89664   0.00022   0.00000   0.00080   0.00080   1.89744
   A17        1.92193  -0.00189   0.00000  -0.00250  -0.00250   1.91943
   A18        1.92205  -0.00175   0.00000  -0.00061  -0.00062   1.92144
   A19        2.30642  -0.01834   0.00000  -0.07241  -0.07260   2.23381
   A20        1.82660  -0.00068   0.00000   0.00564   0.00467   1.83127
   A21        1.74103   0.00796   0.00000   0.04179   0.04240   1.78343
   A22        1.87431   0.01116   0.00000   0.01841   0.01720   1.89151
   A23        1.86431   0.00395   0.00000   0.01700   0.01787   1.88217
   A24        1.78815  -0.00127   0.00000   0.00740   0.00694   1.79509
   A25        1.95577  -0.00285   0.00000  -0.00180  -0.00181   1.95396
   A26        1.91684  -0.00168   0.00000  -0.00305  -0.00306   1.91378
   A27        1.93792  -0.00067   0.00000  -0.00024  -0.00024   1.93768
   A28        1.89509   0.00081   0.00000  -0.00290  -0.00292   1.89217
   A29        1.87637   0.00261   0.00000   0.00484   0.00484   1.88121
   A30        1.87954   0.00208   0.00000   0.00345   0.00345   1.88299
   A31        1.96738  -0.00086   0.00000   0.00011   0.00011   1.96749
   A32        1.92427   0.00371   0.00000   0.00367   0.00367   1.92794
   A33        1.94367   0.00132   0.00000   0.00325   0.00325   1.94692
   A34        1.88589  -0.00223   0.00000  -0.00486  -0.00485   1.88104
   A35        1.85771   0.00059   0.00000   0.00132   0.00131   1.85903
   A36        1.88129  -0.00285   0.00000  -0.00403  -0.00403   1.87726
   A37        1.91253   0.00281   0.00000   0.00594   0.00593   1.91846
   A38        1.89839  -0.00055   0.00000  -0.00607  -0.00607   1.89232
   A39        1.94714   0.00185   0.00000   0.00454   0.00452   1.95166
   A40        1.91478  -0.00400   0.00000  -0.00770  -0.00769   1.90709
   A41        1.89972  -0.00133   0.00000   0.00012   0.00009   1.89980
   A42        1.89107   0.00107   0.00000   0.00289   0.00290   1.89396
    D1       -1.19210   0.00630   0.00000   0.04759   0.04763  -1.14446
    D2        1.97723   0.00519   0.00000   0.04518   0.04520   2.02243
    D3        1.97500   0.00681   0.00000   0.04175   0.04173   2.01673
    D4       -1.13887   0.00570   0.00000   0.03934   0.03930  -1.09957
    D5       -1.63655  -0.00030   0.00000  -0.04208  -0.04206  -1.67862
    D6        2.77264   0.00132   0.00000  -0.02340  -0.02341   2.74924
    D7        0.31777  -0.00015   0.00000  -0.01695  -0.01694   0.30083
    D8        1.47639  -0.00073   0.00000  -0.03519  -0.03519   1.44121
    D9       -0.39759   0.00089   0.00000  -0.01651  -0.01653  -0.41412
   D10       -2.85246  -0.00059   0.00000  -0.01006  -0.01007  -2.86253
   D11        2.83828   0.00044   0.00000   0.00379   0.00378   2.84207
   D12       -1.33585  -0.00037   0.00000   0.00025   0.00024  -1.33560
   D13        0.75166  -0.00065   0.00000  -0.00027  -0.00028   0.75138
   D14       -0.27543   0.00086   0.00000  -0.00294  -0.00293  -0.27836
   D15        1.83362   0.00005   0.00000  -0.00648  -0.00647   1.82716
   D16       -2.36206  -0.00023   0.00000  -0.00700  -0.00698  -2.36904
   D17        1.95557   0.00260   0.00000   0.00571   0.00572   1.96128
   D18       -2.23447  -0.00092   0.00000  -0.00379  -0.00380  -2.23827
   D19       -0.14949   0.00119   0.00000  -0.00135  -0.00137  -0.15087
   D20       -1.15838   0.00113   0.00000   0.00294   0.00296  -1.15541
   D21        0.93477  -0.00239   0.00000  -0.00656  -0.00655   0.92822
   D22        3.01975  -0.00029   0.00000  -0.00412  -0.00413   3.01562
   D23        1.41749  -0.00086   0.00000  -0.02425  -0.02373   1.39376
   D24       -0.86535   0.00116   0.00000   0.01695   0.01691  -0.84844
   D25       -2.71071   0.00014   0.00000  -0.00572  -0.00592  -2.71663
   D26       -2.76339  -0.00003   0.00000  -0.02729  -0.02687  -2.79027
   D27        1.23696   0.00199   0.00000   0.01392   0.01376   1.25072
   D28       -0.60840   0.00097   0.00000  -0.00876  -0.00907  -0.61747
   D29       -0.79782  -0.00148   0.00000  -0.03360  -0.03325  -0.83107
   D30       -3.08066   0.00054   0.00000   0.00760   0.00738  -3.07327
   D31        1.35717  -0.00048   0.00000  -0.01507  -0.01545   1.34172
   D32       -0.87739  -0.00394   0.00000  -0.00227  -0.00226  -0.87965
   D33        1.23040  -0.00595   0.00000  -0.00923  -0.00921   1.22119
   D34       -2.97595  -0.00486   0.00000  -0.00705  -0.00704  -2.98298
   D35        1.13246   0.01134   0.00000   0.02524   0.02522   1.15769
   D36       -3.04294   0.00933   0.00000   0.01828   0.01827  -3.02466
   D37       -0.96609   0.01042   0.00000   0.02046   0.02045  -0.94565
   D38        2.91575  -0.00400   0.00000   0.00239   0.00238   2.91813
   D39       -1.25964  -0.00602   0.00000  -0.00457  -0.00457  -1.26422
   D40        0.81720  -0.00492   0.00000  -0.00239  -0.00240   0.81480
   D41        3.06533   0.00296   0.00000   0.02986   0.02984   3.09517
   D42       -0.95116  -0.00352   0.00000  -0.01786  -0.01789  -0.96905
   D43        0.95671   0.00157   0.00000   0.00588   0.00594   0.96265
   D44       -1.12210   0.00389   0.00000   0.02942   0.02940  -1.09270
   D45        1.14460  -0.00259   0.00000  -0.01829  -0.01833   1.12628
   D46        3.05247   0.00249   0.00000   0.00545   0.00550   3.05798
   D47        0.96920   0.00187   0.00000   0.02845   0.02843   0.99763
   D48       -3.04728  -0.00461   0.00000  -0.01926  -0.01930  -3.06658
   D49       -1.13941   0.00047   0.00000   0.00447   0.00453  -1.13488
         Item               Value     Threshold  Converged?
 Maximum Force            0.049549     0.000450     NO 
 RMS     Force            0.006975     0.000300     NO 
 Maximum Displacement     0.129311     0.001800     NO 
 RMS     Displacement     0.038477     0.001200     NO 
 Predicted change in Energy=-5.190281D-03
 GradGradGradGradGradGradGradGradGradGradGradGradGradGradGradGradGradGrad

                          Input orientation:                          
 ---------------------------------------------------------------------
 Center     Atomic      Atomic             Coordinates (Angstroms)
 Number     Number       Type             X           Y           Z
 ---------------------------------------------------------------------
      1          6           0       -0.489313   -0.659734   -0.309519
      2          6           0       -1.819568   -0.356887    0.280754
      3          8           0       -2.162667   -0.807572    1.367321
      4          6           0        0.635836   -0.191690    0.324520
      5          6           0        0.515914    2.742097   -0.330227
      6          1           0        1.036778    3.488342   -0.941515
      7          1           0       -0.541491    2.730088   -0.616175
      8          1           0        0.591934    3.034333    0.721844
      9          7           0        1.101886    1.416353   -0.527065
     10          1           0        1.082304    1.199952   -1.528525
     11          1           0        2.107610    1.483886   -0.327455
     12         17           0        2.191017   -1.066617   -0.024962
     13          6           0        0.599520    0.277037    1.777758
     14          1           0       -0.210786    0.992783    1.957287
     15          1           0        0.453440   -0.584138    2.439121
     16          1           0        1.543499    0.761770    2.058876
     17          6           0       -0.511209   -1.446838   -1.588709
     18          1           0        0.436548   -1.390607   -2.136947
     19          1           0       -0.718023   -2.505921   -1.384363
     20          1           0       -1.289694   -1.083215   -2.272868
     21          6           0       -2.767038    0.508510   -0.521235
     22          1           0       -3.629014   -0.084532   -0.847323
     23          1           0       -3.113158    1.327993    0.118580
     24          1           0       -2.278943    0.937849   -1.402843
 ---------------------------------------------------------------------
                    Distance matrix (angstroms):
                    1          2          3          4          5
     1  C    0.000000
     2  C    1.486512   0.000000
     3  O    2.373554   1.225341   0.000000
     4  C    1.373692   2.461344   3.049321   0.000000
     5  C    3.547304   3.928292   4.759897   3.008352   0.000000
     6  H    4.464853   4.943525   5.832842   3.912318   1.096291
     7  H    3.404065   3.459389   4.367780   3.287520   1.095452
     8  H    3.984838   4.184528   4.771237   3.250695   1.094547
     9  N    2.624763   3.511672   4.380850   1.878351   1.462773
    10  H    2.722938   3.757406   4.790189   2.360038   2.033451
    11  H    3.367409   4.379623   5.134035   2.323521   2.028940
    12  Cl   2.725931   4.084358   4.578222   1.818303   4.171985
    13  C    2.533737   2.914596   2.995749   1.527391   3.244551
    14  H    2.819007   2.687109   2.720143   2.187618   2.970003
    15  H    2.906806   3.142731   2.835965   2.158430   4.328629
    16  H    3.429620   3.965266   4.083717   2.177368   3.268859
    17  C    1.502112   2.528773   3.445880   2.559600   4.492876
    18  H    2.175061   3.464667   4.401788   2.745166   4.511073
    19  H    2.148489   2.933320   3.541630   3.179447   5.493223
    20  H    2.162102   2.707269   3.753536   3.353939   4.654792
    21  C    2.568588   1.513207   2.379911   3.575630   3.975320
    22  H    3.236945   2.149611   2.752745   4.424211   5.043575
    23  H    3.319471   2.130374   2.650175   4.050531   3.920623
    24  H    2.636362   2.172985   3.276251   3.571495   3.495289
                    6          7          8          9         10
     6  H    0.000000
     7  H    1.780934   0.000000
     8  H    1.780666   1.779750   0.000000
     9  N    2.114035   2.105831   2.106580   0.000000
    10  H    2.362918   2.410478   2.944414   1.024761   0.000000
    11  H    2.354059   2.941788   2.408773   1.027564   1.604507
    12  Cl   4.787483   4.714987   4.464591   2.757437   2.937224
    13  C    4.230616   3.612517   2.952574   2.619660   3.466462
    14  H    4.023342   3.122548   2.517659   2.841571   3.723693
    15  H    5.324854   4.616147   4.007687   3.636029   4.395528
    16  H    4.085744   3.921397   2.803154   2.703811   3.643371
    17  C    5.212593   4.288759   5.161053   3.453553   3.090050
    18  H    5.058999   4.499937   5.270381   3.303547   2.738280
    19  H    6.261520   5.295004   6.070133   4.408091   4.122555
    20  H    5.299444   4.224420   5.427985   3.874961   3.375393
    21  C    4.850263   3.146027   4.382661   3.974013   4.038583
    22  H    5.877407   4.184294   5.477774   4.973594   4.930563
    23  H    4.797174   3.019803   4.123498   4.265121   4.509019
    24  H    4.208544   2.617194   4.141433   3.525047   3.373792
                   11         12         13         14         15
    11  H    0.000000
    12  Cl   2.569733   0.000000
    13  C    2.857051   2.754644   0.000000
    14  H    3.291837   3.733510   1.095956   0.000000
    15  H    3.829745   3.053467   1.095611   1.777650   0.000000
    16  H    2.556218   2.846869   1.097766   1.772344   1.773212
    17  C    4.127726   3.145139   3.941898   4.314637   4.230628
    18  H    3.785422   2.764709   4.258228   4.781458   4.646620
    19  H    5.001982   3.518819   4.413591   4.864653   4.436734
    20  H    4.681487   4.143514   4.671936   4.834048   5.048805
    21  C    4.975048   5.225861   4.083217   3.593329   4.508777
    22  H    5.969846   5.959323   4.990219   4.550904   5.264670
    23  H    5.242106   5.821429   4.200162   3.452097   4.664952
    24  H    4.549337   5.088909   4.340328   3.945981   4.954094
                   16         17         18         19         20
    16  H    0.000000
    17  C    4.733356   0.000000
    18  H    4.843862   1.096344   0.000000
    19  H    5.258154   1.098265   1.772948   0.000000
    20  H    5.494994   1.098332   1.758658   1.772101   0.000000
    21  C    5.030093   3.170434   4.059573   3.745697   2.790044
    22  H    5.993088   3.482275   4.460690   3.824317   2.915812
    23  H    5.076398   4.169492   5.007854   4.763865   3.854603
    24  H    5.159997   2.974251   3.651645   3.781054   2.412522
                   21         22         23         24
    21  C    0.000000
    22  H    1.095917   0.000000
    23  H    1.095771   1.787261   0.000000
    24  H    1.095354   1.782290   1.778441   0.000000
 Stoichiometry    C7H14ClNO
 Framework group  C1[X(C7H14ClNO)]
 Deg. of freedom    66
 Full point group                 C1      NOp   1
 Largest Abelian subgroup         C1      NOp   1
 Largest concise Abelian subgroup C1      NOp   1
                         Standard orientation:                         
 ---------------------------------------------------------------------
 Center     Atomic      Atomic             Coordinates (Angstroms)
 Number     Number       Type             X           Y           Z
 ---------------------------------------------------------------------
      1          6           0       -0.499789   -0.668064   -0.303327
      2          6           0       -1.827001   -0.333819    0.276765
      3          8           0       -2.180003   -0.758146    1.370747
      4          6           0        0.630486   -0.204838    0.325108
      5          6           0        0.556859    2.717188   -0.386597
      6          1           0        1.090711    3.443513   -1.010540
      7          1           0       -0.499781    2.715583   -0.675607
      8          1           0        0.634266    3.028572    0.659865
      9          7           0        1.123264    1.379197   -0.555917
     10          1           0        1.103289    1.143755   -1.553064
     11          1           0        2.129317    1.435416   -0.354465
     12         17           0        2.173248   -1.109716   -0.002470
     13          6           0        0.597089    0.292449    1.768892
     14          1           0       -0.202806    1.023672    1.931987
     15          1           0        0.436092   -0.553452    2.446311
     16          1           0        1.547483    0.768252    2.043579
     17          6           0       -0.529916   -1.479383   -1.567129
     18          1           0        0.420157   -1.448076   -2.113346
     19          1           0       -0.753320   -2.531070   -1.343007
     20          1           0       -1.300838   -1.117388   -2.260650
     21          6           0       -2.758956    0.530062   -0.544798
     22          1           0       -3.628866   -0.056125   -0.862092
     23          1           0       -3.094474    1.366911    0.077959
     24          1           0       -2.261887    0.934835   -1.432988
 ---------------------------------------------------------------------
 Rotational constants (GHZ):           1.2852001           0.8525479           0.7202931
 Standard basis: STO-3G (5D, 7F)
 There are    68 symmetry adapted cartesian basis functions of A   symmetry.
 There are    68 symmetry adapted basis functions of A   symmetry.
    68 basis functions,   204 primitive gaussians,    68 cartesian basis functions
    44 alpha electrons       44 beta electrons
       nuclear repulsion energy       665.2214591386 Hartrees.
 NAtoms=   24 NActive=   24 NUniq=   24 SFac= 1.00D+00 NAtFMM=   60 NAOKFM=F Big=F
 Integral buffers will be    131072 words long.
 Raffenetti 1 integral format.
 Two-electron integral symmetry is turned on.
 External calculation of energy, first and second derivatives.
 Running external command "~/scripts/MiMe -H 'hf def2svp' -EF 'wb97xd def2svp' -c 12 -m 48GB R"
         input file       "/local/jobs/1157682/Gau-2150099.EIn"
         output file      "/local/jobs/1157682/Gau-2150099.EOu"
         message file     "/local/jobs/1157682/Gau-2150099.EMs"
         fchk file        "/local/jobs/1157682/Gau-2150099.EFC"
         mat. el file     "/local/jobs/1157682/Gau-2150099.EUF"
 Read checkpoint file Gau-2150099_H.chk type G16
 Write formatted file Gau-2150099_H.fchk

deriv: 2

spelevel: wb97xd def2svp
gradlevel: wb97xd def2svp
hesslevel: hf def2svp

runspe: False
runforce: True
runfreq: True

Running Gaussian ...

Parsing files ...
SPE file: Gau-2150099_F.out
FORCE file: Gau-2150099_F.out
HESS file: Gau-2150099_H.out

 ExternalExternalExternalExternalExternalExternalExternalExternalExternalExternal
 Output from external command:
 "~/scripts/MiMe -H 'hf def2svp' -EF 'wb97xd def2svp' -c 12 -m 48GB R /local/jobs/1157682/Gau-2150099.EIn /local/jobs/1157682/Gau-2150099.EOu /local/jobs/1157682/Gau-2150099.EMs /local/jobs/1157682/Gau-2150099.EFC /local/jobs/1157682/Gau-2150099.EUF"
  
 --------------------------------------------------
 Force calculation at wb97xd def2svp
 Hessian calculation at hf def2svp
 ExternalExternalExternalExternalExternalExternalExternalExternalExternalExternal

 Recovered energy= -864.698252476     dipole=      2.412200000000      5.377600000000     -2.827600000000
 Energy=    -864.698252     NIter=   0.
 Dipole moment=       2.412200       5.377600      -2.827600
 ***** Axes restored to original set *****
 -------------------------------------------------------------------
 Center     Atomic                   Forces (Hartrees/Bohr)
 Number     Number              X              Y              Z
 -------------------------------------------------------------------
      1        6          -0.000343373   -0.003695553    0.007622819
      2        6           0.005453855   -0.018003801    0.016211971
      3        8           0.000070848    0.014882656   -0.009161003
      4        6          -0.033879664   -0.035184727    0.022111500
      5        6          -0.002927086   -0.005372979    0.001226150
      6        1          -0.000818983    0.004596030   -0.001204236
      7        1          -0.002918463   -0.001131701    0.000374753
      8        1           0.000123921    0.000035004    0.002433518
      9        7           0.044924243    0.040368117   -0.018959994
     10        1          -0.004422360   -0.005804342    0.003719988
     11        1          -0.002680431    0.000638633   -0.000640700
     12       17          -0.000262732    0.007094979   -0.002369117
     13        6           0.006610712    0.000339299   -0.008109319
     14        1          -0.003080376   -0.000949838   -0.000914254
     15        1          -0.001723613   -0.001112688   -0.000716235
     16        1           0.002222698    0.000874912   -0.000619413
     17        6           0.002544349    0.007081979   -0.001446482
     18        1           0.003135793   -0.001039365   -0.000717084
     19        1          -0.000539671   -0.003990465   -0.001810791
     20        1          -0.003938979   -0.000262284   -0.002717073
     21        6           0.000627482   -0.000748774   -0.003845138
     22        1          -0.004600328    0.000553910    0.000341438
     23        1          -0.003568547    0.000354529    0.002233576
     24        1          -0.000009294    0.000476470   -0.003044874
 -------------------------------------------------------------------
 Cartesian Forces:  Max     0.044924243 RMS     0.010797410
 FormGI is forming the generalized inverse of G from B-inverse, IUseBI=4.

 GradGradGradGradGradGradGradGradGradGradGradGradGradGradGradGradGradGrad
 Berny optimization.
 Internal  Forces:  Max     0.042206111 RMS     0.005882420
 Search for a saddle point.
 Step number   3 out of a maximum of   50
 All quantities printed in internal units (Hartrees-Bohrs-Radians)
 Swapping is turned off.
 Second derivative matrix not updated -- analytic derivatives used.
 ITU=  0  0  0
     Eigenvalues ---   -0.06659   0.00357   0.00406   0.00501   0.00706
     Eigenvalues ---    0.00974   0.01052   0.01474   0.02219   0.03230
     Eigenvalues ---    0.04306   0.05132   0.05367   0.05513   0.05829
     Eigenvalues ---    0.05898   0.06708   0.06802   0.06964   0.07178
     Eigenvalues ---    0.07294   0.08121   0.09372   0.11329   0.11703
     Eigenvalues ---    0.12513   0.14542   0.14710   0.14762   0.15544
     Eigenvalues ---    0.15886   0.16778   0.17291   0.17724   0.18017
     Eigenvalues ---    0.18122   0.18678   0.20703   0.20886   0.21009
     Eigenvalues ---    0.22007   0.24443   0.25767   0.27158   0.31005
     Eigenvalues ---    0.32929   0.34796   0.35282   0.35697   0.35710
     Eigenvalues ---    0.35938   0.36239   0.36396   0.36475   0.36515
     Eigenvalues ---    0.36657   0.36700   0.36847   0.38035   0.38544
     Eigenvalues ---    0.39329   0.43618   0.43939   0.44966   0.58608
     Eigenvalues ---    0.84234
 Eigenvectors required to have negative eigenvalues:
                          R6        A19       D6        R2        D5
   1                   -0.82235  -0.19015  -0.17406   0.14629  -0.14480
                          A11       D1        D9        D2        A21
   1                    0.13234   0.12976  -0.12620   0.12279   0.11883
[...]
     4   6    -0.00   0.00   0.00    -0.00  -0.00   0.00     0.00  -0.00  -0.00
     5   6    -0.00   0.01  -0.00    -0.03   0.03  -0.02    -0.00   0.00  -0.00
     6   1    -0.03  -0.03   0.09    -0.19  -0.19   0.51    -0.01  -0.01   0.02
     7   1     0.11   0.02   0.01     0.64   0.14   0.04     0.03   0.01   0.00
     8   1    -0.01  -0.06  -0.07    -0.06  -0.32  -0.32    -0.00  -0.01  -0.01
     9   7     0.00   0.00   0.00     0.00   0.00  -0.00    -0.00  -0.00   0.00
    10   1     0.00   0.00   0.00    -0.00   0.00   0.00    -0.00   0.00   0.00
    11   1     0.00  -0.00  -0.00    -0.00   0.00   0.00    -0.00  -0.00   0.00
    12  17     0.00   0.00   0.00    -0.00   0.00  -0.00     0.00   0.00   0.00
    13   6    -0.03  -0.03  -0.04     0.01   0.00   0.01     0.00   0.00   0.00
    14   1    -0.24   0.33  -0.04     0.03  -0.04   0.01     0.02  -0.02   0.00
    15   1    -0.15  -0.21   0.30     0.03   0.03  -0.05     0.01   0.02  -0.02
    16   1     0.77   0.19   0.14    -0.14  -0.03  -0.03    -0.05  -0.01  -0.01
    17   6     0.00  -0.00   0.00    -0.00   0.00  -0.00    -0.00  -0.08   0.02
    18   1    -0.04   0.01   0.01     0.02  -0.01  -0.00    -0.46   0.19   0.07
    19   1     0.03   0.03  -0.01    -0.03  -0.03   0.01     0.53   0.61  -0.11
    20   1    -0.01   0.01  -0.02     0.01  -0.01   0.02    -0.07   0.11  -0.21
    21   6    -0.00   0.00  -0.00     0.00   0.00  -0.00    -0.00   0.00  -0.00
    22   1    -0.00  -0.00   0.00    -0.00  -0.00   0.00     0.00   0.03  -0.01
    23   1     0.00   0.00  -0.00    -0.00   0.00   0.00     0.04  -0.02  -0.02
    24   1    -0.00  -0.00   0.00    -0.00  -0.00   0.00     0.00  -0.02   0.09
                     58                     59                     60
                      A                      A                      A
 Frequencies --   3166.0470              3169.1167              3215.8017
 Red. masses --      1.1007                 1.1022                 1.1084
 Frc consts  --      6.5006                 6.5219                 6.7532
 IR Inten    --      0.0000                 0.0000                 0.0000
  Atom  AN      X      Y      Z        X      Y      Z        X      Y      Z
     1   6     0.00  -0.00  -0.00     0.00   0.00  -0.00     0.00  -0.00  -0.00
     2   6    -0.00   0.00  -0.00    -0.00  -0.00   0.00    -0.00   0.00   0.00
     3   8     0.00  -0.00   0.00     0.00  -0.00   0.00    -0.00  -0.00  -0.00
     4   6    -0.00   0.00   0.00    -0.00  -0.00   0.00    -0.00  -0.00   0.00
     5   6    -0.00  -0.00  -0.00     0.00   0.00  -0.00    -0.08  -0.04   0.04
     6   1     0.00   0.00  -0.00    -0.00  -0.00   0.00     0.24   0.23  -0.63
     7   1     0.00   0.00   0.00     0.00   0.00   0.00     0.66   0.15   0.05
     8   1     0.00   0.00   0.00    -0.00  -0.00  -0.00     0.01   0.06   0.07
     9   7    -0.00   0.00   0.00    -0.00   0.00   0.00     0.00   0.00  -0.00
    10   1     0.00  -0.00  -0.01     0.00  -0.00  -0.00     0.00   0.00   0.00
    11   1     0.00  -0.00  -0.00     0.00  -0.00  -0.00    -0.01  -0.01   0.00
    12  17    -0.00  -0.00  -0.00    -0.00  -0.00  -0.00    -0.00   0.00  -0.00
    13   6     0.00  -0.00  -0.00     0.00  -0.00  -0.00    -0.01  -0.00   0.00
    14   1    -0.00   0.01  -0.00    -0.00   0.00  -0.00     0.02  -0.03   0.00
    15   1    -0.00  -0.00   0.01    -0.00  -0.00   0.00     0.02   0.03  -0.04
    16   1     0.01   0.00   0.00     0.00   0.00   0.00     0.04   0.01   0.01
    17   6    -0.09  -0.00   0.01    -0.02  -0.00   0.00     0.00  -0.00  -0.00
    18   1     0.74  -0.33  -0.10     0.18  -0.08  -0.03    -0.00   0.00   0.00
    19   1     0.31   0.39  -0.07     0.11   0.13  -0.02    -0.00  -0.00   0.00
    20   1     0.01  -0.04   0.07    -0.00  -0.00   0.00     0.00  -0.00   0.00
    21   6    -0.00   0.02  -0.02    -0.00  -0.06   0.06     0.00  -0.00  -0.00
    22   1    -0.01  -0.17   0.02     0.04   0.68  -0.08     0.00   0.01  -0.00
    23   1     0.03  -0.01  -0.02     0.00  -0.01   0.01    -0.02   0.01   0.01
    24   1     0.00  -0.03   0.20    -0.01   0.10  -0.67     0.00  -0.00   0.00
                     61                     62                     63
                      A                      A                      A
 Frequencies --   3218.3440              3218.5410              3238.3449
 Red. masses --      1.1015                 1.1033                 1.1073
 Frc consts  --      6.7221                 6.7341                 6.8414
 IR Inten    --      0.0000                 0.0000                 0.0000
  Atom  AN      X      Y      Z        X      Y      Z        X      Y      Z
     1   6    -0.00  -0.00  -0.00     0.00   0.00   0.00    -0.00  -0.00   0.00
     2   6    -0.00   0.00   0.00    -0.00   0.00   0.00     0.00  -0.00  -0.00
     3   8     0.00  -0.00   0.00     0.00  -0.00  -0.00    -0.00  -0.00   0.00
     4   6     0.00   0.00  -0.00    -0.00  -0.00   0.00    -0.00   0.00  -0.00
     5   6    -0.00  -0.00   0.01     0.00  -0.00  -0.00    -0.02  -0.04  -0.06
     6   1     0.03   0.03  -0.07    -0.01  -0.01   0.03    -0.10  -0.10   0.25
     7   1     0.03   0.01   0.00     0.00   0.00   0.00     0.22   0.05   0.01
     8   1    -0.01  -0.03  -0.03     0.00   0.02   0.02     0.09   0.47   0.48
     9   7    -0.00  -0.00   0.00     0.00   0.00  -0.00     0.00   0.00   0.00
    10   1    -0.00   0.00   0.00     0.00  -0.00  -0.00    -0.00  -0.00  -0.01
    11   1    -0.00  -0.00   0.00     0.00  -0.00  -0.00    -0.00  -0.00   0.00
    12  17    -0.00   0.00   0.00     0.00  -0.00  -0.00     0.00  -0.00   0.00
    13   6     0.07   0.01  -0.03    -0.04  -0.01   0.02    -0.02   0.05  -0.03
    14   1    -0.19   0.28  -0.04     0.12  -0.18   0.02     0.28  -0.39   0.04
    15   1    -0.21  -0.32   0.48     0.14   0.21  -0.31    -0.15  -0.20   0.31
    16   1    -0.43  -0.10  -0.08     0.28   0.07   0.05     0.06   0.01   0.01
    17   6     0.00   0.00  -0.00     0.00   0.00  -0.00     0.00   0.00  -0.00
    18   1    -0.01   0.01   0.00    -0.01   0.00   0.00    -0.00   0.00   0.00
    19   1    -0.01  -0.01   0.00    -0.01  -0.02   0.00    -0.00  -0.00   0.00
    20   1     0.00   0.00  -0.00     0.00   0.00  -0.00     0.00  -0.00   0.00
    21   6    -0.03   0.03   0.03    -0.05   0.04   0.04    -0.00   0.00  -0.00
    22   1    -0.01  -0.15   0.02    -0.02  -0.23   0.04     0.00   0.00   0.00
    23   1     0.38  -0.22  -0.22     0.60  -0.35  -0.33    -0.00  -0.00   0.00
    24   1    -0.00   0.03  -0.15    -0.01   0.04  -0.24    -0.00  -0.00  -0.00
                     64                     65                     66
                      A                      A                      A
 Frequencies --   3246.2493              3549.4000              3626.8615
 Red. masses --      1.1052                 1.0547                 1.0980
 Frc consts  --      6.8618                 7.8284                 8.5097
 IR Inten    --      0.0000                 0.0000                 0.0000
  Atom  AN      X      Y      Z        X      Y      Z        X      Y      Z
     1   6    -0.00   0.00  -0.00     0.00   0.00   0.00     0.00   0.00  -0.00
     2   6    -0.00  -0.00  -0.00    -0.00   0.00   0.00     0.00   0.00   0.00
     3   8     0.00   0.00  -0.00     0.00  -0.00  -0.00    -0.00  -0.00  -0.00
     4   6     0.00  -0.00   0.00    -0.00  -0.00   0.00     0.00   0.00   0.00
     5   6    -0.01  -0.03  -0.05     0.00  -0.00   0.00     0.00  -0.00  -0.00
     6   1    -0.08  -0.07   0.19     0.00   0.00  -0.01    -0.00  -0.00   0.00
     7   1     0.17   0.04   0.00     0.01  -0.00   0.00     0.01  -0.00   0.00
     8   1     0.08   0.39   0.39     0.00  -0.01  -0.00     0.00   0.01   0.01
     9   7     0.00   0.00   0.00    -0.05   0.03   0.02    -0.04  -0.04  -0.06
    10   1    -0.00  -0.00  -0.01     0.02  -0.44  -0.51    -0.04   0.48   0.56
    11   1    -0.00  -0.00   0.00     0.68   0.13   0.25     0.63   0.11   0.22
    12  17    -0.00   0.00   0.00     0.00   0.00  -0.00    -0.00   0.00   0.00
    13   6     0.03  -0.06   0.03     0.00   0.00  -0.00    -0.00  -0.00   0.00
    14   1    -0.38   0.53  -0.06    -0.00  -0.00   0.00    -0.00   0.00  -0.00
    15   1     0.15   0.20  -0.30    -0.00  -0.00  -0.00     0.00   0.00   0.00
    16   1    -0.12  -0.03  -0.02     0.00   0.00   0.00     0.00   0.00  -0.00
    17   6     0.00   0.00  -0.00     0.00  -0.00  -0.00    -0.00   0.00   0.00
    18   1    -0.00   0.00   0.00    -0.00   0.00  -0.00     0.00  -0.00   0.00
    19   1    -0.00  -0.00   0.00    -0.00   0.00   0.00     0.00   0.00  -0.00
    20   1     0.00  -0.00   0.00     0.00   0.00   0.00    -0.00   0.00  -0.00
    21   6     0.00  -0.00  -0.00    -0.00  -0.00   0.00    -0.00   0.00   0.00
    22   1    -0.00   0.00  -0.00     0.00   0.00  -0.00    -0.00  -0.00   0.00
    23   1    -0.00   0.00   0.00     0.00  -0.00   0.00     0.00  -0.00  -0.00
    24   1     0.00  -0.00   0.00     0.00  -0.00   0.00    -0.00   0.00  -0.00

 -------------------
 - Thermochemistry -
 -------------------
 Temperature   298.150 Kelvin.  Pressure   1.00000 Atm.
 Atom     1 has atomic number  6 and mass  12.00000
 Atom     2 has atomic number  6 and mass  12.00000
 Atom     3 has atomic number  8 and mass  15.99491
 Atom     4 has atomic number  6 and mass  12.00000
 Atom     5 has atomic number  6 and mass  12.00000
 Atom     6 has atomic number  1 and mass   1.00783
 Atom     7 has atomic number  1 and mass   1.00783
 Atom     8 has atomic number  1 and mass   1.00783
 Atom     9 has atomic number  7 and mass  14.00307
 Atom    10 has atomic number  1 and mass   1.00783
 Atom    11 has atomic number  1 and mass   1.00783
 Atom    12 has atomic number 17 and mass  34.96885
 Atom    13 has atomic number  6 and mass  12.00000
 Atom    14 has atomic number  1 and mass   1.00783
 Atom    15 has atomic number  1 and mass   1.00783
 Atom    16 has atomic number  1 and mass   1.00783
 Atom    17 has atomic number  6 and mass  12.00000
 Atom    18 has atomic number  1 and mass   1.00783
 Atom    19 has atomic number  1 and mass   1.00783
 Atom    20 has atomic number  1 and mass   1.00783
 Atom    21 has atomic number  6 and mass  12.00000
 Atom    22 has atomic number  1 and mass   1.00783
 Atom    23 has atomic number  1 and mass   1.00783
 Atom    24 has atomic number  1 and mass   1.00783
 Molecular mass:   163.07639 amu.
 Principal axes and moments of inertia in atomic units:
                           1         2         3
     Eigenvalues --  1296.245022232.289562425.68812
           X            0.99655   0.08130   0.01668
           Y           -0.08222   0.99448   0.06518
           Z           -0.01129  -0.06632   0.99773
 This molecule is an asymmetric top.
 Rotational symmetry number  1.
 Warning -- assumption of classical behavior for rotation
           may cause significant error
 Rotational temperatures (Kelvin)      0.06682     0.03880     0.03571
 Rotational constants (GHZ):           1.39228     0.80847     0.74401
    1 imaginary frequencies ignored.
 Zero-point vibrational energy     571227.3 (Joules/Mol)
                                  136.52660 (Kcal/Mol)
 Warning -- explicit consideration of  18 degrees of freedom as
           vibrations may cause significant error
 Vibrational temperatures:    132.70   182.51   235.99   311.30   344.05
          (Kelvin)            383.09   451.74   483.45   493.27   514.57
                              530.62   545.31   569.43   587.71   671.97
                              726.89   785.37   887.82   945.91  1045.02
                             1095.72  1318.73  1449.77  1547.33  1592.76
                             1639.37  1645.74  1668.97  1691.31  1699.01
                             1764.22  1808.10  1820.19  2043.58  2074.09
                             2113.51  2130.54  2195.27  2237.24  2248.21
                             2266.26  2273.35  2281.16  2291.93  2293.44
                             2321.70  2323.44  2331.46  2340.78  2550.14
                             2559.57  4363.28  4461.39  4487.55  4491.77
                             4498.24  4555.24  4559.65  4626.82  4630.48
                             4630.76  4659.26  4670.63  5106.79  5218.24
 
 Zero-point correction=                           0.217569 (Hartree/Particle)
 Thermal correction to Energy=                    0.228228
 Thermal correction to Enthalpy=                  0.229172
 Thermal correction to Gibbs Free Energy=         0.182097
 Sum of electronic and zero-point Energies=           -864.511366
 Sum of electronic and thermal Energies=              -864.500707
 Sum of electronic and thermal Enthalpies=            -864.499763
 Sum of electronic and thermal Free Energies=         -864.546838
 
                     E (Thermal)             CV                S
                      KCal/Mol        Cal/Mol-Kelvin    Cal/Mol-Kelvin
 Total                  143.215             40.744             99.078
 Electronic               0.000              0.000              0.000
 Translational            0.889              2.981             41.176
 Rotational               0.889              2.981             30.330
 Vibrational            141.438             34.782             27.572
 Vibration     1          0.602              1.955              3.612
 Vibration     2          0.611              1.926              2.993
 Vibration     3          0.623              1.887              2.503
 Vibration     4          0.645              1.816              1.989
 Vibration     5          0.657              1.781              1.809
 Vibration     6          0.672              1.735              1.620
 Vibration     7          0.702              1.647              1.341
 Vibration     8          0.717              1.604              1.231
 Vibration     9          0.722              1.590              1.199
 Vibration    10          0.733              1.560              1.132
 Vibration    11          0.741              1.536              1.085
 Vibration    12          0.749              1.515              1.043
 Vibration    13          0.763              1.479              0.978
 Vibration    14          0.773              1.452              0.932
 Vibration    15          0.824              1.323              0.746
 Vibration    16          0.860              1.238              0.645
 Vibration    17          0.901              1.149              0.553
 Vibration    18          0.977              0.996              0.421
                       Q            Log10(Q)             Ln(Q)
 Total Bot       0.174275D-83        -83.758766       -192.861686
 Total V=0       0.206980D+17         16.315929         37.568815
 Vib (Bot)       0.224497D-97        -97.648789       -224.844645
 Vib (Bot)    1  0.222831D+01          0.347975          0.801242
 Vib (Bot)    2  0.160835D+01          0.206380          0.475207
 Vib (Bot)    3  0.123102D+01          0.090264          0.207840
 Vib (Bot)    4  0.915586D+00         -0.038301         -0.088191
 Vib (Bot)    5  0.820322D+00         -0.086016         -0.198059
 Vib (Bot)    6  0.727214D+00         -0.138338         -0.318534
 Vib (Bot)    7  0.600858D+00         -0.221228         -0.509397
 Vib (Bot)    8  0.553998D+00         -0.256492         -0.590594
 Vib (Bot)    9  0.540630D+00         -0.267100         -0.615020
 Vib (Bot)   10  0.513298D+00         -0.289630         -0.666898
 Vib (Bot)   11  0.494055D+00         -0.306224         -0.705108
 Vib (Bot)   12  0.477377D+00         -0.321138         -0.739448
 Vib (Bot)   13  0.451738D+00         -0.345113         -0.794652
 Vib (Bot)   14  0.433612D+00         -0.362899         -0.835605
 Vib (Bot)   15  0.362055D+00         -0.441226         -1.015960
 Vib (Bot)   16  0.323807D+00         -0.489714         -1.127609
 Vib (Bot)   17  0.288637D+00         -0.539647         -1.242584
 Vib (Bot)   18  0.237726D+00         -0.623923         -1.436636
 Vib (V=0)       0.266629D+03          2.425907          5.585857
 Vib (V=0)    1  0.278371D+01          0.444625          1.023786
 Vib (V=0)    2  0.218427D+01          0.339307          0.781283
 Vib (V=0)    3  0.182868D+01          0.262139          0.603596
 Vib (V=0)    4  0.154321D+01          0.188426          0.433868
 Vib (V=0)    5  0.146069D+01          0.164558          0.378910
 Vib (V=0)    6  0.138252D+01          0.140671          0.323908
 Vib (V=0)    7  0.128168D+01          0.107781          0.248175
 Vib (V=0)    8  0.124627D+01          0.095611          0.220152
 Vib (V=0)    9  0.123640D+01          0.092158          0.212202
 Vib (V=0)   10  0.121657D+01          0.085138          0.196037
 Vib (V=0)   11  0.120292D+01          0.080235          0.184748
 Vib (V=0)   12  0.119130D+01          0.076019          0.175041
 Vib (V=0)   13  0.117385D+01          0.069611          0.160285
 Vib (V=0)   14  0.116183D+01          0.065143          0.149997
 Vib (V=0)   15  0.111732D+01          0.048177          0.110933
 Vib (V=0)   16  0.109569D+01          0.039689          0.091387
 Vib (V=0)   17  0.107733D+01          0.032349          0.074487
 Vib (V=0)   18  0.105364D+01          0.022691          0.052248
 Electronic      0.100000D+01          0.000000          0.000000
 Translational   0.818541D+08          7.913041         18.220449
 Rotational      0.948379D+06          5.976982         13.762509
 ***** Axes restored to original set *****
 -------------------------------------------------------------------
 Center     Atomic                   Forces (Hartrees/Bohr)
 Number     Number              X              Y              Z
 -------------------------------------------------------------------
      1        6          -0.000000331    0.000001902   -0.000000936
      2        6           0.000000757    0.000001824   -0.000002066
      3        8           0.000000362   -0.000006141    0.000002357
      4        6           0.000002509    0.000001954   -0.000000662
      5        6          -0.000000408    0.000001349    0.000002079
      6        1          -0.000001784    0.000001365    0.000001744
      7        1          -0.000000783   -0.000000995    0.000001676
      8        1          -0.000001915    0.000000625    0.000001497
      9        7          -0.000001892   -0.000000244   -0.000000550
     10        1           0.000000859    0.000000555    0.000001440
     11        1          -0.000001061    0.000003257    0.000001413
     12       17           0.000000740    0.000000548   -0.000001767
     13        6          -0.000000775   -0.000001994   -0.000000309
     14        1          -0.000000840   -0.000002147    0.000000785
     15        1           0.000001084   -0.000001755   -0.000000156
     16        1           0.000000083   -0.000000041   -0.000000151
     17        6           0.000000822   -0.000000146   -0.000001547
     18        1          -0.000000557   -0.000004150    0.000002435
     19        1          -0.000005646    0.000004719   -0.000005440
     20        1           0.000008185    0.000002924    0.000000764
     21        6           0.000000533   -0.000000478   -0.000001864
     22        1          -0.000000281   -0.000001200   -0.000001053
     23        1           0.000000374   -0.000001577   -0.000000165
     24        1          -0.000000032   -0.000000157    0.000000472
 -------------------------------------------------------------------
 Cartesian Forces:  Max     0.000008185 RMS     0.000002133


 THE RED LIGHT IS ALWAYS LONGER THAN THE GREEN LIGHT.

                     -- PETER'S THEORY OF RELATIVITY
 Error termination request processed by link 9999.
 Error termination via Lnk1e in /apps/gaussian/g16/C.01/g16/l9999.exe at Wed Jan 17 02:33:22 2024.
 Job cpu time:       0 days  8 hours 59 minutes 53.1 seconds.
 Elapsed time:       0 days  1 hours 29 minutes  8.0 seconds.
 File lengths (MBytes):  RWF=      6 Int=      0 D2E=      0 Chk=      2 Scr=      1
