Unloading slurm/anatra/current
  ERROR: No such file or directory on
    '/cm/local/modulefiles/slurm/anatra/current'
environment: line 0: unalias: gv: not found
environment: line 0: unalias: sl: not found
 Entering Gaussian System, Link 0=g16
 Initial command:
 /apps/gaussian/g16/C.01/g16/l1.exe "/local/jobs/1153169/Gau-1735492.inp" -scrdir="/local/jobs/1153169/"
 Entering Link 1 = /apps/gaussian/g16/C.01/g16/l1.exe PID=   1735499.
  
 Copyright (c) 1988-2019, Gaussian, Inc.  All Rights Reserved.
  
 This is part of the Gaussian(R) 16 program.  It is based on
 the Gaussian(R) 09 system (copyright 2009, Gaussian, Inc.),
 the Gaussian(R) 03 system (copyright 2003, Gaussian, Inc.),
 the Gaussian(R) 98 system (copyright 1998, Gaussian, Inc.),
 the Gaussian(R) 94 system (copyright 1995, Gaussian, Inc.),
 the Gaussian 92(TM) system (copyright 1992, Gaussian, Inc.),
 the Gaussian 90(TM) system (copyright 1990, Gaussian, Inc.),
 the Gaussian 88(TM) system (copyright 1988, Gaussian, Inc.),
 the Gaussian 86(TM) system (copyright 1986, Carnegie Mellon
 University), and the Gaussian 82(TM) system (copyright 1983,
 Carnegie Mellon University). Gaussian is a federally registered
 trademark of Gaussian, Inc.
  
 This software contains proprietary and confidential information,
 including trade secrets, belonging to Gaussian, Inc.
  
 This software is provided under written license and may be
 used, copied, transmitted, or stored only in accord with that
 written license.
  
 The following legend is applicable only to US Government
 contracts under FAR:
  
                    RESTRICTED RIGHTS LEGEND
  
 Use, reproduction and disclosure by the US Government is
 subject to restrictions as set forth in subparagraphs (a)
 and (c) of the Commercial Computer Software - Restricted
 Rights clause in FAR 52.227-19.
  
 Gaussian, Inc.
 340 Quinnipiac St., Bldg. 40, Wallingford CT 06492
  
  
 ---------------------------------------------------------------
 Warning -- This program may not be used in any manner that
 competes with the business of Gaussian, Inc. or will provide
 assistance to any competitor of Gaussian, Inc.  The licensee
 of this program is prohibited from giving any competitor of
 Gaussian, Inc. access to this program.  By using this program,
 the user acknowledges that Gaussian, Inc. is engaged in the
 business of creating and licensing software in the field of
 computational chemistry and represents and warrants to the
 licensee that it is not a competitor of Gaussian, Inc. and that
 it will not use this program in any manner prohibited above.
 ---------------------------------------------------------------
  

 Cite this work as:
 Gaussian 16, Revision C.01,
 M. J. Frisch, G. W. Trucks, H. B. Schlegel, G. E. Scuseria, 
 M. A. Robb, J. R. Cheeseman, G. Scalmani, V. Barone, 
 G. A. Petersson, H. Nakatsuji, X. Li, M. Caricato, A. V. Marenich, 
 J. Bloino, B. G. Janesko, R. Gomperts, B. Mennucci, H. P. Hratchian, 
 J. V. Ortiz, A. F. Izmaylov, J. L. Sonnenberg, D. Williams-Young, 
 F. Ding, F. Lipparini, F. Egidi, J. Goings, B. Peng, A. Petrone, 
 T. Henderson, D. Ranasinghe, V. G. Zakrzewski, J. Gao, N. Rega, 
 G. Zheng, W. Liang, M. Hada, M. Ehara, K. Toyota, R. Fukuda, 
 J. Hasegawa, M. Ishida, T. Nakajima, Y. Honda, O. Kitao, H. Nakai, 
 T. Vreven, K. Throssell, J. A. Montgomery, Jr., J. E. Peralta, 
 F. Ogliaro, M. J. Bearpark, J. J. Heyd, E. N. Brothers, K. N. Kudin, 
 V. N. Staroverov, T. A. Keith, R. Kobayashi, J. Normand, 
 K. Raghavachari, A. P. Rendell, J. C. Burant, S. S. Iyengar, 
 J. Tomasi, M. Cossi, J. M. Millam, M. Klene, C. Adamo, R. Cammi, 
 J. W. Ochterski, R. L. Martin, K. Morokuma, O. Farkas, 
 J. B. Foresman, and D. J. Fox, Gaussian, Inc., Wallingford CT, 2019.
 
 ******************************************
 Gaussian 16:  ES64L-G16RevC.01  3-Jul-2019
                30-Dec-2023 
 ******************************************
 %chk=imda-1_1_opt_hf_re_freq.chk
 %nprocshared=12
 Will use up to   12 processors via shared memory.
 %mem=48GB
 -----------------------------------------------------------
 # wb97xd def2svp scrf=(iefpcm,solvent=toluene) freq=noraman
 -----------------------------------------------------------
 1/10=4,30=1,38=1/1,3;
 2/12=2,17=6,18=5,40=1/2;
 3/5=43,7=101,11=2,25=1,30=1,70=2201,71=2,72=13,74=-58,140=1/1,2,3;
 4//1;
 5/5=2,38=5,53=13,98=1/2;
 8/6=4,10=90,11=11/1;
 11/6=1,8=1,9=11,15=111,16=1/1,2,10;
 10/6=1/2;
 6/7=2,8=2,9=2,10=2,28=1/1;
 7/8=1,10=1,25=1/1,2,3,16;
 1/10=4,30=1/3;
 99//99;
 ----------------------
 imda-1_1_opt_hf_re.out
 ----------------------
 Symbolic Z-matrix:
 Charge =  0 Multiplicity = 1
 C                    -2.46725   0.31575  -0.21956 
 C                     0.98954   1.27186   1.11662 
 C                    -0.91951  -1.47799  -0.0405 
 C                     1.368    -0.00302   1.09865 
 C                    -2.67275  -0.34902   0.93924 
 C                    -1.72056  -1.45661   1.04701 
 C                     0.22631  -2.40401  -0.32179 
 H                     0.46222  -2.97808   0.58858 
 H                    -0.07566  -3.14899  -1.07826 
 C                     1.48687  -1.71519  -0.8571 
 H                     2.25972  -2.45276  -1.12014 
 H                     1.25002  -1.19055  -1.8003 
 C                     2.16446  -0.66469   0.00829 
 O                     3.31384  -0.3503   -0.19018 
 H                     1.05842  -0.62886   1.94079 
 H                     0.4151    1.71007   1.9339 
 C                    -1.34706  -0.36379  -0.95932 
 H                    -1.68796  -0.7535   -1.93657 
 H                    -0.53024   0.3445   -1.183 
 Cl                    1.28584   2.38356  -0.18754 
 C                    -3.17206   1.52502  -0.74004 
 H                    -2.46544   2.35979  -0.88052 
 H                    -3.96075   1.8567   -0.05024 
 H                    -3.63496   1.33039  -1.72134 
 H                    -1.65269  -2.13912   1.89696 
 H                    -3.42373  -0.09743   1.69065 
 

 GradGradGradGradGradGradGradGradGradGradGradGradGradGradGradGradGradGrad
 Berny optimization.
 Initialization pass.
 Trust Radius=3.00D-01 FncErr=1.00D-07 GrdErr=1.00D-07 EigMax=2.50D+02 EigMin=1.00D-04
 Number of steps in this run=      2 maximum allowed number of steps=      2.
 GradGradGradGradGradGradGradGradGradGradGradGradGradGradGradGradGradGrad

                          Input orientation:                          
 ---------------------------------------------------------------------
 Center     Atomic      Atomic             Coordinates (Angstroms)
 Number     Number       Type             X           Y           Z
 ---------------------------------------------------------------------
      1          6           0       -2.467250    0.315750   -0.219560
      2          6           0        0.989540    1.271860    1.116620
      3          6           0       -0.919510   -1.477990   -0.040500
      4          6           0        1.368000   -0.003020    1.098650
      5          6           0       -2.672750   -0.349020    0.939240
      6          6           0       -1.720560   -1.456610    1.047010
      7          6           0        0.226310   -2.404010   -0.321790
      8          1           0        0.462220   -2.978080    0.588580
      9          1           0       -0.075660   -3.148990   -1.078260
     10          6           0        1.486870   -1.715190   -0.857100
     11          1           0        2.259720   -2.452760   -1.120140
     12          1           0        1.250020   -1.190550   -1.800300
     13          6           0        2.164460   -0.664690    0.008290
     14          8           0        3.313840   -0.350300   -0.190180
     15          1           0        1.058420   -0.628860    1.940790
     16          1           0        0.415100    1.710070    1.933900
     17          6           0       -1.347060   -0.363790   -0.959320
     18          1           0       -1.687960   -0.753500   -1.936570
     19          1           0       -0.530240    0.344500   -1.183000
     20         17           0        1.285840    2.383560   -0.187540
     21          6           0       -3.172060    1.525020   -0.740040
     22          1           0       -2.465440    2.359790   -0.880520
     23          1           0       -3.960750    1.856700   -0.050240
     24          1           0       -3.634960    1.330390   -1.721340
     25          1           0       -1.652690   -2.139120    1.896960
     26          1           0       -3.423730   -0.097430    1.690650
 ---------------------------------------------------------------------
                    Distance matrix (angstroms):
                    1          2          3          4          5
     1  C    0.000000
     2  C    3.827391   0.000000
     3  C    2.375935   3.541903   0.000000
     4  C    4.067977   1.329990   2.950576   0.000000
     5  C    1.351653   4.008876   2.303978   4.058668   0.000000
     6  C    2.302826   3.846302   1.350858   3.413912   1.464594
     7  C    3.829205   4.020393   1.499847   3.014276   3.770640
     8  H    4.481540   4.314960   2.134289   3.151443   4.106453
     9  H    4.296684   5.049363   2.140390   4.089036   4.319145
    10  C    4.490684   3.614606   2.552208   2.602040   4.732409
    11  H    5.551571   4.526505   3.496184   3.423364   5.744217
    12  H    4.311122   3.826191   2.808270   3.134973   4.858125
    13  C    4.739822   2.521717   3.189782   1.503676   4.936083
    14  O    5.819406   3.121138   4.383531   2.359657   6.092196
    15  H    4.241432   2.072857   2.925532   1.093945   3.873376
    16  H    3.858686   1.090851   3.980347   2.130807   3.842397
    17  C    1.504608   3.527687   1.506144   3.425923   2.315643
    18  H    2.167651   4.537958   2.170365   4.372033   3.066545
    19  H    2.163574   2.908261   2.185934   2.988313   3.094386
    20  Cl   4.285154   1.739110   4.449355   2.712342   4.940350
    21  C    1.493315   4.564010   3.818561   5.131065   2.565408
    22  H    2.148248   4.136308   4.221858   4.918866   3.269886
    23  H    2.152612   5.119470   4.513246   5.759695   2.739200
    24  H    2.156011   5.426181   4.252751   5.895756   3.290129
    25  H    3.342088   4.384643   2.174488   3.784810   2.272049
    26  H    2.175885   4.656331   3.342745   4.829084   1.091735
                    6          7          8          9         10
     6  C    0.000000
     7  C    2.561539   0.000000
     8  H    2.699918   1.101809   0.000000
     9  H    3.175944   1.103824   1.759796   0.000000
    10  C    3.738998   1.532984   2.175957   2.132181   0.000000
    11  H    4.640203   2.185062   2.535092   2.437312   1.100226
    12  H    4.123385   2.169438   3.085878   2.472702   1.104976
    13  C    4.098714   2.624998   2.930210   3.517169   1.520388
    14  O    5.300919   3.710510   3.955178   4.484424   2.376032
    15  H    3.034261   2.993799   2.775385   4.092903   3.031810
    16  H    3.921158   4.695682   4.877587   5.737980   4.546513
    17  C    2.314977   2.654136   3.536100   3.063975   3.141320
    18  H    3.065481   2.999354   3.993546   3.012404   3.488502
    19  H    3.103837   2.977979   3.893971   3.524498   2.901253
    20  Cl   5.030851   4.905248   5.479771   5.766817   4.157941
    21  C    3.767030   5.211634   5.937266   5.616801   5.676116
    22  H    4.339946   5.500135   6.262771   6.008062   5.676862
    23  H    4.147340   5.979871   6.583757   6.419321   6.563992
    24  H    4.369904   5.551026   6.378521   5.757344   6.021263
    25  H    1.092173   2.919531   2.624606   3.515508   4.197785
    26  H    2.272098   4.763719   4.961180   5.309280   5.763868
                   11         12         13         14         15
    11  H    0.000000
    12  H    1.753649   0.000000
    13  C    2.116512   2.093735   0.000000
    14  O    2.529097   2.749156   1.208017   0.000000
    15  H    3.760190   3.787870   2.226918   3.115373   0.000000
    16  H    5.482603   4.801556   3.522459   4.142407   2.425799
    17  C    4.171153   2.852298   3.654803   4.723955   3.777199
    18  H    4.374725   2.973434   4.316423   5.313234   4.753110
    19  H    3.951265   2.430383   3.114329   4.030557   3.637215
    20  Cl   5.020774   3.921293   3.178388   3.403936   3.695427
    21  C    6.743252   5.296533   5.816638   6.773926   5.451881
    22  H    6.748718   5.220685   5.601200   6.420377   5.413816
    23  H    7.642668   6.284948   6.624125   7.603295   5.944264
    24  H    7.030001   5.497672   6.372224   7.311292   6.267190
    25  H    4.950577   4.795335   4.506845   5.676482   3.103695
    26  H    6.763854   5.935114   5.863445   6.999737   4.520471
                   16         17         18         19         20
    16  H    0.000000
    17  C    3.972005   0.000000
    18  H    5.047036   1.105940   0.000000
    19  H    3.531786   1.104039   1.764593   0.000000
    20  Cl   2.390039   3.882749   4.663018   2.906347   0.000000
    21  C    4.477937   2.635586   2.970840   2.927295   4.573316
    22  H    4.079290   2.945313   3.378208   2.810318   3.814825
    23  H    4.806909   3.548010   3.941695   3.916413   5.274764
    24  H    5.468814   2.947101   2.860023   3.301678   5.260797
    25  H    4.369598   3.376913   4.076413   4.112714   5.782278
    26  H    4.250040   3.377254   4.074316   4.101884   5.644728
                   21         22         23         24         25
    21  C    0.000000
    22  H    1.102673   0.000000
    23  H    1.099030   1.782811   0.000000
    24  H    1.102319   1.770429   1.782054   0.000000
    25  H    4.763211   5.349313   5.008523   5.390639   0.000000
    26  H    2.933247   3.683363   2.671650   3.704722   2.710654
                   26
    26  H    0.000000
 Stoichiometry    C11H13ClO
 Framework group  C1[X(C11H13ClO)]
 Deg. of freedom    72
 Full point group                 C1      NOp   1
 Largest Abelian subgroup         C1      NOp   1
 Largest concise Abelian subgroup C1      NOp   1
                         Standard orientation:                         
 ---------------------------------------------------------------------
 Center     Atomic      Atomic             Coordinates (Angstroms)
 Number     Number       Type             X           Y           Z
 ---------------------------------------------------------------------
      1          6           0       -2.467250    0.315747   -0.219559
      2          6           0        0.989539    1.271859    1.116621
      3          6           0       -0.919509   -1.477992   -0.040499
      4          6           0        1.368000   -0.003020    1.098651
      5          6           0       -2.672750   -0.349023    0.939241
      6          6           0       -1.720559   -1.456612    1.047011
      7          6           0        0.226312   -2.404011   -0.321789
      8          1           0        0.462222   -2.978081    0.588581
      9          1           0       -0.075658   -3.148991   -1.078259
     10          6           0        1.486871   -1.715190   -0.857099
     11          1           0        2.259722   -2.452760   -1.120139
     12          1           0        1.250021   -1.190551   -1.800299
     13          6           0        2.164461   -0.664690    0.008291
     14          8           0        3.313840   -0.350299   -0.190179
     15          1           0        1.058420   -0.628861    1.940791
     16          1           0        0.415099    1.710069    1.933901
     17          6           0       -1.347060   -0.363792   -0.959319
     18          1           0       -1.687959   -0.753502   -1.936569
     19          1           0       -0.530240    0.344498   -1.182999
     20         17           0        1.285839    2.383559   -0.187539
     21          6           0       -3.172061    1.525017   -0.740039
     22          1           0       -2.465441    2.359787   -0.880519
     23          1           0       -3.960751    1.856696   -0.050239
     24          1           0       -3.634961    1.330386   -1.721339
     25          1           0       -1.652689   -2.139122    1.896961
     26          1           0       -3.423730   -0.097433    1.690651
 ---------------------------------------------------------------------
 Rotational constants (GHZ):           0.8867003           0.5792312           0.4149933
 Standard basis: def2SVP (5D, 7F)
 There are   264 symmetry adapted cartesian basis functions of A   symmetry.
 There are   251 symmetry adapted basis functions of A   symmetry.
   251 basis functions,   428 primitive gaussians,   264 cartesian basis functions
    52 alpha electrons       52 beta electrons
       nuclear repulsion energy       873.3567965385 Hartrees.
 NAtoms=   26 NActive=   26 NUniq=   26 SFac= 1.00D+00 NAtFMM=   60 NAOKFM=F Big=F
 Integral buffers will be    131072 words long.
 Raffenetti 2 integral format.
 Two-electron integral symmetry is turned on.
 Nuclear repulsion after empirical dispersion term =      873.3362690001 Hartrees.
 Force inversion solution in PCM.
 ------------------------------------------------------------------------------
 Polarizable Continuum Model (PCM)
 =================================
 Model                : PCM.
 Atomic radii         : UFF (Universal Force Field).
 Polarization charges : Total charges.
 Charge compensation  : None.
 Solution method      : Matrix inversion.
 Cavity type          : Scaled VdW (van der Waals Surface) (Alpha=1.100).
 Cavity algorithm     : GePol (No added spheres)
                        Default sphere list used, NSphG=   26.
                        Lebedev-Laikov grids with approx.  5.0 points / Ang**2.
                        Smoothing algorithm: York/Karplus (Gamma=1.0000).
                        Polarization charges: spherical gaussians, with
                                              point-specific exponents (IZeta= 3).
                        Self-potential: point-specific (ISelfS= 7).
                        Self-field    : sphere-specific E.n sum rule (ISelfD= 2).
 1st derivatives      : Analytical E(r).r(x)/FMM algorithm (CHGder, D1EAlg=3).
                        Cavity 1st derivative terms included.
 2nd derivatives      : Analytical E(r).r(xy)/FMM algorithm (CHGder, D2EAlg=3).
                        Cavity 2nd derivative terms included.
 Solvent              : Toluene, Eps=   2.374100 Eps(inf)=   2.238315
 ------------------------------------------------------------------------------
 One-electron integrals computed using PRISM.
   1 Symmetry operations used in ECPInt.
 ECPInt:  NShTT=    7140 NPrTT=   26096 LenC2=    6946 LenP2D=   19115.
 LDataN:  DoStor=T MaxTD1= 4 Len=   56
 NBasis=   251 RedAO= T EigKep=  5.71D-04  NBF=   251
 NBsUse=   251 1.00D-06 EigRej= -1.00D+00 NBFU=   251
 ExpMin= 1.22D-01 ExpMax= 1.04D+04 ExpMxC= 1.57D+03 IAcc=3 IRadAn=         5 AccDes= 0.00D+00
 Harris functional with IExCor= 4639 and IRadAn=       5 diagonalized for initial guess.
 HarFok:  IExCor= 4639 AccDes= 0.00D+00 IRadAn=         5 IDoV= 1 UseB2=F ITyADJ=14
 ICtDFT=  3500011 ScaDFX=  1.000000  1.000000  1.000000  1.000000
 FoFCou: FMM=F IPFlag=           0 FMFlag=      100000 FMFlg1=           0
         NFxFlg=           0 DoJE=T BraDBF=F KetDBF=T FulRan=T
         wScrn=  0.000000 ICntrl=       500 IOpCl=  0 I1Cent=   200000004 NGrid=           0
         NMat0=    1 NMatS0=      1 NMatT0=    0 NMatD0=    1 NMtDS0=    0 NMtDT0=    0
 Petite list used in FoFCou.
 Requested convergence on RMS density matrix=1.00D-08 within 128 cycles.
 Requested convergence on MAX density matrix=1.00D-06.
 Requested convergence on             energy=1.00D-06.
 No special actions if energy rises.
 Inv3:  Mode=1 IEnd=    12024012.
 Iteration    1 A*A^-1 deviation from unit magnitude is 4.22D-15 for    729.
 Iteration    1 A*A^-1 deviation from orthogonality  is 1.83D-15 for   1335    231.
 Iteration    1 A^-1*A deviation from unit magnitude is 4.22D-15 for    729.
 Iteration    1 A^-1*A deviation from orthogonality  is 1.46D-15 for   1438    721.
 Error on total polarization charges =  0.00625
 SCF Done:  E(RwB97XD) =  -961.702758296     A.U. after   15 cycles
            NFock= 15  Conv=0.48D-08     -V/T= 2.0068
 DoSCS=F DFT=T ScalE2(SS,OS)=  1.000000  1.000000
 Range of M.O.s used for correlation:     1   251
 NBasis=   251 NAE=    52 NBE=    52 NFC=     0 NFV=     0
 NROrb=    251 NOA=    52 NOB=    52 NVA=   199 NVB=   199

 **** Warning!!: The largest alpha MO coefficient is  0.10361036D+02

   1 Symmetry operations used in ECPInt.
 ECPInt:  NShTT=    7140 NPrTT=   26096 LenC2=    6946 LenP2D=   19115.
 LDataN:  DoStor=T MaxTD1= 5 Len=  102
 Symmetrizing basis deriv contribution to polar:
 IMax=3 JMax=2 DiffMx= 0.00D+00
 G2DrvN: will do    27 centers at a time, making    1 passes.
 Calling FoFCou, ICntrl=  3107 FMM=F I1Cent=   0 AccDes= 0.00D+00.
 NEqPCM:  Using equilibrium solvation (IEInf=0, Eps=   2.3741, EpsInf=   2.2383)
 G2PCM: DoFxE=T DoFxN=T DoGrad=T DoDP/DQ/DG/TGxP=FFFF NFrqRd=   0 IEInf=0 SqF1=F DoCFld=F IF1Alg=4.
 End of G2Drv F.D. properties file   721 does not exist.
 End of G2Drv F.D. properties file   722 does not exist.
 End of G2Drv F.D. properties file   788 does not exist.
          IDoAtm=11111111111111111111111111
 NEqPCM:  Using equilibrium solvation (IEInf=0, Eps=   2.3741, EpsInf=   2.2383)
          Differentiating once with respect to electric field.
                with respect to dipole field.
          Differentiating once with respect to nuclear coordinates.
 Keep R1 ints in memory in canonical form, NReq=1021395223.
          There are    81 degrees of freedom in the 1st order CPHF.  IDoFFX=6 NUNeed=     3.
     78 vectors produced by pass  0 Test12= 1.28D-14 1.23D-09 XBig12= 5.86D+01 2.58D+00.
 AX will form    78 AO Fock derivatives at one time.
     78 vectors produced by pass  1 Test12= 1.28D-14 1.23D-09 XBig12= 5.34D+00 4.42D-01.
     78 vectors produced by pass  2 Test12= 1.28D-14 1.23D-09 XBig12= 1.78D-01 5.73D-02.
     78 vectors produced by pass  3 Test12= 1.28D-14 1.23D-09 XBig12= 2.02D-03 5.74D-03.
     78 vectors produced by pass  4 Test12= 1.28D-14 1.23D-09 XBig12= 1.34D-05 4.24D-04.
     78 vectors produced by pass  5 Test12= 1.28D-14 1.23D-09 XBig12= 7.31D-08 3.64D-05.
     65 vectors produced by pass  6 Test12= 1.28D-14 1.23D-09 XBig12= 3.55D-10 1.99D-06.
     20 vectors produced by pass  7 Test12= 1.28D-14 1.23D-09 XBig12= 1.67D-12 1.21D-07.
      3 vectors produced by pass  8 Test12= 1.28D-14 1.23D-09 XBig12= 7.58D-15 7.74D-09.
 InvSVY:  IOpt=1 It=  1 EMax= 3.55D-15
 Solved reduced A of dimension   556 with    81 vectors.
 Isotropic polarizability for W=    0.000000      137.36 Bohr**3.
 End of Minotr F.D. properties file   721 does not exist.
 End of Minotr F.D. properties file   722 does not exist.
 End of Minotr F.D. properties file   788 does not exist.

 **********************************************************************

            Population analysis using the SCF Density.

 **********************************************************************

 Orbital symmetries:
       Occupied  (A) (A) (A) (A) (A) (A) (A) (A) (A) (A) (A) (A)
                 (A) (A) (A) (A) (A) (A) (A) (A) (A) (A) (A) (A)
                 (A) (A) (A) (A) (A) (A) (A) (A) (A) (A) (A) (A)
                 (A) (A) (A) (A) (A) (A) (A) (A) (A) (A) (A) (A)
                 (A) (A) (A) (A)
       Virtual   (A) (A) (A) (A) (A) (A) (A) (A) (A) (A) (A) (A)
                 (A) (A) (A) (A) (A) (A) (A) (A) (A) (A) (A) (A)
                 (A) (A) (A) (A) (A) (A) (A) (A) (A) (A) (A) (A)
                 (A) (A) (A) (A) (A) (A) (A) (A) (A) (A) (A) (A)
                 (A) (A) (A) (A) (A) (A) (A) (A) (A) (A) (A) (A)
                 (A) (A) (A) (A) (A) (A) (A) (A) (A) (A) (A) (A)
                 (A) (A) (A) (A) (A) (A) (A) (A) (A) (A) (A) (A)
                 (A) (A) (A) (A) (A) (A) (A) (A) (A) (A) (A) (A)
                 (A) (A) (A) (A) (A) (A) (A) (A) (A) (A) (A) (A)
                 (A) (A) (A) (A) (A) (A) (A) (A) (A) (A) (A) (A)
                 (A) (A) (A) (A) (A) (A) (A) (A) (A) (A) (A) (A)
                 (A) (A) (A) (A) (A) (A) (A) (A) (A) (A) (A) (A)
                 (A) (A) (A) (A) (A) (A) (A) (A) (A) (A) (A) (A)
                 (A) (A) (A) (A) (A) (A) (A) (A) (A) (A) (A) (A)
                 (A) (A) (A) (A) (A) (A) (A) (A) (A) (A) (A) (A)
                 (A) (A) (A) (A) (A) (A) (A) (A) (A) (A) (A) (A)
                 (A) (A) (A) (A) (A) (A) (A)
 The electronic state is 1-A.
 Alpha  occ. eigenvalues -- -101.68792 -19.25543 -10.40038 -10.36777 -10.32225
 Alpha  occ. eigenvalues --  -10.31259 -10.31231 -10.30186 -10.30080 -10.30049
 Alpha  occ. eigenvalues --  -10.29685 -10.29206 -10.29010  -9.59535  -7.34903
 Alpha  occ. eigenvalues --   -7.33980  -7.33911  -1.14499  -0.97844  -0.96150
 Alpha  occ. eigenvalues --   -0.89930  -0.86025  -0.83820  -0.79555  -0.77588
 Alpha  occ. eigenvalues --   -0.72960  -0.70511  -0.62719  -0.61631  -0.60762
 Alpha  occ. eigenvalues --   -0.59596  -0.57495  -0.55478  -0.54845  -0.53432
 Alpha  occ. eigenvalues --   -0.52542  -0.49932  -0.49800  -0.48956  -0.48601
 Alpha  occ. eigenvalues --   -0.47408  -0.45887  -0.45352  -0.44687  -0.43064
 Alpha  occ. eigenvalues --   -0.42831  -0.41365  -0.40118  -0.38208  -0.34790
 Alpha  occ. eigenvalues --   -0.33873  -0.28291
 Alpha virt. eigenvalues --    0.02930   0.04843   0.07726   0.12607   0.13317
 Alpha virt. eigenvalues --    0.14513   0.15302   0.16455   0.17482   0.18562
 Alpha virt. eigenvalues --    0.19277   0.20641   0.21724   0.22245   0.22715
 Alpha virt. eigenvalues --    0.23746   0.24441   0.24791   0.26454   0.30016
 Alpha virt. eigenvalues --    0.30787   0.31242   0.33809   0.34659   0.36753
 Alpha virt. eigenvalues --    0.38918   0.40361   0.41234   0.42464   0.44771
 Alpha virt. eigenvalues --    0.47613   0.48134   0.50884   0.52177   0.52720
 Alpha virt. eigenvalues --    0.53420   0.54229   0.54925   0.55709   0.56897
 Alpha virt. eigenvalues --    0.58008   0.58532   0.60401   0.62883   0.63488
 Alpha virt. eigenvalues --    0.64848   0.66080   0.68555   0.69053   0.69816
 Alpha virt. eigenvalues --    0.70315   0.70824   0.71229   0.72449   0.73097
 Alpha virt. eigenvalues --    0.73720   0.73898   0.74714   0.74999   0.75888
 Alpha virt. eigenvalues --    0.76327   0.77148   0.77615   0.78330   0.78471
 Alpha virt. eigenvalues --    0.78688   0.79577   0.80027   0.80954   0.82459
 Alpha virt. eigenvalues --    0.83146   0.83341   0.84587   0.86754   0.87075
 Alpha virt. eigenvalues --    0.88571   0.89871   0.91022   0.91876   0.93075
 Alpha virt. eigenvalues --    0.95067   0.97071   0.98638   1.01990   1.04171
 Alpha virt. eigenvalues --    1.06596   1.08194   1.09324   1.10867   1.13705
 Alpha virt. eigenvalues --    1.14764   1.17530   1.18942   1.23664   1.24356
 Alpha virt. eigenvalues --    1.25035   1.26659   1.29888   1.33400   1.34370
 Alpha virt. eigenvalues --    1.34411   1.37720   1.41347   1.43953   1.46063
 Alpha virt. eigenvalues --    1.55223   1.58547   1.59909   1.60847   1.62046
 Alpha virt. eigenvalues --    1.62374   1.65663   1.66106   1.66661   1.69622
 Alpha virt. eigenvalues --    1.70844   1.73595   1.75476   1.77804   1.79286
 Alpha virt. eigenvalues --    1.80788   1.81434   1.82711   1.83049   1.84092
 Alpha virt. eigenvalues --    1.85130   1.85878   1.86648   1.87510   1.88326
 Alpha virt. eigenvalues --    1.89921   1.91039   1.91940   1.94061   1.94482
 Alpha virt. eigenvalues --    1.96325   1.97099   1.99813   2.01380   2.03648
 Alpha virt. eigenvalues --    2.05162   2.06441   2.07715   2.08849   2.10327
 Alpha virt. eigenvalues --    2.14458   2.15604   2.16625   2.17276   2.18746
 Alpha virt. eigenvalues --    2.21563   2.24217   2.25386   2.29171   2.30505
 Alpha virt. eigenvalues --    2.33343   2.34820   2.35789   2.36343   2.39053
 Alpha virt. eigenvalues --    2.41304   2.42955   2.44757   2.48091   2.48561
 Alpha virt. eigenvalues --    2.49449   2.53021   2.56218   2.57713   2.65205
 Alpha virt. eigenvalues --    2.66243   2.68960   2.70765   2.73320   2.74614
 Alpha virt. eigenvalues --    2.76432   2.78438   2.79048   2.79368   2.81907
 Alpha virt. eigenvalues --    2.82214   2.83686   2.87520   2.92062   2.95174
 Alpha virt. eigenvalues --    2.99505   3.01182   3.02049   3.05199   3.08602
 Alpha virt. eigenvalues --    3.11773   3.13243   3.20364   3.21982   3.25886
 Alpha virt. eigenvalues --    3.27061   3.47912   3.48606   3.70743
          Condensed to atoms (all electrons):
               1          2          3          4          5          6
     1  C    5.082954   0.003630  -0.096520  -0.001390   0.590532  -0.002190
     2  C    0.003630   4.720997  -0.006992   0.630772   0.002698  -0.002708
     3  C   -0.096520  -0.006992   5.193547  -0.004929  -0.006472   0.582258
     4  C   -0.001390   0.630772  -0.004929   5.105653  -0.001382  -0.000416
     5  C    0.590532   0.002698  -0.006472  -0.001382   4.963710   0.274188
     6  C   -0.002190  -0.002708   0.582258  -0.000416   0.274188   4.989785
     7  C    0.010390  -0.001942   0.335305   0.013118   0.009892  -0.060830
     8  H   -0.000614   0.000403  -0.015038  -0.002263   0.000691  -0.015229
     9  H    0.000461  -0.000039  -0.000993   0.000002  -0.000653   0.001645
    10  C    0.000508   0.007619  -0.048555  -0.168762  -0.000433   0.002695
    11  H   -0.000012  -0.000303   0.006405   0.011259   0.000012  -0.000149
    12  H   -0.000014  -0.000361  -0.014639   0.002933   0.000074  -0.000150
    13  C    0.000079  -0.031436  -0.006808   0.269398   0.000025   0.001192
    14  O    0.000001   0.000263  -0.000079  -0.080303  -0.000000  -0.000000
    15  H   -0.000017   0.003508   0.004523   0.370428  -0.000882   0.002618
    16  H    0.000306   0.409464  -0.000199  -0.021247   0.001188  -0.000242
    17  C    0.334756  -0.000082   0.333508   0.003586  -0.091785  -0.109232
    18  H    0.003075   0.000154  -0.000987   0.000157   0.000360   0.000608
    19  H   -0.008189  -0.002555   0.001257  -0.009078   0.001288   0.003294
    20  Cl   0.000388   0.286300   0.000373  -0.086060  -0.000121   0.000069
    21  C    0.403550  -0.000142   0.009070   0.000020  -0.063932   0.010143
    22  H   -0.015864  -0.000548   0.000475   0.000052   0.001565  -0.000372
    23  H   -0.010486  -0.000004  -0.000598   0.000001  -0.012165   0.000429
    24  H   -0.015141   0.000026   0.000581  -0.000005   0.002808  -0.000537
    25  H    0.007431   0.000008  -0.065525  -0.000266  -0.053481   0.442426
    26  H   -0.064380  -0.000019   0.007764   0.000006   0.443963  -0.056679
               7          8          9         10         11         12
     1  C    0.010390  -0.000614   0.000461   0.000508  -0.000012  -0.000014
     2  C   -0.001942   0.000403  -0.000039   0.007619  -0.000303  -0.000361
     3  C    0.335305  -0.015038  -0.000993  -0.048555   0.006405  -0.014639
     4  C    0.013118  -0.002263   0.000002  -0.168762   0.011259   0.002933
     5  C    0.009892   0.000691  -0.000653  -0.000433   0.000012   0.000074
     6  C   -0.060830  -0.015229   0.001645   0.002695  -0.000149  -0.000150
     7  C    4.713831   0.380496   0.341883   0.308153  -0.009187  -0.007479
     8  H    0.380496   0.662644  -0.023270  -0.025901  -0.005169   0.006490
     9  H    0.341883  -0.023270   0.648867  -0.006551  -0.005947  -0.008271
    10  C    0.308153  -0.025901  -0.006551   5.091679   0.340902   0.350441
    11  H   -0.009187  -0.005169  -0.005947   0.340902   0.606612  -0.006042
    12  H   -0.007479   0.006490  -0.008271   0.350441  -0.006042   0.592411
    13  C   -0.035943  -0.007874   0.006606   0.295100  -0.008036  -0.004568
    14  O    0.004655   0.000156  -0.000163  -0.088142   0.007672   0.000911
    15  H    0.000334   0.000408   0.000160  -0.002673  -0.000285   0.000101
    16  H    0.000096   0.000004  -0.000003  -0.000400   0.000009   0.000024
    17  C   -0.079833   0.009920  -0.005794  -0.000303   0.000228   0.006706
    18  H    0.004149  -0.000269   0.001156  -0.001972  -0.000048   0.000643
    19  H   -0.010291  -0.000162   0.000149   0.006373  -0.000087   0.001229
    20  Cl   0.000014  -0.000003   0.000001  -0.002289  -0.000003   0.000856
    21  C   -0.000224   0.000006   0.000010   0.000000  -0.000000   0.000011
    22  H    0.000005  -0.000001   0.000003  -0.000011   0.000000  -0.000012
    23  H    0.000007  -0.000000  -0.000000   0.000000   0.000000  -0.000000
    24  H    0.000014   0.000000  -0.000007   0.000002  -0.000000   0.000003
    25  H   -0.012041   0.004818   0.000307   0.000141  -0.000008   0.000001
    26  H   -0.000312   0.000009   0.000006   0.000006  -0.000000  -0.000000
              13         14         15         16         17         18
     1  C    0.000079   0.000001  -0.000017   0.000306   0.334756   0.003075
     2  C   -0.031436   0.000263   0.003508   0.409464  -0.000082   0.000154
     3  C   -0.006808  -0.000079   0.004523  -0.000199   0.333508  -0.000987
     4  C    0.269398  -0.080303   0.370428  -0.021247   0.003586   0.000157
     5  C    0.000025  -0.000000  -0.000882   0.001188  -0.091785   0.000360
     6  C    0.001192  -0.000000   0.002618  -0.000242  -0.109232   0.000608
     7  C   -0.035943   0.004655   0.000334   0.000096  -0.079833   0.004149
     8  H   -0.007874   0.000156   0.000408   0.000004   0.009920  -0.000269
     9  H    0.006606  -0.000163   0.000160  -0.000003  -0.005794   0.001156
    10  C    0.295100  -0.088142  -0.002673  -0.000400  -0.000303  -0.001972
    11  H   -0.008036   0.007672  -0.000285   0.000009   0.000228  -0.000048
    12  H   -0.004568   0.000911   0.000101   0.000024   0.006706   0.000643
    13  C    4.767518   0.695090  -0.022592   0.006804  -0.004660   0.000266
    14  O    0.695090   7.684133   0.001256  -0.000144   0.000017  -0.000001
    15  H   -0.022592   0.001256   0.568554  -0.010880  -0.000280   0.000001
    16  H    0.006804  -0.000144  -0.010880   0.552851  -0.000185   0.000008
    17  C   -0.004660   0.000017  -0.000280  -0.000185   4.857563   0.333021
    18  H    0.000266  -0.000001   0.000001   0.000008   0.333021   0.610563
    19  H    0.000324  -0.000131   0.000043   0.000181   0.331293  -0.015230
    20  Cl   0.008413  -0.000850   0.003677  -0.037237  -0.006488   0.000014
    21  C   -0.000001  -0.000000   0.000001  -0.000001  -0.066860  -0.000773
    22  H    0.000001   0.000000   0.000000  -0.000105  -0.005862  -0.000082
    23  H   -0.000000   0.000000  -0.000000   0.000002   0.008809  -0.000240
    24  H    0.000000   0.000000  -0.000000   0.000002  -0.005646   0.001957
    25  H   -0.000008   0.000000   0.000672  -0.000006   0.014733  -0.000386
    26  H    0.000001  -0.000000  -0.000003   0.000016   0.015157  -0.000379
              19         20         21         22         23         24
     1  C   -0.008189   0.000388   0.403550  -0.015864  -0.010486  -0.015141
     2  C   -0.002555   0.286300  -0.000142  -0.000548  -0.000004   0.000026
     3  C    0.001257   0.000373   0.009070   0.000475  -0.000598   0.000581
     4  C   -0.009078  -0.086060   0.000020   0.000052   0.000001  -0.000005
     5  C    0.001288  -0.000121  -0.063932   0.001565  -0.012165   0.002808
     6  C    0.003294   0.000069   0.010143  -0.000372   0.000429  -0.000537
     7  C   -0.010291   0.000014  -0.000224   0.000005   0.000007   0.000014
     8  H   -0.000162  -0.000003   0.000006  -0.000001  -0.000000   0.000000
     9  H    0.000149   0.000001   0.000010   0.000003  -0.000000  -0.000007
    10  C    0.006373  -0.002289   0.000000  -0.000011   0.000000   0.000002
    11  H   -0.000087  -0.000003  -0.000000   0.000000   0.000000  -0.000000
    12  H    0.001229   0.000856   0.000011  -0.000012  -0.000000   0.000003
    13  C    0.000324   0.008413  -0.000001   0.000001  -0.000000   0.000000
    14  O   -0.000131  -0.000850  -0.000000   0.000000   0.000000   0.000000
    15  H    0.000043   0.003677   0.000001   0.000000  -0.000000  -0.000000
    16  H    0.000181  -0.037237  -0.000001  -0.000105   0.000002   0.000002
    17  C    0.331293  -0.006488  -0.066860  -0.005862   0.008809  -0.005646
    18  H   -0.015230   0.000014  -0.000773  -0.000082  -0.000240   0.001957
    19  H    0.639786   0.020316  -0.000666   0.003123  -0.000241  -0.000294
    20  Cl   0.020316  16.912698  -0.000884   0.003265   0.000003  -0.000001
    21  C   -0.000666  -0.000884   4.520528   0.380061   0.386431   0.383122
    22  H    0.003123   0.003265   0.380061   0.631299  -0.019742  -0.023134
    23  H   -0.000241   0.000003   0.386431  -0.019742   0.628547  -0.020323
    24  H   -0.000294  -0.000001   0.383122  -0.023134  -0.020323   0.631361
    25  H   -0.000337   0.000001  -0.000293   0.000007   0.000006   0.000005
    26  H   -0.000373  -0.000000  -0.010759   0.000136   0.004509   0.000093
              25         26
     1  C    0.007431  -0.064380
     2  C    0.000008  -0.000019
     3  C   -0.065525   0.007764
     4  C   -0.000266   0.000006
     5  C   -0.053481   0.443963
     6  C    0.442426  -0.056679
     7  C   -0.012041  -0.000312
     8  H    0.004818   0.000009
     9  H    0.000307   0.000006
    10  C    0.000141   0.000006
    11  H   -0.000008  -0.000000
    12  H    0.000001  -0.000000
    13  C   -0.000008   0.000001
    14  O    0.000000  -0.000000
    15  H    0.000672  -0.000003
    16  H   -0.000006   0.000016
    17  C    0.014733   0.015157
    18  H   -0.000386  -0.000379
    19  H   -0.000337  -0.000373
    20  Cl   0.000001  -0.000000
    21  C   -0.000293  -0.010759
    22  H    0.000007   0.000136
    23  H    0.000006   0.004509
    24  H    0.000005   0.000093
    25  H    0.659669  -0.003587
    26  H   -0.003587   0.659187
 Mulliken charges:
               1
     1  C   -0.223244
     2  C   -0.018711
     3  C   -0.206732
     4  C   -0.031285
     5  C   -0.061687
     6  C   -0.062614
     7  C    0.095739
     8  H    0.029747
     9  H    0.050432
    10  C   -0.057627
    11  H    0.062177
    12  H    0.078703
    13  C    0.071105
    14  O   -0.224339
    15  H    0.081328
    16  H    0.099694
    17  C    0.127713
    18  H    0.064234
    19  H    0.038977
    20  Cl  -0.102452
    21  C    0.051582
    22  H    0.045740
    23  H    0.035056
    24  H    0.045114
    25  H    0.005713
    26  H    0.005637
 Sum of Mulliken charges =  -0.00000
 Mulliken charges with hydrogens summed into heavy atoms:
               1
     1  C   -0.223244
     2  C    0.080983
     3  C   -0.206732
     4  C    0.050043
     5  C   -0.056050
     6  C   -0.056901
     7  C    0.175919
    10  C    0.083253
    13  C    0.071105
    14  O   -0.224339
    17  C    0.230924
    20  Cl  -0.102452
    21  C    0.177491
 APT charges:
               1
     1  C    0.049353
     2  C    0.328983
     3  C   -0.049333
     4  C   -0.300545
     5  C   -0.072214
     6  C   -0.042881
     7  C    0.143682
     8  H   -0.030430
     9  H   -0.048487
    10  C   -0.092351
    11  H   -0.008253
    12  H    0.027391
    13  C    0.948486
    14  O   -0.758092
    15  H    0.080406
    16  H    0.061585
    17  C   -0.110771
    18  H    0.043930
    19  H    0.054466
    20  Cl  -0.312020
    21  C    0.053365
    22  H   -0.012405
    23  H   -0.010100
    24  H   -0.022642
    25  H    0.041284
    26  H    0.037594
 Sum of APT charges =   0.00000
 APT charges with hydrogens summed into heavy atoms:
               1
     1  C    0.049353
     2  C    0.390568
     3  C   -0.049333
     4  C   -0.220139
     5  C   -0.034620
     6  C   -0.001598
     7  C    0.064765
    10  C   -0.073213
    13  C    0.948486
    14  O   -0.758092
    17  C   -0.012375
    20  Cl  -0.312020
    21  C    0.008218
 Electronic spatial extent (au):  <R**2>=           2794.9718
 Charge=              0.0000 electrons
 Dipole moment (field-independent basis, Debye):
    X=             -3.0677    Y=             -1.3967    Z=              0.4633  Tot=              3.4024
 Quadrupole moment (field-independent basis, Debye-Ang):
   XX=            -98.8843   YY=            -80.9180   ZZ=            -77.0222
   XY=             -5.4518   XZ=              1.0009   YZ=              0.5644
 Traceless Quadrupole moment (field-independent basis, Debye-Ang):
   XX=            -13.2761   YY=              4.6901   ZZ=              8.5860
   XY=             -5.4518   XZ=              1.0009   YZ=              0.5644
 Octapole moment (field-independent basis, Debye-Ang**2):
  XXX=            -40.8172  YYY=              2.0271  ZZZ=              0.2118  XYY=             11.4304
  XXY=              9.5081  XXZ=              2.6754  XZZ=              2.1607  YZZ=              1.2947
  YYZ=             -0.1866  XYZ=              0.4099
 Hexadecapole moment (field-independent basis, Debye-Ang**3):
 XXXX=          -2235.2944 YYYY=          -1237.3652 ZZZZ=           -396.6057 XXXY=            -27.4755
 XXXZ=             -7.6094 YYYX=            -15.7925 YYYZ=             -1.4784 ZZZX=             -5.8445
 ZZZY=             -0.8622 XXYY=           -546.3454 XXZZ=           -388.6135 YYZZ=           -256.5867
 XXYZ=             -6.4983 YYXZ=             -7.6870 ZZXY=              4.6784
 N-N= 8.733362690001D+02 E-N=-4.003652841998D+03  KE= 9.552501788424D+02
  Exact polarizability:     138.375     -15.984     147.013     -14.440     -10.774     126.688
 Approx polarizability:     131.999      -9.312     144.487     -16.265     -15.211     139.025
   1 Symmetry operations used in ECPInt.
 ECPInt:  NShTT=    7140 NPrTT=   26096 LenC2=    6946 LenP2D=   19115.
 LDataN:  DoStor=T MaxTD1= 6 Len=  172
 D2PCM: PCM CHGder 2nd derivatives, FixD1E=F FixD2E=F DoIter=F DoCFld=F I1PDM=0
 Calling FoFJK, ICntrl=    100127 FMM=F ISym2X=0 I1Cent= 0 IOpClX= 0 NMat=1 NMatS=1 NMatT=0.
 Full mass-weighted force constant matrix:
 Low frequencies ---  -27.8254   -1.8032   -0.0022    0.0017    0.0030    7.4900
 Low frequencies ---    9.9035   35.0470   63.0531
 ******    1 imaginary frequencies (negative Signs) ****** 
 Diagonal vibrational polarizability:
       47.0700465      59.7997569      68.5571379
 Harmonic frequencies (cm**-1), IR intensities (KM/Mole), Raman scattering
 activities (A**4/AMU), depolarization ratios for plane and unpolarized
 incident light, reduced masses (AMU), force constants (mDyne/A),
 and normal coordinates:
                      1                      2                      3
                      A                      A                      A
 Frequencies --    -27.6377                35.0089                63.0332
 Red. masses --      6.2988                 6.9327                 5.3526
 Frc consts  --      0.0028                 0.0050                 0.0125
 IR Inten    --      3.4057                 0.4044                 0.6007
  Atom  AN      X      Y      Z        X      Y      Z        X      Y      Z
     1   6    -0.06  -0.01   0.07    -0.18  -0.10  -0.03     0.07  -0.03   0.06
     2   6    -0.04   0.04  -0.08     0.14   0.07   0.01    -0.12   0.10  -0.11
     3   6     0.00   0.04  -0.06    -0.04   0.02   0.04    -0.02  -0.12  -0.03
     4   6    -0.03   0.05   0.02     0.04   0.04  -0.02    -0.21   0.07  -0.07
     5   6     0.00  -0.06   0.05    -0.16  -0.10  -0.03     0.02  -0.10   0.01
     6   6     0.04  -0.04  -0.03    -0.07  -0.02   0.02    -0.04  -0.16  -0.05
     7   6     0.02   0.09  -0.16    -0.02   0.04   0.05    -0.01  -0.11  -0.03
     8   1     0.03  -0.01  -0.22     0.01   0.07   0.06    -0.04  -0.13  -0.03
     9   1     0.03   0.17  -0.24    -0.03   0.01   0.08     0.03  -0.09  -0.06
    10   6     0.01   0.17  -0.08    -0.04   0.03  -0.01    -0.00  -0.07   0.04
    11   1    -0.00   0.21  -0.23    -0.06   0.03  -0.05     0.06  -0.04   0.14
    12   1    -0.02   0.35   0.03    -0.09   0.05   0.01     0.04  -0.13  -0.00
    13   6     0.05  -0.01   0.11     0.01   0.02  -0.03    -0.12   0.03   0.02
    14   8     0.14  -0.19   0.34     0.01  -0.01  -0.06    -0.13   0.09   0.06
    15   1    -0.04   0.10   0.05    -0.05   0.03  -0.06    -0.38   0.09  -0.12
    16   1    -0.08   0.10  -0.14     0.15   0.09   0.00    -0.19   0.13  -0.17
    17   6    -0.07   0.07   0.00    -0.08  -0.01   0.02     0.02  -0.07   0.01
    18   1    -0.09   0.10  -0.00     0.01  -0.02  -0.01    -0.05  -0.03   0.02
    19   1    -0.10   0.10   0.01    -0.12   0.06   0.09     0.05  -0.11  -0.02
    20  17     0.02  -0.05  -0.15     0.28   0.09   0.06     0.14   0.11  -0.04
    21   6    -0.13  -0.01   0.15    -0.28  -0.19  -0.08     0.17   0.07   0.16
    22   1    -0.16   0.02   0.14    -0.37  -0.12  -0.10     0.25   0.02   0.23
    23   1    -0.10  -0.06   0.19    -0.33  -0.24  -0.11     0.20   0.08   0.18
    24   1    -0.16   0.01   0.16    -0.25  -0.26  -0.08     0.17   0.19   0.14
    25   1     0.09  -0.08  -0.07    -0.06  -0.02   0.02    -0.08  -0.21  -0.08
    26   1     0.02  -0.12   0.09    -0.20  -0.15  -0.06     0.03  -0.10   0.03
                      4                      5                      6
                      A                      A                      A
 Frequencies --     89.8023               125.0319               162.7668
 Red. masses --      3.2246                10.2624                 1.1090
 Frc consts  --      0.0153                 0.0945                 0.0173
 IR Inten    --      2.6622                 1.0494                 0.0364
  Atom  AN      X      Y      Z        X      Y      Z        X      Y      Z
     1   6     0.03  -0.00  -0.01     0.02  -0.05  -0.02    -0.02  -0.02  -0.01
     2   6    -0.08  -0.02  -0.01     0.05   0.07  -0.07    -0.02  -0.01  -0.00
     3   6     0.00  -0.02  -0.04    -0.01  -0.07   0.07     0.01   0.00   0.01
     4   6    -0.10  -0.02  -0.03     0.07   0.08  -0.19    -0.02  -0.01  -0.00
     5   6     0.18   0.13   0.09    -0.04  -0.03  -0.02     0.02   0.02   0.02
     6   6     0.16   0.11   0.07    -0.05  -0.04   0.04     0.04   0.03   0.03
     7   6    -0.02  -0.04  -0.08    -0.01  -0.05   0.08     0.00   0.00  -0.01
     8   1    -0.03  -0.07  -0.10     0.10   0.03   0.10     0.01   0.00  -0.01
     9   1    -0.02   0.00  -0.11    -0.04  -0.13   0.16    -0.01   0.01  -0.01
    10   6    -0.01  -0.02  -0.04    -0.09  -0.03  -0.09    -0.01   0.01  -0.02
    11   1     0.01  -0.00  -0.02    -0.13  -0.01  -0.25    -0.01   0.02  -0.03
    12   1     0.01  -0.01  -0.04    -0.25   0.02  -0.03    -0.02   0.03  -0.01
    13   6    -0.05  -0.02   0.00     0.04  -0.10  -0.11    -0.01   0.00  -0.00
    14   8    -0.04  -0.02   0.06     0.16  -0.43   0.06    -0.01   0.01   0.01
    15   1    -0.15  -0.04  -0.07     0.10   0.09  -0.16    -0.02  -0.01  -0.01
    16   1    -0.12  -0.04  -0.02     0.11  -0.05   0.04    -0.03  -0.01  -0.01
    17   6    -0.08  -0.10  -0.09     0.03  -0.09   0.04    -0.03  -0.03  -0.02
    18   1    -0.19  -0.15  -0.03     0.04  -0.11   0.04    -0.05  -0.06   0.01
    19   1    -0.08  -0.13  -0.21     0.04  -0.10   0.03    -0.04  -0.03  -0.06
    20  17     0.03   0.04   0.07    -0.13   0.31   0.09     0.01  -0.01   0.00
    21   6    -0.06  -0.08  -0.07     0.13  -0.00  -0.06     0.01  -0.00  -0.01
    22   1    -0.08  -0.11  -0.37     0.19  -0.02   0.09    -0.07   0.16   0.54
    23   1     0.09   0.05   0.04     0.04  -0.01  -0.16    -0.35  -0.31  -0.27
    24   1    -0.27  -0.25   0.06     0.28   0.06  -0.14     0.49   0.19  -0.27
    25   1     0.27   0.21   0.14    -0.10  -0.03   0.06     0.07   0.06   0.05
    26   1     0.29   0.23   0.17    -0.06   0.00  -0.04     0.03   0.03   0.02
                      7                      8                      9
                      A                      A                      A
 Frequencies --    171.0385               196.0716               205.1964
 Red. masses --      2.7068                 3.5414                 2.9998
 Frc consts  --      0.0467                 0.0802                 0.0744
 IR Inten    --      0.8318                 6.5719                 0.2464
  Atom  AN      X      Y      Z        X      Y      Z        X      Y      Z
     1   6     0.02  -0.05  -0.01    -0.05  -0.05  -0.05     0.10   0.04   0.05
     2   6     0.03   0.02   0.06     0.23   0.13   0.13     0.10   0.08   0.07
     3   6    -0.03  -0.07   0.06    -0.07  -0.07  -0.10     0.05   0.01   0.02
     4   6    -0.01   0.01   0.05     0.11   0.09   0.12    -0.06   0.03   0.03
     5   6    -0.01  -0.00   0.01     0.03  -0.00  -0.01     0.06   0.01   0.02
     6   6    -0.03  -0.03   0.05     0.02  -0.02  -0.04     0.03  -0.02   0.00
     7   6     0.03   0.02   0.01    -0.06  -0.06  -0.08    -0.05  -0.06  -0.10
     8   1     0.19   0.07   0.00    -0.15  -0.13  -0.10    -0.06  -0.18  -0.17
     9   1     0.05  -0.03   0.06     0.02   0.01  -0.17    -0.12   0.05  -0.18
    10   6    -0.13   0.20  -0.13    -0.01  -0.03   0.08    -0.05  -0.03  -0.04
    11   1    -0.12   0.31  -0.41     0.02  -0.03   0.17    -0.01   0.00  -0.02
    12   1    -0.35   0.36   0.02     0.10  -0.05   0.05    -0.04  -0.02  -0.04
    13   6    -0.06   0.06  -0.02    -0.02   0.00   0.07    -0.12  -0.03   0.00
    14   8    -0.04   0.02   0.01    -0.03  -0.00  -0.00    -0.12  -0.03   0.03
    15   1     0.05   0.00   0.06     0.23   0.16   0.22     0.01   0.07   0.08
    16   1     0.08   0.07   0.07     0.46   0.22   0.23     0.28   0.16   0.15
    17   6    -0.01  -0.10   0.02    -0.12  -0.11  -0.12     0.17   0.11   0.10
    18   1    -0.00  -0.12   0.03    -0.19  -0.12  -0.09     0.30   0.25   0.00
    19   1    -0.00  -0.11   0.02    -0.12  -0.13  -0.17     0.20   0.14   0.30
    20  17     0.03  -0.05  -0.00    -0.03   0.02  -0.03    -0.02   0.01  -0.03
    21   6     0.14  -0.01  -0.08     0.02   0.04   0.05    -0.04  -0.10  -0.08
    22   1     0.25  -0.12  -0.19     0.09  -0.00   0.13    -0.19   0.02  -0.07
    23   1     0.22   0.17  -0.09     0.06   0.03   0.09    -0.18  -0.21  -0.19
    24   1     0.08  -0.04  -0.05     0.01   0.17   0.04     0.10  -0.26  -0.12
    25   1    -0.04   0.01   0.08     0.09   0.02  -0.02    -0.04  -0.10  -0.05
    26   1     0.00   0.05   0.01     0.12   0.06   0.06    -0.00  -0.05  -0.02
                     10                     11                     12
                      A                      A                      A
 Frequencies --    276.6161               307.1481               347.7025
 Red. masses --      2.4301                 3.3997                 2.7232
 Frc consts  --      0.1096                 0.1890                 0.1940
 IR Inten    --      0.8062                 3.2030                 5.9288
  Atom  AN      X      Y      Z        X      Y      Z        X      Y      Z
     1   6     0.02  -0.01  -0.08     0.16   0.12   0.04     0.04   0.10   0.13
     2   6     0.05   0.02   0.05    -0.08  -0.00  -0.03     0.12  -0.00   0.03
     3   6     0.05   0.02  -0.04    -0.12  -0.14  -0.10    -0.05  -0.02  -0.05
     4   6    -0.08  -0.01  -0.03     0.09   0.05   0.08    -0.05  -0.05  -0.10
     5   6     0.04   0.00  -0.08     0.12   0.10   0.02     0.00   0.02   0.09
     6   6     0.05   0.04  -0.05    -0.10  -0.09  -0.10    -0.08  -0.08  -0.06
     7   6     0.08  -0.01   0.16    -0.00  -0.06   0.07     0.05   0.04   0.04
     8   1     0.18   0.30   0.33     0.01   0.07   0.14     0.09   0.22   0.15
     9   1     0.11  -0.27   0.41     0.18  -0.18   0.11     0.10  -0.13   0.19
    10   6    -0.04  -0.01  -0.06    -0.07   0.08   0.07     0.07  -0.04  -0.06
    11   1    -0.01   0.04  -0.11    -0.07   0.15  -0.11     0.06  -0.11   0.09
    12   1    -0.18  -0.05  -0.05    -0.20   0.18   0.16     0.13  -0.18  -0.15
    13   6    -0.08  -0.01  -0.05     0.05   0.03   0.06     0.00   0.02  -0.08
    14   8    -0.06  -0.03   0.05     0.04  -0.03  -0.09     0.02   0.07   0.11
    15   1    -0.01  -0.01  -0.00     0.05   0.04   0.06    -0.00  -0.07  -0.10
    16   1     0.20   0.07   0.12    -0.24  -0.04  -0.12     0.29   0.03   0.14
    17   6     0.05   0.00  -0.08     0.03  -0.01  -0.04    -0.10   0.01   0.02
    18   1     0.09  -0.00  -0.09    -0.08   0.12  -0.05    -0.39  -0.03   0.13
    19   1     0.05   0.02  -0.06     0.15  -0.14  -0.03    -0.09  -0.09  -0.25
    20  17    -0.01  -0.02   0.00     0.01   0.01   0.00    -0.01  -0.01  -0.00
    21   6    -0.08   0.03   0.12    -0.09  -0.04   0.02     0.01  -0.00  -0.08
    22   1    -0.15   0.09   0.16    -0.34   0.18   0.03    -0.04   0.03  -0.15
    23   1    -0.00  -0.13   0.28    -0.22  -0.27  -0.01    -0.11   0.05  -0.25
    24   1    -0.20   0.16   0.15    -0.01  -0.19   0.01     0.15  -0.23  -0.10
    25   1     0.08   0.08  -0.02    -0.16  -0.13  -0.12    -0.11  -0.14  -0.11
    26   1     0.04   0.02  -0.09     0.14   0.14   0.03     0.00  -0.04   0.11
                     13                     14                     15
                      A                      A                      A
 Frequencies --    387.0894               404.4649               434.6155
 Red. masses --      2.0183                 2.3056                 3.8636
 Frc consts  --      0.1782                 0.2222                 0.4300
 IR Inten    --     13.9308                 7.4998                 6.3242
  Atom  AN      X      Y      Z        X      Y      Z        X      Y      Z
     1   6     0.10   0.05  -0.05    -0.06  -0.04  -0.07     0.00  -0.02  -0.04
     2   6     0.04  -0.01  -0.01     0.08  -0.05  -0.03    -0.12   0.14   0.13
     3   6     0.04  -0.00   0.14    -0.12  -0.13  -0.01    -0.05  -0.06   0.03
     4   6    -0.00  -0.03  -0.03    -0.00  -0.07  -0.07    -0.05   0.18  -0.11
     5   6    -0.03   0.05  -0.08     0.02   0.09   0.02     0.01   0.05  -0.00
     6   6    -0.09   0.01   0.05    -0.06   0.02   0.04    -0.05  -0.00   0.04
     7   6    -0.01  -0.02  -0.06    -0.01  -0.05  -0.01    -0.00   0.02  -0.04
     8   1     0.01  -0.23  -0.20     0.02  -0.06  -0.02     0.01  -0.05  -0.09
     9   1    -0.12   0.18  -0.20     0.06  -0.06  -0.03     0.03   0.08  -0.11
    10   6     0.02   0.00  -0.03     0.02  -0.01  -0.03     0.05   0.01  -0.00
    11   1     0.00  -0.00  -0.07    -0.02  -0.03  -0.09     0.13  -0.08   0.46
    12   1     0.02   0.04  -0.01    -0.01   0.03  -0.00     0.27  -0.36  -0.26
    13   6     0.02  -0.01  -0.01     0.06  -0.01  -0.02    -0.02   0.20  -0.16
    14   8     0.01   0.05   0.04     0.04   0.11   0.09     0.09  -0.11  -0.03
    15   1    -0.00  -0.02  -0.02    -0.05  -0.08  -0.09     0.11  -0.00  -0.18
    16   1     0.08  -0.01   0.02     0.09  -0.07  -0.01    -0.06   0.14   0.18
    17   6     0.05  -0.10   0.01     0.02  -0.03   0.04     0.02  -0.05   0.02
    18   1    -0.16  -0.39   0.19     0.44   0.29  -0.23     0.18   0.04  -0.06
    19   1     0.07  -0.23  -0.36     0.11   0.05   0.58     0.08  -0.05   0.20
    20  17    -0.00   0.01  -0.00    -0.01   0.02  -0.01     0.02  -0.11   0.04
    21   6    -0.06   0.01   0.06    -0.03   0.02   0.02    -0.01  -0.00   0.02
    22   1    -0.22   0.14   0.06     0.00   0.01   0.09    -0.03   0.02   0.05
    23   1    -0.04  -0.18   0.18     0.01  -0.01   0.07     0.01  -0.06   0.07
    24   1    -0.15   0.03   0.10    -0.06   0.14   0.01    -0.05   0.05   0.02
    25   1    -0.27  -0.01   0.05    -0.04   0.12   0.13    -0.08   0.04   0.07
    26   1    -0.13   0.08  -0.19     0.13   0.24   0.08     0.04   0.14  -0.00
                     16                     17                     18
                      A                      A                      A
 Frequencies --    538.1002               544.7085               554.1498
 Red. masses --      2.5208                 2.4945                 3.4692
 Frc consts  --      0.4301                 0.4361                 0.6277
 IR Inten    --      3.5761                14.3373                 4.4525
  Atom  AN      X      Y      Z        X      Y      Z        X      Y      Z
     1   6     0.08   0.09   0.07     0.00   0.06   0.02    -0.13   0.08   0.00
     2   6     0.01   0.02   0.01    -0.08  -0.05  -0.04    -0.00   0.07   0.05
     3   6    -0.07  -0.09  -0.07    -0.03  -0.09   0.00     0.11  -0.08   0.04
     4   6    -0.00   0.02  -0.07     0.10  -0.01   0.16    -0.09   0.04  -0.01
     5   6    -0.12  -0.11  -0.08    -0.06  -0.01  -0.02    -0.00   0.03   0.02
     6   6     0.13   0.12   0.07     0.01   0.03   0.05     0.01  -0.02  -0.02
     7   6    -0.04  -0.09   0.00     0.09   0.00  -0.06     0.18  -0.18  -0.02
     8   1    -0.10  -0.11   0.01     0.26   0.17   0.00     0.19  -0.26  -0.07
     9   1     0.04  -0.08  -0.04     0.09  -0.17   0.11     0.18  -0.11  -0.09
    10   6    -0.04  -0.01   0.04     0.06  -0.02  -0.15     0.10  -0.02   0.01
    11   1    -0.04   0.04  -0.13     0.14  -0.08   0.25     0.18   0.18  -0.35
    12   1    -0.16   0.05   0.10     0.30  -0.24  -0.33    -0.15   0.23   0.22
    13   6     0.04   0.03  -0.02    -0.08  -0.01  -0.01     0.02  -0.04   0.05
    14   8     0.05   0.04   0.02    -0.08  -0.03   0.02    -0.00  -0.04  -0.08
    15   1    -0.03  -0.03  -0.11     0.36   0.10   0.34    -0.21   0.04  -0.06
    16   1     0.00  -0.01   0.02    -0.04   0.01  -0.04    -0.02   0.08   0.04
    17   6    -0.00   0.01   0.00    -0.01  -0.04   0.05    -0.04  -0.00   0.08
    18   1    -0.20   0.22  -0.01    -0.01   0.07   0.01    -0.03  -0.05   0.09
    19   1     0.14  -0.16  -0.00     0.08  -0.12   0.11    -0.10   0.05   0.02
    20  17    -0.00  -0.02   0.01     0.02   0.04  -0.01    -0.01  -0.02   0.01
    21   6     0.00   0.03  -0.00    -0.03   0.06  -0.02    -0.11   0.19  -0.08
    22   1    -0.07   0.07  -0.07    -0.06   0.08  -0.03    -0.06   0.14  -0.08
    23   1    -0.03   0.02  -0.03    -0.04   0.05  -0.02    -0.13   0.27  -0.13
    24   1     0.02  -0.10   0.01    -0.03   0.03  -0.01    -0.09   0.19  -0.10
    25   1     0.36   0.33   0.23     0.05   0.15   0.15    -0.13  -0.03  -0.01
    26   1    -0.36  -0.35  -0.24    -0.12  -0.06  -0.06     0.07  -0.05   0.12
                     19                     20                     21
                      A                      A                      A
 Frequencies --    577.1620               667.5414               704.7783
 Red. masses --      3.0030                 3.6202                 1.8121
 Frc consts  --      0.5894                 0.9505                 0.5303
 IR Inten    --      7.4788                 1.3384                20.9219
  Atom  AN      X      Y      Z        X      Y      Z        X      Y      Z
     1   6     0.06   0.01   0.01    -0.04   0.05  -0.03     0.01  -0.00   0.02
     2   6     0.12   0.00   0.03     0.09  -0.11  -0.06    -0.05  -0.06  -0.10
     3   6    -0.08  -0.04  -0.02     0.02  -0.03   0.03     0.00  -0.01  -0.01
     4   6    -0.16  -0.09   0.02     0.05  -0.10  -0.03    -0.03  -0.03  -0.09
     5   6    -0.04   0.00  -0.02     0.13  -0.10  -0.04    -0.04   0.03   0.01
     6   6    -0.02   0.02   0.04     0.10  -0.13   0.04    -0.03   0.03  -0.03
     7   6     0.08   0.17  -0.03    -0.04   0.05   0.05     0.07   0.01   0.02
     8   1     0.14   0.19  -0.04    -0.10  -0.09  -0.03    -0.03  -0.17  -0.07
     9   1     0.18   0.13  -0.02     0.03   0.18  -0.11     0.16   0.17  -0.17
    10   6     0.09   0.11   0.05    -0.10   0.13   0.13     0.05   0.06   0.12
    11   1     0.07   0.03   0.21    -0.03   0.08   0.48     0.10   0.16  -0.01
    12   1     0.34   0.13   0.00     0.02  -0.20  -0.07    -0.05   0.13   0.19
    13   6    -0.00  -0.05   0.10    -0.09   0.14  -0.06    -0.06   0.01  -0.02
    14   8    -0.03  -0.10  -0.13    -0.02  -0.04   0.04    -0.05  -0.03  -0.01
    15   1    -0.60  -0.10  -0.16    -0.04  -0.22  -0.16     0.59   0.06   0.20
    16   1    -0.02   0.00  -0.06    -0.01  -0.17  -0.10     0.50   0.07   0.21
    17   6    -0.00  -0.04   0.00     0.02  -0.03   0.03    -0.01   0.00  -0.01
    18   1     0.03   0.09  -0.06     0.09  -0.13   0.04    -0.02   0.08  -0.04
    19   1     0.11  -0.13   0.13     0.07  -0.10   0.00    -0.03   0.04   0.03
    20  17    -0.02   0.01  -0.02    -0.00   0.02  -0.01     0.01  -0.00   0.02
    21   6     0.02  -0.03   0.02    -0.09   0.17  -0.08     0.02  -0.03   0.02
    22   1    -0.03   0.01   0.01    -0.09   0.17  -0.08     0.01  -0.03   0.01
    23   1     0.02  -0.09   0.04    -0.10   0.21  -0.10     0.01  -0.04   0.02
    24   1     0.01  -0.06   0.03    -0.10   0.19  -0.09     0.03  -0.05   0.02
    25   1     0.10   0.16   0.15     0.12  -0.16   0.02    -0.00   0.08   0.01
    26   1    -0.09   0.02  -0.08     0.16  -0.21   0.03    -0.03   0.06   0.01
                     22                     23                     24
                      A                      A                      A
 Frequencies --    711.6652               729.2990               811.5407
 Red. masses --      2.9311                 4.6598                 1.7935
 Frc consts  --      0.8746                 1.4602                 0.6959
 IR Inten    --     26.4932                42.8777                 1.2543
  Atom  AN      X      Y      Z        X      Y      Z        X      Y      Z
     1   6     0.03   0.04  -0.02     0.01   0.01  -0.00     0.05   0.05   0.04
     2   6    -0.07   0.08  -0.07    -0.17  -0.10   0.31     0.01   0.00   0.05
     3   6    -0.06   0.01   0.03    -0.02   0.01   0.01     0.05   0.05   0.04
     4   6    -0.05   0.08  -0.07    -0.18  -0.15   0.11     0.07   0.02   0.01
     5   6     0.09  -0.09  -0.04     0.03  -0.03  -0.01    -0.05  -0.04  -0.03
     6   6     0.03  -0.13   0.07     0.01  -0.04   0.02    -0.05  -0.05  -0.04
     7   6    -0.06   0.17  -0.00    -0.05   0.01   0.04     0.05   0.04   0.06
     8   1    -0.04   0.23   0.03    -0.13  -0.08  -0.00    -0.05  -0.24  -0.09
     9   1    -0.14   0.11   0.09    -0.08   0.10  -0.04    -0.11   0.30  -0.13
    10   6     0.01  -0.06  -0.03     0.00  -0.03   0.00     0.03  -0.05  -0.01
    11   1    -0.20  -0.21  -0.22    -0.08  -0.07  -0.13     0.04   0.01  -0.15
    12   1     0.09   0.20   0.09    -0.12  -0.02   0.04    -0.17  -0.02   0.06
    13   6     0.07  -0.16   0.06     0.09   0.03  -0.07    -0.04  -0.01  -0.04
    14   8    -0.00   0.04  -0.02     0.12   0.00  -0.05    -0.04  -0.01   0.03
    15   1     0.28   0.30   0.22     0.38  -0.32   0.21    -0.07  -0.06  -0.11
    16   1     0.29   0.17   0.14     0.27   0.19   0.47    -0.27  -0.10  -0.08
    17   6    -0.01  -0.05   0.00    -0.01  -0.01  -0.02    -0.08  -0.06  -0.08
    18   1     0.14  -0.03  -0.06     0.03  -0.00  -0.03     0.16   0.16  -0.25
    19   1     0.12  -0.15   0.14     0.02  -0.02   0.03    -0.05   0.02   0.27
    20  17     0.00  -0.04   0.04     0.04   0.10  -0.12     0.00   0.00  -0.01
    21   6    -0.04   0.09  -0.05    -0.01   0.03  -0.01     0.02   0.02   0.02
    22   1    -0.10   0.14  -0.06    -0.03   0.04  -0.02    -0.14   0.13  -0.12
    23   1    -0.06   0.06  -0.05    -0.02   0.02  -0.02    -0.08  -0.05  -0.06
    24   1    -0.05   0.07  -0.04    -0.01   0.01  -0.01     0.06  -0.23   0.05
    25   1     0.18  -0.04   0.13     0.07  -0.01   0.03     0.25   0.23   0.16
    26   1     0.13  -0.07  -0.01     0.05  -0.03   0.00     0.23   0.21   0.17
                     25                     26                     27
                      A                      A                      A
 Frequencies --    854.5562               884.7623               895.6049
 Red. masses --      2.6860                 2.4899                 1.9608
 Frc consts  --      1.1557                 1.1484                 0.9266
 IR Inten    --     36.5533                 4.7680                 5.0868
  Atom  AN      X      Y      Z        X      Y      Z        X      Y      Z
     1   6    -0.02  -0.02  -0.04     0.01  -0.00  -0.05    -0.03  -0.02   0.04
     2   6    -0.04  -0.02   0.17     0.03   0.02  -0.07     0.01   0.02  -0.02
     3   6    -0.07  -0.03  -0.03    -0.07  -0.02   0.05     0.01  -0.01  -0.05
     4   6     0.15   0.05  -0.13    -0.04  -0.01   0.09    -0.02   0.00   0.05
     5   6     0.07   0.04   0.01     0.13   0.02  -0.04     0.00   0.08   0.14
     6   6     0.01  -0.01   0.04    -0.03  -0.11   0.12    -0.03   0.02  -0.11
     7   6     0.04   0.09  -0.02     0.05  -0.01   0.08     0.03   0.07   0.07
     8   1    -0.01   0.08  -0.00    -0.03  -0.29  -0.08    -0.09  -0.21  -0.08
     9   1     0.13   0.06  -0.03    -0.03   0.22  -0.13    -0.05   0.32  -0.15
    10   6     0.06  -0.04   0.06     0.06  -0.04  -0.05    -0.01  -0.03  -0.03
    11   1     0.02   0.01  -0.19     0.10   0.03  -0.12    -0.09  -0.09  -0.07
    12   1    -0.00   0.23   0.21    -0.18  -0.13  -0.04    -0.14  -0.12  -0.05
    13   6    -0.07  -0.09  -0.02    -0.01   0.04  -0.05     0.01  -0.01  -0.04
    14   8    -0.11  -0.00   0.04     0.02  -0.01  -0.01     0.01   0.00   0.00
    15   1     0.16  -0.18  -0.29    -0.13   0.08   0.12    -0.08   0.06   0.07
    16   1    -0.39  -0.28   0.07     0.02   0.11  -0.12    -0.01   0.06  -0.06
    17   6     0.01   0.04   0.05    -0.08   0.16  -0.08     0.11  -0.09  -0.03
    18   1    -0.15  -0.01   0.12    -0.27   0.31  -0.07     0.11  -0.10  -0.02
    19   1     0.04  -0.04  -0.10    -0.10   0.18  -0.11     0.22  -0.22  -0.02
    20  17     0.01   0.02  -0.04    -0.01  -0.01   0.02    -0.00  -0.00   0.01
    21   6    -0.01  -0.02  -0.02     0.01  -0.05  -0.01    -0.06   0.02  -0.01
    22   1     0.10  -0.10   0.10     0.12  -0.13   0.09     0.11  -0.11   0.07
    23   1     0.08   0.01   0.07     0.08   0.00   0.05    -0.00   0.18  -0.03
    24   1    -0.06   0.19  -0.04    -0.00   0.12  -0.03    -0.02   0.17  -0.06
    25   1    -0.09  -0.09  -0.01    -0.02   0.04   0.24     0.26   0.13  -0.06
    26   1    -0.26  -0.20  -0.23    -0.25  -0.13  -0.37    -0.39  -0.43  -0.08
                     28                     29                     30
                      A                      A                      A
 Frequencies --    912.6224               923.2256               943.6269
 Red. masses --      1.4354                 2.8785                 1.8194
 Frc consts  --      0.7044                 1.4456                 0.9545
 IR Inten    --     28.1652                 4.0771                 5.2438
  Atom  AN      X      Y      Z        X      Y      Z        X      Y      Z
     1   6    -0.03  -0.02  -0.03     0.02   0.04  -0.04     0.01   0.01   0.01
     2   6    -0.00   0.00   0.00     0.01   0.00  -0.02    -0.01  -0.02   0.03
     3   6    -0.01  -0.03  -0.02     0.07   0.01  -0.03     0.08   0.05   0.07
     4   6     0.00   0.00   0.00    -0.02  -0.01   0.03     0.01   0.00  -0.07
     5   6    -0.00  -0.01  -0.04     0.10   0.04  -0.08     0.06   0.06   0.04
     6   6    -0.06  -0.05  -0.07     0.03   0.05  -0.13    -0.08  -0.08  -0.04
     7   6     0.00   0.01  -0.00    -0.00   0.04   0.01    -0.02  -0.08  -0.06
     8   1    -0.02  -0.02  -0.01    -0.12   0.02   0.02     0.20   0.13   0.02
     9   1     0.01   0.02  -0.02    -0.03   0.09  -0.02    -0.11  -0.25   0.14
    10   6    -0.02  -0.00   0.00    -0.03  -0.03   0.01    -0.06   0.05   0.01
    11   1    -0.04  -0.03   0.01    -0.08  -0.06  -0.02     0.01   0.05   0.22
    12   1    -0.02  -0.03  -0.01    -0.12  -0.08   0.01     0.23   0.07  -0.05
    13   6     0.00  -0.01  -0.00     0.00   0.02  -0.02     0.02  -0.01   0.07
    14   8     0.00   0.00   0.00     0.02   0.00   0.00     0.00   0.01  -0.01
    15   1    -0.01   0.00   0.00    -0.04   0.02   0.04     0.08  -0.04  -0.08
    16   1    -0.00   0.01  -0.00     0.01   0.04  -0.04     0.06  -0.07   0.10
    17   6     0.06   0.07   0.12    -0.19  -0.10   0.24    -0.05  -0.01  -0.06
    18   1    -0.23  -0.10   0.28    -0.09   0.12   0.13     0.10   0.06  -0.14
    19   1     0.02  -0.01  -0.24    -0.23  -0.00   0.44    -0.09   0.10   0.10
    20  17     0.00   0.00  -0.00    -0.00  -0.00   0.00     0.00   0.00  -0.01
    21   6    -0.00  -0.03  -0.02     0.07  -0.04  -0.03    -0.00  -0.00   0.01
    22   1     0.05  -0.06   0.07    -0.11   0.12   0.08     0.03  -0.03  -0.00
    23   1     0.05  -0.05   0.06     0.16  -0.36   0.23    -0.01   0.05  -0.02
    24   1    -0.05   0.11  -0.02    -0.14   0.07   0.05     0.04  -0.03  -0.00
    25   1     0.46   0.49   0.32    -0.13   0.06  -0.12     0.30   0.36   0.28
    26   1     0.29   0.23   0.18    -0.14  -0.34  -0.21    -0.35  -0.28  -0.26
                     31                     32                     33
                      A                      A                      A
 Frequencies --    956.4376               960.4062               991.7130
 Red. masses --      1.8284                 1.3649                 1.5679
 Frc consts  --      0.9855                 0.7418                 0.9085
 IR Inten    --      8.4924                 8.0322                 0.8009
  Atom  AN      X      Y      Z        X      Y      Z        X      Y      Z
     1   6     0.02  -0.01  -0.00     0.01  -0.00  -0.00    -0.04   0.04   0.00
     2   6     0.07   0.00  -0.03    -0.09  -0.04  -0.04     0.00  -0.00  -0.01
     3   6    -0.03   0.07  -0.01    -0.01   0.03  -0.01    -0.01  -0.01   0.01
     4   6    -0.05  -0.03   0.03     0.10   0.02   0.05     0.00  -0.00   0.01
     5   6    -0.01   0.01   0.04    -0.01   0.00   0.01     0.10  -0.04  -0.09
     6   6    -0.02  -0.05   0.01    -0.00  -0.02   0.01    -0.03   0.06  -0.03
     7   6    -0.08  -0.02  -0.06    -0.02   0.00  -0.02    -0.03   0.01  -0.01
     8   1    -0.27   0.25   0.16    -0.09   0.07   0.05    -0.09   0.07   0.04
     9   1    -0.13  -0.23   0.17    -0.05  -0.06   0.06    -0.05  -0.03   0.04
    10   6     0.14  -0.05   0.02     0.05  -0.02   0.00     0.04  -0.02   0.00
    11   1     0.29   0.23  -0.30     0.10   0.08  -0.12     0.06   0.04  -0.09
    12   1    -0.07   0.19   0.20    -0.04   0.07   0.07    -0.01   0.06   0.06
    13   6    -0.04   0.11  -0.03    -0.02   0.03  -0.01    -0.01   0.03  -0.01
    14   8     0.00  -0.03  -0.00    -0.01  -0.01   0.01    -0.00  -0.01   0.00
    15   1     0.25  -0.04   0.13    -0.56  -0.15  -0.33    -0.01  -0.03  -0.01
    16   1    -0.25  -0.04  -0.23     0.56   0.17   0.30     0.01   0.01  -0.02
    17   6     0.01  -0.04   0.02     0.00  -0.01   0.01    -0.00  -0.01   0.02
    18   1     0.14  -0.16   0.03     0.04  -0.05   0.01     0.11  -0.14   0.03
    19   1     0.06  -0.09   0.04     0.02  -0.03   0.02     0.10  -0.12   0.03
    20  17    -0.00  -0.00   0.01     0.00   0.00  -0.00    -0.00   0.00   0.00
    21   6     0.01   0.02  -0.02     0.00   0.01  -0.01    -0.05  -0.03   0.11
    22   1    -0.07   0.08   0.00    -0.02   0.03   0.01     0.24  -0.31  -0.08
    23   1     0.03  -0.07   0.04     0.01  -0.03   0.02    -0.17   0.39  -0.25
    24   1    -0.07   0.05   0.00    -0.03   0.02   0.00     0.32  -0.26  -0.02
    25   1     0.25  -0.00   0.03     0.09  -0.01   0.01    -0.34   0.27   0.14
    26   1    -0.11   0.01  -0.06    -0.04   0.01  -0.02     0.16  -0.21   0.01
                     34                     35                     36
                      A                      A                      A
 Frequencies --   1033.8221              1043.7926              1067.3505
 Red. masses --      1.4226                 1.4049                 2.1309
 Frc consts  --      0.8958                 0.9018                 1.4303
 IR Inten    --     12.0302                 4.4834                 4.3011
  Atom  AN      X      Y      Z        X      Y      Z        X      Y      Z
     1   6    -0.02   0.01  -0.02     0.06   0.06   0.04    -0.04  -0.02  -0.03
     2   6     0.00   0.00  -0.00     0.00  -0.00   0.00    -0.01  -0.01   0.02
     3   6     0.01  -0.00  -0.02     0.04   0.03   0.02    -0.05  -0.00  -0.03
     4   6    -0.01  -0.00   0.01    -0.00   0.00  -0.02     0.01   0.01  -0.06
     5   6    -0.04   0.09  -0.04    -0.04  -0.00  -0.04     0.02   0.02  -0.02
     6   6     0.06  -0.07   0.01     0.02  -0.02  -0.01     0.03   0.01  -0.03
     7   6     0.04   0.02  -0.03    -0.02  -0.02   0.01    -0.08  -0.07   0.16
     8   1     0.01   0.05  -0.01     0.01  -0.02   0.01    -0.20  -0.32   0.03
     9   1     0.16  -0.02  -0.04    -0.17   0.01   0.05    -0.36   0.19   0.02
    10   6    -0.04  -0.02   0.03     0.01   0.02  -0.01     0.09   0.11  -0.12
    11   1    -0.12  -0.09  -0.01     0.07   0.06   0.03     0.34   0.27   0.15
    12   1    -0.11  -0.07   0.02     0.06   0.03  -0.02     0.22   0.01  -0.21
    13   6     0.00  -0.00  -0.02     0.00   0.01   0.03     0.01  -0.05   0.09
    14   8     0.01   0.01   0.01    -0.00  -0.00  -0.00    -0.03  -0.00  -0.02
    15   1    -0.02   0.01   0.02     0.03  -0.01  -0.02     0.03   0.08  -0.01
    16   1    -0.00   0.03  -0.02     0.01  -0.03   0.02     0.01  -0.13   0.11
    17   6    -0.02  -0.01   0.05    -0.03  -0.04   0.01    -0.00   0.01   0.06
    18   1     0.08  -0.14   0.07    -0.15   0.27  -0.07    -0.02  -0.08   0.09
    19   1    -0.03  -0.00   0.04     0.17  -0.23   0.13     0.03  -0.05  -0.00
    20  17    -0.00  -0.00   0.00     0.00   0.00  -0.00     0.00   0.00  -0.01
    21   6    -0.01   0.00   0.08    -0.09  -0.07  -0.03     0.03   0.02   0.04
    22   1     0.06  -0.10  -0.11     0.32  -0.36   0.27    -0.07   0.08  -0.12
    23   1    -0.14   0.19  -0.16     0.13   0.23   0.07    -0.08  -0.04  -0.07
    24   1     0.20  -0.26   0.03    -0.03   0.42  -0.16     0.07  -0.22   0.07
    25   1     0.36  -0.23  -0.13     0.07  -0.16  -0.13     0.24  -0.16  -0.19
    26   1    -0.26   0.47  -0.39     0.09   0.29  -0.00    -0.05   0.05  -0.11
                     37                     38                     39
                      A                      A                      A
 Frequencies --   1129.9475              1160.9777              1170.5432
 Red. masses --      1.3089                 1.2498                 1.5610
 Frc consts  --      0.9846                 0.9925                 1.2602
 IR Inten    --     12.2849                 7.2517                14.2417
  Atom  AN      X      Y      Z        X      Y      Z        X      Y      Z
     1   6    -0.04  -0.07  -0.04     0.05   0.02   0.03     0.08  -0.08   0.01
     2   6     0.01   0.00  -0.02     0.01   0.01  -0.02    -0.01  -0.01   0.02
     3   6     0.05  -0.03   0.02    -0.01  -0.09  -0.01     0.06  -0.04  -0.00
     4   6    -0.00  -0.00   0.01    -0.00  -0.00   0.02     0.01   0.00   0.01
     5   6     0.00   0.02   0.01    -0.01   0.00  -0.01     0.00  -0.01   0.02
     6   6     0.01   0.00  -0.02     0.02   0.02  -0.02    -0.01   0.01  -0.01
     7   6    -0.01   0.03  -0.01    -0.02   0.02   0.04    -0.06   0.02  -0.00
     8   1     0.19   0.04  -0.05     0.20  -0.08  -0.08    -0.32   0.11   0.12
     9   1    -0.33   0.04   0.11    -0.26   0.08   0.08     0.08  -0.03  -0.02
    10   6    -0.01  -0.04   0.01     0.02  -0.02  -0.02     0.04   0.05   0.02
    11   1    -0.09  -0.10  -0.07    -0.14  -0.18  -0.05     0.08   0.09   0.04
    12   1     0.11   0.17   0.09     0.24   0.27   0.08     0.03   0.01  -0.01
    13   6    -0.01   0.06   0.02    -0.01   0.05   0.01     0.00  -0.06  -0.09
    14   8     0.00  -0.01  -0.00    -0.01  -0.01  -0.00     0.00   0.01   0.01
    15   1     0.10  -0.19  -0.09     0.14  -0.28  -0.14    -0.20   0.33   0.18
    16   1     0.02   0.05  -0.04     0.00   0.16  -0.10    -0.03  -0.09   0.05
    17   6     0.04  -0.02   0.01     0.01  -0.01  -0.00     0.05  -0.07   0.01
    18   1    -0.49   0.54  -0.04     0.16  -0.20   0.03    -0.27   0.27  -0.01
    19   1     0.17  -0.18  -0.02    -0.41   0.47  -0.05    -0.36   0.40   0.00
    20  17    -0.00   0.00   0.00    -0.00  -0.00   0.00     0.00   0.00  -0.00
    21   6     0.02   0.04   0.03    -0.03  -0.01  -0.01    -0.05   0.04   0.00
    22   1    -0.08   0.10  -0.14     0.04  -0.05   0.05    -0.03   0.02  -0.05
    23   1    -0.11  -0.00  -0.10     0.03   0.08   0.01    -0.08   0.21  -0.11
    24   1     0.03  -0.15   0.06     0.01   0.09  -0.04     0.01   0.08  -0.04
    25   1    -0.04  -0.03  -0.05     0.07  -0.01  -0.05    -0.14   0.12   0.09
    26   1    -0.01   0.05  -0.02    -0.02   0.02  -0.03    -0.08   0.17  -0.13
                     40                     41                     42
                      A                      A                      A
 Frequencies --   1181.9148              1202.2740              1239.2777
 Red. masses --      1.9556                 1.1955                 2.1235
 Frc consts  --      1.6095                 1.0181                 1.9215
 IR Inten    --     72.0481                 6.3342                 2.5898
  Atom  AN      X      Y      Z        X      Y      Z        X      Y      Z
     1   6     0.03  -0.03   0.02     0.02  -0.03   0.00     0.12  -0.09  -0.05
     2   6     0.01  -0.02  -0.01    -0.01   0.05  -0.01     0.00  -0.00  -0.01
     3   6     0.01  -0.03  -0.04     0.01   0.04  -0.01    -0.12   0.12   0.03
     4   6    -0.01   0.02  -0.05     0.01  -0.01   0.01    -0.00   0.00  -0.00
     5   6    -0.01  -0.01   0.02     0.01  -0.02   0.01     0.07  -0.08  -0.00
     6   6     0.00  -0.01   0.02    -0.01  -0.00   0.01    -0.12   0.11   0.01
     7   6     0.05   0.06  -0.03    -0.00  -0.02   0.01     0.03  -0.03  -0.01
     8   1    -0.30   0.08   0.06    -0.26  -0.00   0.08     0.39  -0.10  -0.14
     9   1    -0.08   0.05   0.02     0.25  -0.03  -0.08     0.29  -0.07  -0.08
    10   6    -0.02  -0.06  -0.07     0.00   0.04  -0.02    -0.01  -0.03  -0.00
    11   1     0.06   0.00  -0.03     0.05   0.06   0.07     0.02   0.00  -0.03
    12   1    -0.52  -0.41  -0.13    -0.04  -0.10  -0.09    -0.11  -0.09  -0.01
    13   6     0.01   0.10   0.22     0.02  -0.08   0.01    -0.00   0.02   0.04
    14   8    -0.00  -0.01  -0.03    -0.02   0.01   0.00     0.00  -0.00  -0.00
    15   1     0.16  -0.13  -0.11     0.24  -0.51  -0.27     0.02  -0.02  -0.02
    16   1     0.07  -0.30   0.18    -0.02   0.54  -0.29     0.01  -0.08   0.04
    17   6     0.02  -0.02   0.00     0.00  -0.01   0.01    -0.00  -0.04   0.04
    18   1     0.01  -0.01   0.00    -0.06   0.06   0.00    -0.16   0.06   0.07
    19   1    -0.15   0.17  -0.02     0.03  -0.04   0.03    -0.13   0.12   0.12
    20  17     0.00   0.00  -0.01    -0.01  -0.00   0.01     0.00   0.00  -0.00
    21   6    -0.02   0.01  -0.01    -0.01   0.01  -0.00    -0.04   0.04   0.02
    22   1    -0.02   0.02  -0.01    -0.02   0.02  -0.02    -0.04   0.02  -0.11
    23   1    -0.02   0.08  -0.03    -0.02   0.04  -0.03    -0.10   0.23  -0.14
    24   1    -0.01   0.06  -0.02    -0.01   0.03  -0.01     0.05   0.09  -0.04
    25   1    -0.21   0.11   0.13    -0.08   0.06   0.06     0.46  -0.22  -0.32
    26   1    -0.06   0.13  -0.08    -0.03   0.08  -0.06     0.11  -0.16   0.04
                     43                     44                     45
                      A                      A                      A
 Frequencies --   1254.3300              1261.6044              1347.9959
 Red. masses --      1.5247                 1.2902                 1.5336
 Frc consts  --      1.4133                 1.2099                 1.6419
 IR Inten    --      0.8822                 8.6156                 9.4670
  Atom  AN      X      Y      Z        X      Y      Z        X      Y      Z
     1   6     0.03  -0.08   0.07    -0.01   0.02  -0.01     0.01  -0.02   0.01
     2   6     0.00  -0.01  -0.00     0.01  -0.00  -0.02    -0.01  -0.07   0.06
     3   6    -0.01   0.06  -0.08     0.04   0.01   0.03     0.01  -0.04   0.03
     4   6    -0.00   0.00   0.01    -0.01   0.01   0.01     0.04  -0.02  -0.07
     5   6     0.05  -0.09   0.05    -0.01   0.01  -0.01     0.02  -0.03   0.01
     6   6    -0.00   0.03  -0.03    -0.00  -0.01   0.00    -0.02   0.04  -0.02
     7   6     0.02  -0.04   0.04    -0.05  -0.04   0.04    -0.01  -0.02  -0.03
     8   1     0.17  -0.13  -0.06    -0.27  -0.06   0.09     0.03   0.05   0.01
     9   1    -0.03   0.04  -0.02     0.52  -0.08  -0.15    -0.25  -0.05   0.10
    10   6    -0.01  -0.01  -0.01     0.07   0.04  -0.06     0.10   0.08   0.03
[...]
 0.00009234,0.00007616,-0.00012373,-0.00002518,-0.00071957,0.00058714,0
 .00031508,0.00001567,-0.00005564,-0.00005434,-0.00048778,0.00076540,0.
 00004994,-0.00036617,0.00012007,-0.00049710,0.00004171,-0.00001234,0.0
 0005836,0.00003467,-0.00000897,0.00003884,0.00003060,-0.00000068,0.000
 07375,-0.19100621,-0.12825993,0.03851792,-0.00657196,-0.00562136,0.002
 48772,0.20812769,0.01170354,0.01153711,-0.00239453,-0.00063750,0.00049
 749,-0.00152131,-0.01741815,-0.01217385,0.00296264,-0.00014129,-0.0006
 8543,0.00006910,0.00126317,-0.00215626,-0.00264806,0.00236870,-0.00219
 531,0.00235873,-0.00008251,0.00041590,0.00089642,0.00021686,0.00020350
 ,0.00003479,-0.00017087,0.00022943,0.00001856,0.00010133,-0.00019599,0
 .00008836,-0.00015690,0.00022976,-0.00030458,0.00072245,-0.00036683,-0
 .00069733,0.00073901,0.00059604,0.00082260,-0.00020495,-0.00026257,-0.
 00020199,-0.00002178,-0.00006625,-0.00006216,0.00002165,-0.00007667,0.
 00008356,-0.12809763,-0.15372239,0.03511536,-0.00782170,-0.00642608,0.
 00263557,0.13861446,0.16435345,0.00991705,0.00924007,-0.00431727,-0.00
 060258,-0.00039064,-0.00143091,0.01398964,0.00923089,-0.00414363,-0.00
 027672,0.00009997,-0.00060253,0.00138161,-0.00006863,-0.00095130,-0.00
 027835,0.00149146,-0.00155858,0.00012712,-0.00060621,-0.00023097,-0.00
 007141,-0.00002950,-0.00005966,0.00007201,-0.00014807,0.00011626,-0.00
 009952,-0.00011527,0.00018686,-0.00001746,-0.00008763,-0.00002052,0.00
 017314,-0.00031261,0.00013690,-0.00077550,0.00060367,0.00055224,0.0002
 3114,-0.00012750,-0.00032439,-0.00001353,-0.00001736,0.00001100,-0.000
 02501,-0.00002076,-0.00006625,0.04154038,0.03829332,-0.04499894,-0.020
 70800,-0.01766400,0.00552730,-0.04245963,-0.03768723,0.05409066,0.0000
 6111,-0.00007490,-0.00033257,-0.03479921,-0.01030036,0.02873861,0.0000
 1597,-0.00006421,0.00030153,0.00813480,0.00090018,-0.00507224,0.000140
 40,-0.00006074,0.00005456,-0.00013896,-0.00010988,0.00011572,0.0000106
 3,0.00004355,-0.00002217,0.00000155,-0.00002293,-0.00000406,-0.0000131
 5,-0.00000185,-0.00000478,0.00112996,-0.00066125,-0.00004406,-0.000127
 16,-0.00023558,-0.00021582,-0.00002809,0.00006590,-0.00000639,-0.00638
 021,-0.00112008,-0.00222302,0.00029693,0.00201787,0.00016319,0.0055704
 6,0.00228641,0.00315835,0.00210619,-0.01039285,0.00910012,-0.00027007,
 -0.00019170,0.00012577,-0.00001921,0.00000104,-0.00002101,-0.00036505,
 -0.00010940,-0.00011062,0.02441476,0.00001928,-0.00014784,-0.00011174,
 -0.01281571,-0.09204068,0.06847399,-0.00015662,-0.00040987,0.00059535,
 -0.00668074,-0.02718336,0.03247482,0.00034529,-0.00021940,-0.00010621,
 -0.00045640,-0.00045184,-0.00025330,0.00013910,0.00017338,-0.00002608,
 -0.00003913,0.00017718,-0.00001079,-0.00017963,-0.00002556,-0.00005771
 ,0.00090589,-0.00076059,0.00002346,-0.00007680,-0.00025272,-0.00028045
 ,-0.00002693,0.00012715,-0.00003548,-0.00626037,0.00140389,0.00422547,
 0.00335203,-0.00122023,-0.00114582,0.00394492,-0.00366203,-0.00035327,
 0.00028384,-0.00039219,0.00252706,-0.00043971,0.00005602,0.00038398,0.
 00005052,0.00005813,-0.00005766,-0.00000714,-0.00032425,-0.00031700,0.
 01816432,0.12477044,0.00054604,-0.00015298,-0.00064533,0.02900985,0.06
 435534,-0.12260981,0.00042940,0.00067770,-0.00079886,0.00085567,0.0203
 5213,-0.00790718,-0.00017094,-0.00017269,0.00058832,0.00004293,0.00054
 397,0.00083735,-0.00010972,-0.00023449,0.00007565,0.00003108,-0.000232
 07,0.00000740,0.00016802,0.00004071,0.00004263,-0.00082560,0.00063954,
 0.00019823,0.00011713,0.00028159,0.00028489,0.00008835,0.00024113,0.00
 025403,0.00437134,-0.00366831,-0.00756616,-0.00493727,-0.00096858,0.00
 417692,0.00226365,0.00161517,0.00398588,0.00218792,0.02294468,-0.01622
 475,0.00007090,-0.00017658,-0.00027474,-0.00011860,-0.00010841,0.00004
 690,-0.00019014,0.00021998,0.00026223,-0.03387385,-0.10580965,0.145052
 05,-0.11941806,0.07300630,-0.02122810,0.00001447,0.00004570,0.00007005
 ,-0.00311462,0.00071015,0.00265270,0.00001146,-0.00007504,-0.00002433,
 0.00812319,-0.00080429,0.00234123,0.00381499,0.00276567,0.00338188,0.0
 0055342,0.00093253,-0.00069987,-0.00012025,0.00023559,-0.00000126,0.00
 005842,0.00001712,-0.00008318,0.00019130,-0.00018243,0.00003648,0.0000
 2386,0.00002257,-0.00004026,0.00003558,-0.00001853,-0.00001669,-0.0000
 5571,0.00007838,0.00014212,0.00005635,-0.00002033,-0.00006051,-0.00001
 976,-0.00000965,-0.00002376,-0.00000078,-0.00001508,-0.00004870,-0.008
 39222,0.01682798,-0.00981791,0.00040308,0.00005651,-0.00003562,0.00079
 149,-0.00042749,-0.00050102,-0.00005164,-0.00003732,-0.00002926,0.5612
 8333,0.07101973,-0.19061570,0.05161188,0.00015348,0.00031130,-0.000308
 98,0.00043771,-0.00073562,-0.00048255,-0.00000495,-0.00021285,0.000048
 70,0.01088730,-0.00942065,0.00763092,0.00190277,0.00342674,0.00364414,
 0.00039825,0.00045606,0.00082946,0.00012573,-0.00003608,-0.00007534,-0
 .00015721,0.00015974,-0.00010727,0.00004377,-0.00004456,-0.00005627,-0
 .00002930,0.,-0.00000801,-0.00000501,0.00001894,-0.00001404,0.00006294
 ,0.00008696,0.00010900,-0.00004294,-0.00005474,-0.00004010,-0.00000133
 ,-0.00003070,0.00000208,-0.00000267,0.00000628,0.00003771,0.00527045,-
 0.00785332,0.00216451,-0.00056467,0.00044325,0.00063295,-0.00027818,0.
 00020308,0.00030155,-0.00008480,-0.00024710,0.00026945,0.00491012,0.52
 501652,-0.01842001,0.04826042,-0.10548746,-0.00002631,-0.00006717,0.00
 000219,0.00251373,-0.00041464,-0.00440915,0.00003551,0.00007953,0.0000
 3029,-0.01277340,0.02454106,-0.00398327,0.00362089,0.00323643,-0.00091
 321,0.00063197,-0.00053206,0.00170645,0.00046215,-0.00033422,-0.000049
 38,-0.00027738,0.00027439,0.00004892,-0.00011271,-0.00003451,-0.000000
 18,-0.00000323,-0.00001333,0.00004076,-0.00008396,0.00001657,0.0000572
 8,-0.00002365,-0.00003885,-0.00007416,-0.00000864,0.00001587,0.0000167
 9,0.00001555,-0.00000251,0.00001214,0.00001493,-0.00001410,0.00000413,
 0.00561549,-0.01445857,0.01136428,-0.00039700,0.00004619,-0.00008639,0
 .00015690,0.00021719,0.00002203,-0.00001804,0.00002493,0.00003225,-0.0
 2710515,0.01465799,0.56809177,0.01340905,0.01378903,-0.00186045,-0.000
 00821,0.00015120,-0.00021338,0.00001266,0.00043640,-0.00070931,0.00001
 285,-0.00002208,0.00006657,-0.00076693,0.00060617,-0.00090215,-0.00056
 039,-0.00010440,-0.00027698,-0.00003113,-0.00017259,0.00000506,0.00000
 619,-0.00001171,0.00000522,-0.00002511,0.00001561,0.00003340,-0.000021
 27,0.00004024,-0.00004164,-0.00001512,-0.00001656,0.00001135,-0.000005
 82,-0.00000514,0.00001517,-0.00000992,0.00008562,0.00007815,0.00000812
 ,-0.00004638,-0.00003332,0.00000360,-0.00001822,-0.00000365,-0.0000077
 8,-0.00003346,0.00001119,0.00036641,-0.00077468,0.00060714,0.00008306,
 -0.00004080,-0.00003713,-0.00011139,0.00018573,0.00003602,0.00028668,-
 0.00005800,0.00015018,-0.16124802,-0.13026679,0.02264857,0.16900715,-0
 .01544635,-0.01978129,0.00648494,-0.00008996,-0.00032033,0.00036145,0.
 00002824,-0.00064917,0.00090748,-0.00003912,0.00009574,-0.00003119,0.0
 0137242,-0.00071220,-0.00121187,0.00132700,0.00027844,0.00029977,-0.00
 000307,0.00013984,-0.00015590,0.00004277,0.00000630,-0.00000003,0.0001
 2960,-0.00008282,-0.00006514,0.00001716,-0.00012320,0.00014248,0.00006
 663,0.00003727,-0.00002622,-0.00000866,0.00000862,-0.00001589,-0.00009
 238,-0.00016663,-0.00015539,0.00009098,0.00010049,0.00006364,-0.000016
 68,0.00002054,-0.00002331,0.00002896,0.00000718,0.00000341,-0.00030266
 ,0.00082478,-0.00016069,-0.00012033,0.00014407,0.00012270,0.00060596,-
 0.00022320,-0.00022182,-0.00010999,0.00020687,-0.00032509,-0.13280204,
 -0.19631927,0.02299321,0.14066232,0.21278495,0.00767957,0.01109007,-0.
 00413666,-0.00007055,0.00019949,-0.00012676,0.00005418,-0.00014851,0.0
 0004355,0.00002785,-0.00010441,-0.00004541,-0.00135836,0.00103705,0.00
 047926,-0.00073319,-0.00041674,-0.00073935,0.00001810,0.00006762,0.000
 07026,-0.00001996,0.00000515,-0.00000347,-0.00004213,0.00001453,0.0000
 1738,0.00001559,0.00000696,-0.00004359,-0.00002215,-0.00001256,-0.0000
 0549,0.00000587,-0.00000207,-0.00000652,-0.00001225,0.00010926,0.00014
 687,0.00000676,-0.00005312,-0.00006876,0.00000769,-0.00000058,0.000009
 56,-0.00004192,0.00002340,-0.00005480,0.00023864,-0.00027348,-0.000132
 71,-0.00004184,-0.00010785,0.00010568,-0.00007517,-0.00007031,0.000272
 31,0.00015347,-0.00013529,0.00001627,0.02348447,0.02293520,-0.04726730
 ,-0.02236769,-0.02900842,0.04868366,-0.01109568,0.00286039,0.00984807,
 -0.00002873,-0.00000437,0.00007227,-0.00040152,0.00027753,0.00063829,0
 .00001647,-0.00002011,-0.00004474,0.00099367,-0.00133114,-0.00006952,-
 0.00024120,-0.00004813,-0.00005645,0.00012935,0.00015768,-0.00023984,-
 0.00009259,0.00007596,0.00000261,-0.00002279,0.00001795,0.00002748,0.0
 0003328,0.00000863,-0.00003184,-0.00002915,-0.00000138,-0.00000500,0.0
 0002555,-0.00001612,-0.00002167,0.00010413,0.00006328,0.00007320,-0.00
 007915,-0.00003896,-0.00002427,0.00000755,0.00000811,0.00001761,-0.000
 01498,0.00002192,-0.00001036,0.00056007,0.00209005,-0.00183314,-0.0000
 9391,0.00013659,0.00019198,0.00036943,-0.00024799,-0.00015766,-0.00001
 352,-0.00001318,-0.00004867,-0.18896948,0.05869244,0.12652854,-0.01218
 916,0.00767944,0.01133203,0.19986115,0.01949795,-0.00795682,-0.0193968
 1,-0.00000458,-0.00009252,0.00008186,0.00112596,-0.00032434,-0.0008606
 6,0.00000614,0.00004460,-0.00000672,-0.00082244,0.00120048,-0.00084485
 ,-0.00004758,-0.00003750,-0.00022034,-0.00000381,-0.00016196,0.0004569
 3,0.00013999,-0.00012045,-0.00000538,-0.00000375,0.00000385,-0.0000185
 1,-0.00003923,-0.00002701,0.00004020,0.00002845,0.00000459,0.00000326,
 -0.00003184,0.00001658,0.00002007,-0.00009988,-0.00007813,-0.00007125,
 0.00007526,0.00004440,0.00001963,-0.00000757,0.00000554,-0.00000973,-0
 .00000109,0.00000792,-0.00001118,0.00134858,-0.00278654,0.00339763,-0.
 00033539,0.00018889,0.00011191,0.00017306,0.00001231,-0.00005295,0.000
 00362,0.00006021,-0.00005316,0.05751186,-0.07017643,-0.05046953,-0.016
 01371,0.00833196,0.01594619,-0.06631482,0.07449449,-0.01064195,0.00374
 324,0.00869479,0.00001111,0.00002018,-0.00001022,-0.00040235,0.0004005
 1,0.00031220,0.00000687,-0.00000738,0.00000106,-0.00081358,0.00001495,
 0.00084106,-0.00003682,-0.00023253,0.00005802,0.00000560,0.00012472,-0
 .00009132,-0.00002459,0.00002308,0.00000155,0.00001065,-0.00000103,-0.
 00000213,0.00001794,-0.00000866,-0.00000632,0.00000470,-0.00000097,-0.
 00000177,-0.00000010,0.00000149,0.00000173,-0.00003143,0.00000184,0.00
 000775,0.00002360,-0.00000070,-0.00000435,-0.00000624,-0.00000084,-0.0
 0000433,-0.00000710,-0.00000620,-0.00000413,-0.00066787,0.00198276,-0.
 00025390,-0.00015708,0.00022955,0.00012038,0.00011445,-0.00005692,-0.0
 0014090,0.00000657,-0.00000867,0.00001432,0.12794048,-0.05208134,-0.16
 029916,0.00016383,-0.00100000,-0.00189969,-0.13631912,0.05381121,0.166
 95877,-0.00493873,-0.00251558,-0.01251367,-0.00001110,0.00005042,-0.00
 007911,-0.00014903,0.00057974,-0.00091298,0.00000068,-0.00000413,0.000
 02492,-0.00031669,-0.00001388,0.00050535,-0.00028881,0.00035758,0.0004
 7589,0.00022534,0.00001448,0.00026954,0.00001420,-0.00002109,-0.000008
 43,-0.00013007,0.00012030,0.00005084,-0.00001271,0.00005436,-0.0000632
 6,-0.00003730,-0.00001053,0.00001742,-0.00000096,-0.00000856,0.0000049
 9,0.00012232,0.00002194,-0.00001261,-0.00010099,-0.00003198,0.00001378
 ,0.00001973,-0.00000471,0.00002401,0.00001005,-0.00000013,0.00003089,0
 .00039668,-0.00033942,0.00052863,-0.00016068,0.00031081,0.00011118,0.0
 0007904,-0.00003974,-0.00015246,0.00000089,-0.00002937,0.00005438,-0.0
 9267133,-0.02039794,-0.10017975,-0.00819700,-0.00296492,-0.01854875,0.
 01107997,0.00413854,0.02038002,0.09511325,0.01127262,0.00492576,0.0280
 9706,-0.00002061,-0.00010612,0.00009164,-0.00003867,-0.00048351,0.0008
 6481,-0.00003458,0.00002655,0.00000311,0.00127609,-0.00184569,-0.00041
 037,-0.00041446,-0.00128769,-0.00049066,-0.00017999,-0.00000311,-0.000
 28078,-0.00003212,0.00001726,0.00002434,0.00012529,-0.00010637,-0.0000
 3386,0.00000789,-0.00003776,0.00005307,0.00003582,0.00001354,-0.000011
 32,0.00000047,0.00001102,-0.00000244,-0.00006945,-0.00006246,-0.000068
 65,0.00006138,0.00004000,0.00002925,-0.00001237,0.00000603,-0.00001844
 ,0.00001775,-0.00001713,0.00001314,-0.00064423,0.00095727,-0.00060201,
 0.00021143,-0.00011393,-0.00020036,-0.00009151,0.00007938,-0.00002191,
 0.00001120,0.00010237,-0.00008746,-0.01953057,-0.05360798,-0.04688182,
 -0.00858770,-0.00422531,-0.02149646,-0.00442763,-0.00261445,-0.0066062
 7,0.02054991,0.05819050,-0.00272002,0.00150512,-0.00987107,0.00000076,
 0.00005225,-0.00008181,-0.00000528,0.00009990,0.00000019,-0.00000344,-
 0.00002434,0.00002404,-0.00164131,0.00022045,0.00111736,0.00039409,0.0
 0072474,0.00037756,0.00000495,-0.00003417,0.00011290,-0.00001234,0.000
 00738,-0.00001498,-0.00007186,0.00006347,-0.00000025,-0.00001331,0.000
 06624,-0.00004186,-0.00004034,-0.00001096,0.00001338,0.00001414,-0.000
 01404,-0.00000500,0.00012998,0.00003244,0.00001162,-0.00010120,-0.0000
 2985,0.00000464,0.00002073,-0.00000521,0.00001823,0.00001358,0.0000043
 2,0.00002115,0.00022104,0.00000717,-0.00019911,-0.00016476,0.00017845,
 0.00038230,0.00006097,0.00001279,0.00004526,-0.00001490,-0.00003796,0.
 00004610,-0.09890310,-0.04905359,-0.25902881,0.00261873,0.00122651,0.0
 0433090,-0.00937005,-0.00253066,-0.01427234,0.10998626,0.04778490,0.27
 712258,-0.00210495,0.00391316,0.00034172,0.00002549,-0.00010412,0.0000
 4051,0.00688734,-0.01100399,0.01281273,0.00016333,0.00011253,0.0000897
 2,0.00407661,0.00735611,-0.01578317,-0.05153907,0.02122222,-0.00832419
 ,-0.00095279,-0.00339486,-0.00160910,-0.00015550,0.00048706,-0.0005456
 2,0.00047459,-0.00026702,-0.00036587,-0.00018192,0.00024172,0.00004787
 ,-0.00005177,-0.00004639,0.00004358,0.00003731,0.00004192,-0.00002311,
 -0.00011210,0.00009865,0.00010010,0.00008867,-0.00002542,-0.00004936,-
 0.00005567,-0.00001942,-0.00006274,0.00000440,-0.00000399,-0.00001050,
 0.00266171,0.00463731,0.00578139,0.00034565,-0.00166248,0.00104822,-0.
 00033119,0.00048938,-0.00060793,0.00003065,0.00012202,-0.00009632,0.00
 074976,0.00035590,-0.00063415,-0.00014426,0.00029893,-0.00012440,0.000
 02602,-0.00007616,0.00004471,-0.00004648,0.00010917,-0.00010783,0.0400
 4554,0.00292769,-0.00199120,0.00072351,0.00003211,-0.00017077,0.000069
 42,0.00241818,0.00489997,-0.00320572,0.00023062,0.00007497,0.00007742,
 -0.00475648,-0.00483043,0.01418152,0.01971939,-0.16299639,0.14666929,-
 0.00235024,-0.00206746,-0.00186640,-0.00029246,0.00030034,0.00011699,0
 .00042148,-0.00019336,-0.00032093,-0.00017968,0.00028892,0.00018875,-0
 .00009662,-0.00007230,0.00005166,0.00001161,-0.00001238,-0.00000435,-0
 .00006207,0.00024134,0.00018925,0.00004040,-0.00008584,-0.00008705,-0.
 00018955,-0.00001256,-0.00005419,0.00001632,-0.00002583,0.00002449,0.0
 0486589,0.00403143,0.00281008,0.00005544,-0.00114646,0.00088690,-0.000
 64538,0.00092399,-0.00078932,0.00003675,0.00016410,-0.00015323,-0.0001
 9016,0.00018580,0.00081272,0.00003098,-0.00012159,0.00010150,-0.000002
 75,0.00003740,-0.00005038,0.00015919,-0.00027437,0.00013783,-0.0218480
 1,0.16261458,0.00146085,-0.00046517,0.00013402,0.00004093,0.00005130,-
 0.00003852,-0.00601575,0.01631726,-0.00913383,0.00006488,0.00003267,-0
 .00000628,0.00150280,-0.00388959,0.00370270,-0.00756642,0.14571645,-0.
 22835312,-0.00256670,-0.00140510,-0.00035088,0.00058240,-0.00040307,-0
 .00004169,0.00036694,-0.00018337,-0.00020943,0.00000402,0.00010044,0.0
 0026025,-0.00001428,-0.00004041,0.00004134,-0.00013306,-0.00003703,0.0
 0009259,-0.00007698,0.00009446,0.00005162,0.00001068,-0.00004149,-0.00
 003813,0.00007847,0.00009573,-0.00001866,-0.00001150,-0.00001712,-0.00
 000870,0.00556491,0.00301544,-0.00033795,0.00011308,-0.00041867,0.0000
 8926,-0.00060736,0.00100829,-0.00129108,0.00003026,-0.00000954,0.00007
 383,0.00010218,-0.00001426,0.00039818,-0.00004480,0.00004676,-0.000023
 44,-0.00004698,0.00004891,0.00000274,0.00005523,-0.00004335,0.00000623
 ,0.00763453,-0.15985532,0.23521720,0.00207910,0.00381325,-0.00061878,-
 0.00003713,0.00007030,0.00002793,-0.00110128,0.00265294,0.00042723,0.0
 0003632,-0.00007764,-0.00010155,-0.18636542,0.05464471,0.14402833,-0.0
 0505969,-0.00257585,0.01088552,0.00021866,-0.00004851,0.00073446,0.000
 01075,-0.00001030,-0.00004923,-0.00021215,0.00016791,0.00006937,0.0000
 6898,0.00012483,-0.00010869,-0.00007029,-0.00006370,0.00001704,0.00002
 318,-0.00002938,0.00002758,0.00009891,0.00017891,0.00017991,-0.0000935
 4,-0.00009230,-0.00008322,0.00000038,0.00002434,0.00004652,-0.00004396
 ,-0.00003171,-0.00001285,0.00476577,0.00435913,0.00344572,-0.00135824,
 0.00039262,0.00085344,0.00087267,-0.00084839,-0.00061072,0.00000530,-0
 .00005016,0.00001353,-0.00204881,-0.00242481,-0.00218085,0.00014576,-0
 .00035426,0.00043413,0.00006522,-0.00024755,0.00037769,-0.00000025,0.0
 0040485,-0.00029551,0.00005863,-0.00035266,-0.00052833,0.18794112,-0.0
 1005111,0.00843179,0.01022350,0.00002180,-0.00003856,0.00007672,0.0035
 6674,-0.00284680,0.00112334,0.00001721,0.00003815,-0.00000396,0.055526
 90,-0.06682195,-0.04045931,0.01007777,0.00145041,-0.01651870,0.0004752
 8,0.00078433,-0.00072093,-0.00004860,0.00004459,0.00003042,0.00007221,
 -0.00006421,-0.00008142,0.00027713,-0.00038025,-0.00004074,0.00015162,
 0.00005935,-0.00004137,-0.00000085,0.00001111,0.00000786,-0.00015520,-
 0.00008919,-0.00007607,0.00012230,0.00005607,0.00002615,-0.00002030,-0
 .00000108,-0.00003311,-0.00002328,0.00000020,-0.00002704,0.00410167,0.
 00260895,0.00531997,-0.00152310,0.00066219,0.00071665,0.00050025,-0.00
 040636,-0.00058252,0.00000969,0.00003794,-0.00003870,-0.00300757,-0.00
 095968,-0.00191522,0.00016891,-0.00026204,0.00029340,0.00037661,-0.000
 07709,-0.00029164,0.00002471,0.00041619,-0.00038320,-0.00103422,0.0002
 3811,0.00029578,-0.05962656,0.05710783,0.01771458,-0.00978564,-0.00781
 284,0.00000405,-0.00002491,-0.00001444,-0.00080910,0.00216534,-0.00010
 136,0.00000906,0.00001267,-0.00000368,0.14295537,-0.03929656,-0.190449
 79,-0.00582304,0.00186781,0.00602414,-0.00009620,0.00016835,0.00054101
 ,0.00005508,-0.00006474,-0.00000840,-0.00006659,0.00007603,0.00000229,
 0.00010040,-0.00003503,-0.00003649,0.00002410,-0.00002689,0.00003216,-
 0.00003878,-0.00000089,0.00007581,-0.00012826,-0.00001296,-0.00004182,
 0.00007142,0.00001584,-0.00000432,-0.00001359,0.00000392,-0.00000442,-
 0.00000592,-0.00001675,-0.00000628,0.00391789,0.00520200,-0.00093495,-
 0.00036136,0.00015502,0.00004437,0.00110295,-0.00089951,-0.00108611,0.
 00001538,0.00002758,0.00003159,-0.00153286,-0.00263377,-0.00022896,0.0
 0003992,-0.00025137,0.00037825,-0.00045275,0.00061394,-0.00002380,-0.0
 0006231,0.00029483,-0.00011920,0.00035922,-0.00065446,-0.00021826,-0.1
 5697867,0.04310015,0.19396548\\0.00000472,-0.00000108,0.00000125,-0.00
 000021,-0.00000194,0.00000243,0.00000325,-0.00000697,-0.00000591,-0.00
 000213,0.00000750,-0.00000231,-0.00000465,-0.00000329,0.00000267,0.000
 00180,-0.00000250,0.00000158,0.00000027,0.00000285,-0.00000442,0.00000
 449,0.00000248,-0.00000055,0.00000456,0.00000209,0.00000138,0.00000750
 ,-0.00000239,0.00000560,0.00000008,0.00000701,-0.00000189,-0.00000148,
 0.00000595,-0.00000253,0.00000637,0.00000690,-0.00000448,-0.00000375,0
 .00000317,0.00000061,0.00000144,0.00000042,0.00000069,-0.00000264,-0.0
 0000024,0.00000045,-0.00000697,-0.00000289,-0.00000353,0.00000206,0.00
 000126,0.00000573,0.00000090,-0.00000003,-0.00000125,-0.00000132,0.000
 00378,0.00000169,-0.00000627,0.00000084,-0.00000089,-0.00000730,-0.000
 00527,0.00000161,-0.00000110,-0.00000473,0.00000105,-0.00000211,-0.000
 00398,0.00000316,0.00000242,-0.00000268,-0.00000134,0.00000007,-0.0000
 0627,-0.00000080\\\@
 The archive entry for this job was punched.


 THERE ARE PEOPLE SO ADDICTED TO EXAGERATING THEY
 CAN'T TELL THE TRUTH WITHOUT LYING. -- FORTUNE COOKIE
 Job cpu time:       0 days  0 hours 33 minutes 45.6 seconds.
 Elapsed time:       0 days  0 hours  2 minutes 50.5 seconds.
 File lengths (MBytes):  RWF=    268 Int=      0 D2E=      0 Chk=     12 Scr=      1
 Normal termination of Gaussian 16 at Sat Dec 30 20:57:28 2023.
