Unloading slurm/anatra/current
  ERROR: No such file or directory on
    '/cm/local/modulefiles/slurm/anatra/current'
environment: line 0: unalias: gv: not found
environment: line 0: unalias: sl: not found
 Entering Gaussian System, Link 0=g16
 Initial command:
 /apps/gaussian/g16/C.01/g16/l1.exe "/local/jobs/1153170/Gau-1735666.inp" -scrdir="/local/jobs/1153170/"
 Entering Link 1 = /apps/gaussian/g16/C.01/g16/l1.exe PID=   1735669.
  
 Copyright (c) 1988-2019, Gaussian, Inc.  All Rights Reserved.
  
 This is part of the Gaussian(R) 16 program.  It is based on
 the Gaussian(R) 09 system (copyright 2009, Gaussian, Inc.),
 the Gaussian(R) 03 system (copyright 2003, Gaussian, Inc.),
 the Gaussian(R) 98 system (copyright 1998, Gaussian, Inc.),
 the Gaussian(R) 94 system (copyright 1995, Gaussian, Inc.),
 the Gaussian 92(TM) system (copyright 1992, Gaussian, Inc.),
 the Gaussian 90(TM) system (copyright 1990, Gaussian, Inc.),
 the Gaussian 88(TM) system (copyright 1988, Gaussian, Inc.),
 the Gaussian 86(TM) system (copyright 1986, Carnegie Mellon
 University), and the Gaussian 82(TM) system (copyright 1983,
 Carnegie Mellon University). Gaussian is a federally registered
 trademark of Gaussian, Inc.
  
 This software contains proprietary and confidential information,
 including trade secrets, belonging to Gaussian, Inc.
  
 This software is provided under written license and may be
 used, copied, transmitted, or stored only in accord with that
 written license.
  
 The following legend is applicable only to US Government
 contracts under FAR:
  
                    RESTRICTED RIGHTS LEGEND
  
 Use, reproduction and disclosure by the US Government is
 subject to restrictions as set forth in subparagraphs (a)
 and (c) of the Commercial Computer Software - Restricted
 Rights clause in FAR 52.227-19.
  
 Gaussian, Inc.
 340 Quinnipiac St., Bldg. 40, Wallingford CT 06492
  
  
 ---------------------------------------------------------------
 Warning -- This program may not be used in any manner that
 competes with the business of Gaussian, Inc. or will provide
 assistance to any competitor of Gaussian, Inc.  The licensee
 of this program is prohibited from giving any competitor of
 Gaussian, Inc. access to this program.  By using this program,
 the user acknowledges that Gaussian, Inc. is engaged in the
 business of creating and licensing software in the field of
 computational chemistry and represents and warrants to the
 licensee that it is not a competitor of Gaussian, Inc. and that
 it will not use this program in any manner prohibited above.
 ---------------------------------------------------------------
  

 Cite this work as:
 Gaussian 16, Revision C.01,
 M. J. Frisch, G. W. Trucks, H. B. Schlegel, G. E. Scuseria, 
 M. A. Robb, J. R. Cheeseman, G. Scalmani, V. Barone, 
 G. A. Petersson, H. Nakatsuji, X. Li, M. Caricato, A. V. Marenich, 
 J. Bloino, B. G. Janesko, R. Gomperts, B. Mennucci, H. P. Hratchian, 
 J. V. Ortiz, A. F. Izmaylov, J. L. Sonnenberg, D. Williams-Young, 
 F. Ding, F. Lipparini, F. Egidi, J. Goings, B. Peng, A. Petrone, 
 T. Henderson, D. Ranasinghe, V. G. Zakrzewski, J. Gao, N. Rega, 
 G. Zheng, W. Liang, M. Hada, M. Ehara, K. Toyota, R. Fukuda, 
 J. Hasegawa, M. Ishida, T. Nakajima, Y. Honda, O. Kitao, H. Nakai, 
 T. Vreven, K. Throssell, J. A. Montgomery, Jr., J. E. Peralta, 
 F. Ogliaro, M. J. Bearpark, J. J. Heyd, E. N. Brothers, K. N. Kudin, 
 V. N. Staroverov, T. A. Keith, R. Kobayashi, J. Normand, 
 K. Raghavachari, A. P. Rendell, J. C. Burant, S. S. Iyengar, 
 J. Tomasi, M. Cossi, J. M. Millam, M. Klene, C. Adamo, R. Cammi, 
 J. W. Ochterski, R. L. Martin, K. Morokuma, O. Farkas, 
 J. B. Foresman, and D. J. Fox, Gaussian, Inc., Wallingford CT, 2019.
 
 ******************************************
 Gaussian 16:  ES64L-G16RevC.01  3-Jul-2019
                30-Dec-2023 
 ******************************************
 %chk=imda-1_1_opt_hf_reopt_freq.chk
 %nprocshared=12
 Will use up to   12 processors via shared memory.
 %mem=48GB
 -----------------------------------------------------------
 # wb97xd def2svp scrf=(iefpcm,solvent=toluene) freq=noraman
 -----------------------------------------------------------
 1/10=4,30=1,38=1/1,3;
 2/12=2,17=6,18=5,40=1/2;
 3/5=43,7=101,11=2,25=1,30=1,70=2201,71=2,72=13,74=-58,140=1/1,2,3;
 4//1;
 5/5=2,38=5,53=13,98=1/2;
 8/6=4,10=90,11=11/1;
 11/6=1,8=1,9=11,15=111,16=1/1,2,10;
 10/6=1/2;
 6/7=2,8=2,9=2,10=2,28=1/1;
 7/8=1,10=1,25=1/1,2,3,16;
 1/10=4,30=1/3;
 99//99;
 -------------------------
 imda-1_1_opt_hf_reopt.out
 -------------------------
 Symbolic Z-matrix:
 Charge =  0 Multiplicity = 1
 C                    -2.46796   0.31598  -0.21946 
 C                     0.99027   1.27196   1.11632 
 C                    -0.9199   -1.47746  -0.04036 
 C                     1.36801  -0.00314   1.09853 
 C                    -2.67296  -0.34846   0.93962 
 C                    -1.72064  -1.45594   1.04737 
 C                     0.22547  -2.40386  -0.32218 
 H                     0.46116  -2.97851   0.58788 
 H                    -0.07694  -3.14826  -1.07904 
 C                     1.48639  -1.71543  -0.85722 
 H                     2.25894  -2.45331  -1.12029 
 H                     1.24992  -1.19049  -1.80035 
 C                     2.16435  -0.66539   0.00844 
 O                     3.31399  -0.3517   -0.1897 
 H                     1.05808  -0.62867   1.94076 
 H                     0.41602   1.71057   1.93352 
 C                    -1.34779  -0.3635   -0.9593 
 H                    -1.68848  -0.75328  -1.9366 
 H                    -0.53111   0.34499  -1.18287 
 Cl                    1.28738   2.3834   -0.18787 
 C                    -3.17281   1.52525  -0.73987 
 H                    -2.46663   2.36083  -0.87789 
 H                    -3.96316   1.85542  -0.05124 
 H                    -3.63353   1.33145  -1.72235 
 H                    -1.65252  -2.13831   1.89741 
 H                    -3.42369  -0.09671   1.69123 
 

 GradGradGradGradGradGradGradGradGradGradGradGradGradGradGradGradGradGrad
 Berny optimization.
 Initialization pass.
 Trust Radius=3.00D-01 FncErr=1.00D-07 GrdErr=1.00D-07 EigMax=2.50D+02 EigMin=1.00D-04
 Number of steps in this run=      2 maximum allowed number of steps=      2.
 GradGradGradGradGradGradGradGradGradGradGradGradGradGradGradGradGradGrad

                          Input orientation:                          
 ---------------------------------------------------------------------
 Center     Atomic      Atomic             Coordinates (Angstroms)
 Number     Number       Type             X           Y           Z
 ---------------------------------------------------------------------
      1          6           0       -2.467960    0.315980   -0.219460
      2          6           0        0.990270    1.271960    1.116320
      3          6           0       -0.919900   -1.477460   -0.040360
      4          6           0        1.368010   -0.003140    1.098530
      5          6           0       -2.672960   -0.348460    0.939620
      6          6           0       -1.720640   -1.455940    1.047370
      7          6           0        0.225470   -2.403860   -0.322180
      8          1           0        0.461160   -2.978510    0.587880
      9          1           0       -0.076940   -3.148260   -1.079040
     10          6           0        1.486390   -1.715430   -0.857220
     11          1           0        2.258940   -2.453310   -1.120290
     12          1           0        1.249920   -1.190490   -1.800350
     13          6           0        2.164350   -0.665390    0.008440
     14          8           0        3.313990   -0.351700   -0.189700
     15          1           0        1.058080   -0.628670    1.940760
     16          1           0        0.416020    1.710570    1.933520
     17          6           0       -1.347790   -0.363500   -0.959300
     18          1           0       -1.688480   -0.753280   -1.936600
     19          1           0       -0.531110    0.344990   -1.182870
     20         17           0        1.287380    2.383400   -0.187870
     21          6           0       -3.172810    1.525250   -0.739870
     22          1           0       -2.466630    2.360830   -0.877890
     23          1           0       -3.963160    1.855420   -0.051240
     24          1           0       -3.633530    1.331450   -1.722350
     25          1           0       -1.652520   -2.138310    1.897410
     26          1           0       -3.423690   -0.096710    1.691230
 ---------------------------------------------------------------------
                    Distance matrix (angstroms):
                    1          2          3          4          5
     1  C    0.000000
     2  C    3.828519   0.000000
     3  C    2.375920   3.542029   0.000000
     4  C    4.068612   1.329994   2.950461   0.000000
     5  C    1.351655   4.009518   2.303958   4.058810   0.000000
     6  C    2.302834   3.846456   1.350853   3.413650   1.464594
     7  C    3.829183   4.020678   1.499837   3.014510   3.770637
     8  H    4.481652   4.315750   2.134283   3.152137   4.106530
     9  H    4.296139   5.049444   2.140329   4.089190   4.318934
    10  C    4.491130   3.614622   2.552278   2.602097   4.732593
    11  H    5.551941   4.526542   3.496220   3.423485   5.744324
    12  H    4.311763   3.825969   2.808565   3.134845   4.858543
    13  C    4.740603   2.521743   3.189739   1.503672   4.936305
    14  O    5.820449   3.121159   4.383545   2.359633   6.092532
    15  H    4.241683   2.072847   2.925352   1.093936   3.873172
    16  H    3.859734   1.090852   3.980505   2.130797   3.843077
    17  C    1.504605   3.528378   1.506137   3.426382   2.315642
    18  H    2.167827   4.538460   2.170456   4.372283   3.066875
    19  H    2.163421   2.908633   2.185820   2.988752   3.094084
    20  Cl   4.286934   1.739105   4.449729   2.712360   4.941517
    21  C    1.493310   4.565176   3.818532   5.131738   2.565409
    22  H    2.148242   4.136746   4.222120   4.919253   3.268970
    23  H    2.152625   5.122508   4.513274   5.761735   2.739253
    24  H    2.156017   5.425967   4.252394   5.895244   3.291030
    25  H    3.342098   4.384562   2.174490   3.784278   2.272052
    26  H    2.175884   4.656911   3.342729   4.829124   1.091738
                    6          7          8          9         10
     6  C    0.000000
     7  C    2.561555   0.000000
     8  H    2.699926   1.101808   0.000000
     9  H    3.176054   1.103821   1.759826   0.000000
    10  C    3.738962   1.533011   2.175955   2.132184   0.000000
    11  H    4.640103   2.185046   2.534895   2.437415   1.100230
    12  H    4.123615   2.169505   3.085903   2.472592   1.104977
    13  C    4.098474   2.625042   2.930381   3.517192   1.520388
    14  O    5.300678   3.710508   3.955174   4.484426   2.376019
    15  H    3.033778   2.994234   2.776391   4.093384   3.032027
    16  H    3.921398   4.696065   4.878551   5.738184   4.546581
    17  C    2.314987   2.654079   3.536148   3.063378   3.141769
    18  H    3.065753   2.998995   3.993194   3.011378   3.488638
    19  H    3.103595   2.978150   3.894330   3.524180   2.902014
    20  Cl   5.031355   4.905461   5.480375   5.766699   4.157889
    21  C    3.767030   5.211591   5.937383   5.616150   5.676612
    22  H    4.339454   5.500771   6.263305   6.008423   5.678265
    23  H    4.147402   5.979924   6.584069   6.418403   6.564920
    24  H    4.370359   5.550216   6.378041   5.755952   6.020424
    25  H    1.092171   2.919579   2.624585   3.515922   4.197567
    26  H    2.272101   4.763731   4.961271   5.309151   5.764004
                   11         12         13         14         15
    11  H    0.000000
    12  H    1.753658   0.000000
    13  C    2.116515   2.093713   0.000000
    14  O    2.529010   2.749208   1.208029   0.000000
    15  H    3.760506   3.787921   2.226891   3.115237   0.000000
    16  H    5.482701   4.801388   3.522467   4.142373   2.425765
    17  C    4.171537   2.852959   3.655514   4.724893   3.777416
    18  H    4.374767   2.973871   4.316851   5.313909   4.753214
    19  H    3.952060   2.431265   3.115380   4.031942   3.637390
    20  Cl   5.020667   3.920993   3.178480   3.404104   3.695431
    21  C    6.743706   5.297207   5.817572   6.775264   5.452117
    22  H    6.750238   5.222600   5.602639   6.422382   5.413453
    23  H    7.643465   6.285949   6.626041   7.605752   5.945723
    24  H    7.029089   5.496758   6.371689   7.310954   6.266710
    25  H    4.950279   4.795409   4.506240   5.675758   3.102941
    26  H    6.763911   5.935496   5.863563   6.999946   4.520123
                   16         17         18         19         20
    16  H    0.000000
    17  C    3.972556   0.000000
    18  H    5.047505   1.105945   0.000000
    19  H    3.531820   1.104042   1.764599   0.000000
    20  Cl   2.390034   3.883901   4.663964   2.907240   0.000000
    21  C    4.478957   2.635569   2.971043   2.927088   4.575415
    22  H    4.078791   2.946253   3.379950   2.811203   3.816966
    23  H    4.810143   3.548005   3.941328   3.916753   5.278788
    24  H    5.468818   2.946134   2.859234   3.299871   5.260854
    25  H    4.369673   3.376922   4.076669   4.112477   5.782497
    26  H    4.250687   3.377254   4.074701   4.101532   5.645896
                   21         22         23         24         25
    21  C    0.000000
    22  H    1.102694   0.000000
    23  H    1.099034   1.782804   0.000000
    24  H    1.102310   1.770421   1.782080   0.000000
    25  H    4.763213   5.348582   5.008610   5.391317   0.000000
    26  H    2.933248   3.681826   2.671711   3.706238   2.710661
                   26
    26  H    0.000000
 Stoichiometry    C11H13ClO
 Framework group  C1[X(C11H13ClO)]
 Deg. of freedom    72
 Full point group                 C1      NOp   1
 Largest Abelian subgroup         C1      NOp   1
 Largest concise Abelian subgroup C1      NOp   1
                         Standard orientation:                         
 ---------------------------------------------------------------------
 Center     Atomic      Atomic             Coordinates (Angstroms)
 Number     Number       Type             X           Y           Z
 ---------------------------------------------------------------------
      1          6           0       -2.467959    0.315988   -0.219461
      2          6           0        0.990274    1.271957    1.116319
      3          6           0       -0.919905   -1.477457   -0.040361
      4          6           0        1.368010   -0.003144    1.098529
      5          6           0       -2.672961   -0.348451    0.939619
      6          6           0       -1.720645   -1.455934    1.047369
      7          6           0        0.225462   -2.403861   -0.322181
      8          1           0        0.461150   -2.978511    0.587879
      9          1           0       -0.076950   -3.148260   -1.079041
     10          6           0        1.486384   -1.715434   -0.857221
     11          1           0        2.258932   -2.453317   -1.120291
     12          1           0        1.249916   -1.190494   -1.800351
     13          6           0        2.164348   -0.665397    0.008439
     14          8           0        3.313989   -0.351710   -0.189701
     15          1           0        1.058078   -0.628673    1.940759
     16          1           0        0.416025    1.710569    1.933519
     17          6           0       -1.347791   -0.363496   -0.959301
     18          1           0       -1.688483   -0.753275   -1.936601
     19          1           0       -0.531109    0.344992   -1.182871
     20         17           0        1.287387    2.383396   -0.187871
     21          6           0       -3.172805    1.525260   -0.739871
     22          1           0       -2.466623    2.360838   -0.877891
     23          1           0       -3.963154    1.855433   -0.051241
     24          1           0       -3.633526    1.331462   -1.722351
     25          1           0       -1.652527   -2.138305    1.897409
     26          1           0       -3.423690   -0.096699    1.691229
 ---------------------------------------------------------------------
 Rotational constants (GHZ):           0.8867322           0.5790227           0.4149010
 Standard basis: def2SVP (5D, 7F)
 There are   264 symmetry adapted cartesian basis functions of A   symmetry.
 There are   251 symmetry adapted basis functions of A   symmetry.
   251 basis functions,   428 primitive gaussians,   264 cartesian basis functions
    52 alpha electrons       52 beta electrons
       nuclear repulsion energy       873.3127964102 Hartrees.
 NAtoms=   26 NActive=   26 NUniq=   26 SFac= 1.00D+00 NAtFMM=   60 NAOKFM=F Big=F
 Integral buffers will be    131072 words long.
 Raffenetti 2 integral format.
 Two-electron integral symmetry is turned on.
 Nuclear repulsion after empirical dispersion term =      873.2922719291 Hartrees.
 Force inversion solution in PCM.
 ------------------------------------------------------------------------------
 Polarizable Continuum Model (PCM)
 =================================
 Model                : PCM.
 Atomic radii         : UFF (Universal Force Field).
 Polarization charges : Total charges.
 Charge compensation  : None.
 Solution method      : Matrix inversion.
 Cavity type          : Scaled VdW (van der Waals Surface) (Alpha=1.100).
 Cavity algorithm     : GePol (No added spheres)
                        Default sphere list used, NSphG=   26.
                        Lebedev-Laikov grids with approx.  5.0 points / Ang**2.
                        Smoothing algorithm: York/Karplus (Gamma=1.0000).
                        Polarization charges: spherical gaussians, with
                                              point-specific exponents (IZeta= 3).
                        Self-potential: point-specific (ISelfS= 7).
                        Self-field    : sphere-specific E.n sum rule (ISelfD= 2).
 1st derivatives      : Analytical E(r).r(x)/FMM algorithm (CHGder, D1EAlg=3).
                        Cavity 1st derivative terms included.
 2nd derivatives      : Analytical E(r).r(xy)/FMM algorithm (CHGder, D2EAlg=3).
                        Cavity 2nd derivative terms included.
 Solvent              : Toluene, Eps=   2.374100 Eps(inf)=   2.238315
 ------------------------------------------------------------------------------
 One-electron integrals computed using PRISM.
   1 Symmetry operations used in ECPInt.
 ECPInt:  NShTT=    7140 NPrTT=   26096 LenC2=    6946 LenP2D=   19115.
 LDataN:  DoStor=T MaxTD1= 4 Len=   56
 NBasis=   251 RedAO= T EigKep=  5.71D-04  NBF=   251
 NBsUse=   251 1.00D-06 EigRej= -1.00D+00 NBFU=   251
 ExpMin= 1.22D-01 ExpMax= 1.04D+04 ExpMxC= 1.57D+03 IAcc=3 IRadAn=         5 AccDes= 0.00D+00
 Harris functional with IExCor= 4639 and IRadAn=       5 diagonalized for initial guess.
 HarFok:  IExCor= 4639 AccDes= 0.00D+00 IRadAn=         5 IDoV= 1 UseB2=F ITyADJ=14
 ICtDFT=  3500011 ScaDFX=  1.000000  1.000000  1.000000  1.000000
 FoFCou: FMM=F IPFlag=           0 FMFlag=      100000 FMFlg1=           0
         NFxFlg=           0 DoJE=T BraDBF=F KetDBF=T FulRan=T
         wScrn=  0.000000 ICntrl=       500 IOpCl=  0 I1Cent=   200000004 NGrid=           0
         NMat0=    1 NMatS0=      1 NMatT0=    0 NMatD0=    1 NMtDS0=    0 NMtDT0=    0
 Petite list used in FoFCou.
 Requested convergence on RMS density matrix=1.00D-08 within 128 cycles.
 Requested convergence on MAX density matrix=1.00D-06.
 Requested convergence on             energy=1.00D-06.
 No special actions if energy rises.
 Inv3:  Mode=1 IEnd=    12024012.
 Iteration    1 A*A^-1 deviation from unit magnitude is 2.89D-15 for    207.
 Iteration    1 A*A^-1 deviation from orthogonality  is 1.82D-15 for   1145    610.
 Iteration    1 A^-1*A deviation from unit magnitude is 2.66D-15 for    906.
 Iteration    1 A^-1*A deviation from orthogonality  is 1.96D-15 for   1347      4.
 Error on total polarization charges =  0.00625
 SCF Done:  E(RwB97XD) =  -961.702758287     A.U. after   15 cycles
            NFock= 15  Conv=0.48D-08     -V/T= 2.0068
 DoSCS=F DFT=T ScalE2(SS,OS)=  1.000000  1.000000
 Range of M.O.s used for correlation:     1   251
 NBasis=   251 NAE=    52 NBE=    52 NFC=     0 NFV=     0
 NROrb=    251 NOA=    52 NOB=    52 NVA=   199 NVB=   199

 **** Warning!!: The largest alpha MO coefficient is  0.10368667D+02

   1 Symmetry operations used in ECPInt.
 ECPInt:  NShTT=    7140 NPrTT=   26096 LenC2=    6946 LenP2D=   19115.
 LDataN:  DoStor=T MaxTD1= 5 Len=  102
 Symmetrizing basis deriv contribution to polar:
 IMax=3 JMax=2 DiffMx= 0.00D+00
 G2DrvN: will do    27 centers at a time, making    1 passes.
 Calling FoFCou, ICntrl=  3107 FMM=F I1Cent=   0 AccDes= 0.00D+00.
 NEqPCM:  Using equilibrium solvation (IEInf=0, Eps=   2.3741, EpsInf=   2.2383)
 G2PCM: DoFxE=T DoFxN=T DoGrad=T DoDP/DQ/DG/TGxP=FFFF NFrqRd=   0 IEInf=0 SqF1=F DoCFld=F IF1Alg=4.
 End of G2Drv F.D. properties file   721 does not exist.
 End of G2Drv F.D. properties file   722 does not exist.
 End of G2Drv F.D. properties file   788 does not exist.
          IDoAtm=11111111111111111111111111
 NEqPCM:  Using equilibrium solvation (IEInf=0, Eps=   2.3741, EpsInf=   2.2383)
          Differentiating once with respect to electric field.
                with respect to dipole field.
          Differentiating once with respect to nuclear coordinates.
 Keep R1 ints in memory in canonical form, NReq=1021395223.
          There are    81 degrees of freedom in the 1st order CPHF.  IDoFFX=6 NUNeed=     3.
     78 vectors produced by pass  0 Test12= 1.28D-14 1.23D-09 XBig12= 5.86D+01 2.58D+00.
 AX will form    78 AO Fock derivatives at one time.
     78 vectors produced by pass  1 Test12= 1.28D-14 1.23D-09 XBig12= 5.34D+00 4.42D-01.
     78 vectors produced by pass  2 Test12= 1.28D-14 1.23D-09 XBig12= 1.78D-01 5.73D-02.
     78 vectors produced by pass  3 Test12= 1.28D-14 1.23D-09 XBig12= 2.02D-03 5.74D-03.
     78 vectors produced by pass  4 Test12= 1.28D-14 1.23D-09 XBig12= 1.34D-05 4.24D-04.
     78 vectors produced by pass  5 Test12= 1.28D-14 1.23D-09 XBig12= 7.31D-08 3.64D-05.
     65 vectors produced by pass  6 Test12= 1.28D-14 1.23D-09 XBig12= 3.55D-10 1.99D-06.
     20 vectors produced by pass  7 Test12= 1.28D-14 1.23D-09 XBig12= 1.67D-12 1.21D-07.
      3 vectors produced by pass  8 Test12= 1.28D-14 1.23D-09 XBig12= 7.57D-15 7.74D-09.
 InvSVY:  IOpt=1 It=  1 EMax= 2.99D-15
 Solved reduced A of dimension   556 with    81 vectors.
 Isotropic polarizability for W=    0.000000      137.36 Bohr**3.
 End of Minotr F.D. properties file   721 does not exist.
 End of Minotr F.D. properties file   722 does not exist.
 End of Minotr F.D. properties file   788 does not exist.

 **********************************************************************

            Population analysis using the SCF Density.

 **********************************************************************

 Orbital symmetries:
       Occupied  (A) (A) (A) (A) (A) (A) (A) (A) (A) (A) (A) (A)
                 (A) (A) (A) (A) (A) (A) (A) (A) (A) (A) (A) (A)
                 (A) (A) (A) (A) (A) (A) (A) (A) (A) (A) (A) (A)
                 (A) (A) (A) (A) (A) (A) (A) (A) (A) (A) (A) (A)
                 (A) (A) (A) (A)
       Virtual   (A) (A) (A) (A) (A) (A) (A) (A) (A) (A) (A) (A)
                 (A) (A) (A) (A) (A) (A) (A) (A) (A) (A) (A) (A)
                 (A) (A) (A) (A) (A) (A) (A) (A) (A) (A) (A) (A)
                 (A) (A) (A) (A) (A) (A) (A) (A) (A) (A) (A) (A)
                 (A) (A) (A) (A) (A) (A) (A) (A) (A) (A) (A) (A)
                 (A) (A) (A) (A) (A) (A) (A) (A) (A) (A) (A) (A)
                 (A) (A) (A) (A) (A) (A) (A) (A) (A) (A) (A) (A)
                 (A) (A) (A) (A) (A) (A) (A) (A) (A) (A) (A) (A)
                 (A) (A) (A) (A) (A) (A) (A) (A) (A) (A) (A) (A)
                 (A) (A) (A) (A) (A) (A) (A) (A) (A) (A) (A) (A)
                 (A) (A) (A) (A) (A) (A) (A) (A) (A) (A) (A) (A)
                 (A) (A) (A) (A) (A) (A) (A) (A) (A) (A) (A) (A)
                 (A) (A) (A) (A) (A) (A) (A) (A) (A) (A) (A) (A)
                 (A) (A) (A) (A) (A) (A) (A) (A) (A) (A) (A) (A)
                 (A) (A) (A) (A) (A) (A) (A) (A) (A) (A) (A) (A)
                 (A) (A) (A) (A) (A) (A) (A) (A) (A) (A) (A) (A)
                 (A) (A) (A) (A) (A) (A) (A)
 The electronic state is 1-A.
 Alpha  occ. eigenvalues -- -101.68792 -19.25543 -10.40038 -10.36777 -10.32225
 Alpha  occ. eigenvalues --  -10.31259 -10.31232 -10.30186 -10.30080 -10.30050
 Alpha  occ. eigenvalues --  -10.29686 -10.29207 -10.29010  -9.59535  -7.34902
 Alpha  occ. eigenvalues --   -7.33980  -7.33911  -1.14499  -0.97844  -0.96150
 Alpha  occ. eigenvalues --   -0.89929  -0.86025  -0.83820  -0.79556  -0.77588
 Alpha  occ. eigenvalues --   -0.72960  -0.70511  -0.62719  -0.61631  -0.60762
 Alpha  occ. eigenvalues --   -0.59596  -0.57495  -0.55478  -0.54845  -0.53431
 Alpha  occ. eigenvalues --   -0.52542  -0.49932  -0.49800  -0.48957  -0.48601
 Alpha  occ. eigenvalues --   -0.47408  -0.45887  -0.45352  -0.44687  -0.43064
 Alpha  occ. eigenvalues --   -0.42832  -0.41364  -0.40118  -0.38208  -0.34791
 Alpha  occ. eigenvalues --   -0.33873  -0.28291
 Alpha virt. eigenvalues --    0.02930   0.04843   0.07725   0.12608   0.13316
 Alpha virt. eigenvalues --    0.14512   0.15302   0.16456   0.17480   0.18562
 Alpha virt. eigenvalues --    0.19276   0.20640   0.21728   0.22242   0.22713
 Alpha virt. eigenvalues --    0.23745   0.24443   0.24785   0.26457   0.30015
 Alpha virt. eigenvalues --    0.30787   0.31239   0.33811   0.34659   0.36753
 Alpha virt. eigenvalues --    0.38918   0.40360   0.41234   0.42464   0.44775
 Alpha virt. eigenvalues --    0.47615   0.48135   0.50884   0.52176   0.52724
 Alpha virt. eigenvalues --    0.53415   0.54229   0.54917   0.55710   0.56903
 Alpha virt. eigenvalues --    0.58006   0.58532   0.60398   0.62883   0.63486
 Alpha virt. eigenvalues --    0.64849   0.66077   0.68558   0.69048   0.69817
 Alpha virt. eigenvalues --    0.70314   0.70822   0.71234   0.72450   0.73096
 Alpha virt. eigenvalues --    0.73719   0.73898   0.74713   0.74998   0.75886
 Alpha virt. eigenvalues --    0.76327   0.77149   0.77615   0.78330   0.78469
 Alpha virt. eigenvalues --    0.78686   0.79579   0.80021   0.80955   0.82458
 Alpha virt. eigenvalues --    0.83148   0.83340   0.84583   0.86753   0.87075
 Alpha virt. eigenvalues --    0.88568   0.89863   0.91018   0.91872   0.93074
 Alpha virt. eigenvalues --    0.95059   0.97069   0.98640   1.01994   1.04168
 Alpha virt. eigenvalues --    1.06595   1.08190   1.09313   1.10875   1.13703
 Alpha virt. eigenvalues --    1.14764   1.17530   1.18948   1.23662   1.24359
 Alpha virt. eigenvalues --    1.25032   1.26654   1.29889   1.33400   1.34367
 Alpha virt. eigenvalues --    1.34404   1.37717   1.41347   1.43950   1.46068
 Alpha virt. eigenvalues --    1.55226   1.58544   1.59909   1.60843   1.62055
 Alpha virt. eigenvalues --    1.62372   1.65661   1.66104   1.66655   1.69629
 Alpha virt. eigenvalues --    1.70848   1.73596   1.75474   1.77803   1.79286
 Alpha virt. eigenvalues --    1.80787   1.81433   1.82711   1.83050   1.84087
 Alpha virt. eigenvalues --    1.85127   1.85877   1.86651   1.87509   1.88325
 Alpha virt. eigenvalues --    1.89916   1.91041   1.91939   1.94050   1.94489
 Alpha virt. eigenvalues --    1.96324   1.97093   1.99813   2.01378   2.03643
 Alpha virt. eigenvalues --    2.05160   2.06443   2.07713   2.08852   2.10321
 Alpha virt. eigenvalues --    2.14455   2.15602   2.16624   2.17274   2.18747
 Alpha virt. eigenvalues --    2.21566   2.24218   2.25385   2.29171   2.30498
 Alpha virt. eigenvalues --    2.33341   2.34824   2.35784   2.36346   2.39055
 Alpha virt. eigenvalues --    2.41304   2.42959   2.44756   2.48090   2.48557
 Alpha virt. eigenvalues --    2.49448   2.53013   2.56215   2.57712   2.65206
 Alpha virt. eigenvalues --    2.66241   2.68961   2.70760   2.73320   2.74616
 Alpha virt. eigenvalues --    2.76431   2.78441   2.79047   2.79366   2.81909
 Alpha virt. eigenvalues --    2.82214   2.83686   2.87516   2.92065   2.95177
 Alpha virt. eigenvalues --    2.99494   3.01190   3.02048   3.05197   3.08598
 Alpha virt. eigenvalues --    3.11769   3.13243   3.20364   3.21982   3.25883
 Alpha virt. eigenvalues --    3.27061   3.47912   3.48605   3.70741
          Condensed to atoms (all electrons):
               1          2          3          4          5          6
     1  C    5.082927   0.003627  -0.096525  -0.001381   0.590542  -0.002180
     2  C    0.003627   4.721000  -0.006984   0.630790   0.002694  -0.002706
     3  C   -0.096525  -0.006984   5.193529  -0.004933  -0.006452   0.582254
     4  C   -0.001381   0.630790  -0.004933   5.105726  -0.001382  -0.000419
     5  C    0.590542   0.002694  -0.006452  -0.001382   4.963721   0.274167
     6  C   -0.002180  -0.002706   0.582254  -0.000419   0.274167   4.989799
     7  C    0.010390  -0.001945   0.335364   0.013100   0.009892  -0.060832
     8  H   -0.000614   0.000402  -0.015020  -0.002266   0.000691  -0.015230
     9  H    0.000462  -0.000039  -0.001005   0.000002  -0.000652   0.001647
    10  C    0.000508   0.007619  -0.048579  -0.168735  -0.000433   0.002694
    11  H   -0.000012  -0.000303   0.006406   0.011261   0.000012  -0.000149
    12  H   -0.000015  -0.000362  -0.014622   0.002929   0.000074  -0.000151
    13  C    0.000079  -0.031432  -0.006815   0.269317   0.000025   0.001191
    14  O    0.000000   0.000263  -0.000079  -0.080315  -0.000000  -0.000000
    15  H   -0.000017   0.003518   0.004525   0.370418  -0.000882   0.002620
    16  H    0.000304   0.409459  -0.000198  -0.021244   0.001186  -0.000242
    17  C    0.334764  -0.000083   0.333490   0.003573  -0.091798  -0.109243
    18  H    0.003056   0.000154  -0.001015   0.000157   0.000385   0.000604
    19  H   -0.008165  -0.002548   0.001279  -0.009072   0.001263   0.003298
    20  Cl   0.000383   0.286298   0.000373  -0.086066  -0.000121   0.000069
    21  C    0.403561  -0.000142   0.009069   0.000019  -0.063934   0.010142
    22  H   -0.015858  -0.000547   0.000472   0.000053   0.001517  -0.000370
    23  H   -0.010488  -0.000004  -0.000598   0.000001  -0.012162   0.000429
    24  H   -0.015151   0.000026   0.000584  -0.000005   0.002854  -0.000539
    25  H    0.007431   0.000008  -0.065521  -0.000267  -0.053478   0.442421
    26  H   -0.064382  -0.000019   0.007764   0.000006   0.443963  -0.056678
               7          8          9         10         11         12
     1  C    0.010390  -0.000614   0.000462   0.000508  -0.000012  -0.000015
     2  C   -0.001945   0.000402  -0.000039   0.007619  -0.000303  -0.000362
     3  C    0.335364  -0.015020  -0.001005  -0.048579   0.006406  -0.014622
     4  C    0.013100  -0.002266   0.000002  -0.168735   0.011261   0.002929
     5  C    0.009892   0.000691  -0.000652  -0.000433   0.000012   0.000074
     6  C   -0.060832  -0.015230   0.001647   0.002694  -0.000149  -0.000151
     7  C    4.713772   0.380481   0.341920   0.308160  -0.009192  -0.007492
     8  H    0.380481   0.662649  -0.023272  -0.025904  -0.005175   0.006490
     9  H    0.341920  -0.023272   0.648872  -0.006570  -0.005942  -0.008275
    10  C    0.308160  -0.025904  -0.006570   5.091619   0.340901   0.350447
    11  H   -0.009192  -0.005175  -0.005942   0.340901   0.606622  -0.006045
    12  H   -0.007492   0.006490  -0.008275   0.350447  -0.006045   0.592419
    13  C   -0.035941  -0.007862   0.006606   0.295142  -0.008040  -0.004564
    14  O    0.004654   0.000157  -0.000163  -0.088144   0.007677   0.000909
    15  H    0.000330   0.000409   0.000160  -0.002668  -0.000285   0.000101
    16  H    0.000096   0.000004  -0.000003  -0.000400   0.000009   0.000024
    17  C   -0.079820   0.009923  -0.005806  -0.000313   0.000227   0.006703
    18  H    0.004152  -0.000269   0.001160  -0.001973  -0.000048   0.000643
    19  H   -0.010278  -0.000162   0.000149   0.006364  -0.000087   0.001230
    20  Cl   0.000014  -0.000003   0.000001  -0.002290  -0.000003   0.000859
    21  C   -0.000224   0.000006   0.000010   0.000000  -0.000000   0.000010
    22  H    0.000005  -0.000001   0.000003  -0.000011   0.000000  -0.000012
    23  H    0.000007  -0.000000  -0.000000   0.000000   0.000000  -0.000000
    24  H    0.000014   0.000000  -0.000007   0.000002  -0.000000   0.000003
    25  H   -0.012040   0.004820   0.000306   0.000141  -0.000008   0.000001
    26  H   -0.000312   0.000009   0.000006   0.000006  -0.000000  -0.000000
              13         14         15         16         17         18
     1  C    0.000079   0.000000  -0.000017   0.000304   0.334764   0.003056
     2  C   -0.031432   0.000263   0.003518   0.409459  -0.000083   0.000154
     3  C   -0.006815  -0.000079   0.004525  -0.000198   0.333490  -0.001015
     4  C    0.269317  -0.080315   0.370418  -0.021244   0.003573   0.000157
     5  C    0.000025  -0.000000  -0.000882   0.001186  -0.091798   0.000385
     6  C    0.001191  -0.000000   0.002620  -0.000242  -0.109243   0.000604
     7  C   -0.035941   0.004654   0.000330   0.000096  -0.079820   0.004152
     8  H   -0.007862   0.000157   0.000409   0.000004   0.009923  -0.000269
     9  H    0.006606  -0.000163   0.000160  -0.000003  -0.005806   0.001160
    10  C    0.295142  -0.088144  -0.002668  -0.000400  -0.000313  -0.001973
    11  H   -0.008040   0.007677  -0.000285   0.000009   0.000227  -0.000048
    12  H   -0.004564   0.000909   0.000101   0.000024   0.006703   0.000643
    13  C    4.767532   0.695091  -0.022591   0.006805  -0.004651   0.000266
    14  O    0.695091   7.684158   0.001256  -0.000144   0.000017  -0.000001
    15  H   -0.022591   0.001256   0.568548  -0.010881  -0.000280   0.000001
    16  H    0.006805  -0.000144  -0.010881   0.552862  -0.000184   0.000008
    17  C   -0.004651   0.000017  -0.000280  -0.000184   4.857576   0.333074
    18  H    0.000266  -0.000001   0.000001   0.000008   0.333074   0.610548
    19  H    0.000325  -0.000130   0.000043   0.000180   0.331226  -0.015226
    20  Cl   0.008419  -0.000850   0.003677  -0.037239  -0.006471   0.000014
    21  C   -0.000001  -0.000000   0.000001  -0.000001  -0.066862  -0.000788
    22  H    0.000001   0.000000   0.000000  -0.000105  -0.005832  -0.000082
    23  H   -0.000000   0.000000  -0.000000   0.000002   0.008809  -0.000240
    24  H    0.000000   0.000000  -0.000000   0.000002  -0.005671   0.001965
    25  H   -0.000008   0.000000   0.000674  -0.000006   0.014733  -0.000386
    26  H    0.000001  -0.000000  -0.000003   0.000016   0.015158  -0.000379
              19         20         21         22         23         24
     1  C   -0.008165   0.000383   0.403561  -0.015858  -0.010488  -0.015151
     2  C   -0.002548   0.286298  -0.000142  -0.000547  -0.000004   0.000026
     3  C    0.001279   0.000373   0.009069   0.000472  -0.000598   0.000584
     4  C   -0.009072  -0.086066   0.000019   0.000053   0.000001  -0.000005
     5  C    0.001263  -0.000121  -0.063934   0.001517  -0.012162   0.002854
     6  C    0.003298   0.000069   0.010142  -0.000370   0.000429  -0.000539
     7  C   -0.010278   0.000014  -0.000224   0.000005   0.000007   0.000014
     8  H   -0.000162  -0.000003   0.000006  -0.000001  -0.000000   0.000000
     9  H    0.000149   0.000001   0.000010   0.000003  -0.000000  -0.000007
    10  C    0.006364  -0.002290   0.000000  -0.000011   0.000000   0.000002
    11  H   -0.000087  -0.000003  -0.000000   0.000000   0.000000  -0.000000
    12  H    0.001230   0.000859   0.000010  -0.000012  -0.000000   0.000003
    13  C    0.000325   0.008419  -0.000001   0.000001  -0.000000   0.000000
    14  O   -0.000130  -0.000850  -0.000000   0.000000   0.000000   0.000000
    15  H    0.000043   0.003677   0.000001   0.000000  -0.000000  -0.000000
    16  H    0.000180  -0.037239  -0.000001  -0.000105   0.000002   0.000002
    17  C    0.331226  -0.006471  -0.066862  -0.005832   0.008809  -0.005671
    18  H   -0.015226   0.000014  -0.000788  -0.000082  -0.000240   0.001965
    19  H    0.639792   0.020299  -0.000649   0.003112  -0.000240  -0.000294
    20  Cl   0.020299  16.912736  -0.000879   0.003246   0.000003  -0.000001
    21  C   -0.000649  -0.000879   4.520513   0.380074   0.386430   0.383127
    22  H    0.003112   0.003246   0.380074   0.631226  -0.019722  -0.023135
    23  H   -0.000240   0.000003   0.386430  -0.019722   0.628539  -0.020344
    24  H   -0.000294  -0.000001   0.383127  -0.023135  -0.020344   0.631424
    25  H   -0.000337   0.000001  -0.000293   0.000007   0.000006   0.000005
    26  H   -0.000373  -0.000000  -0.010758   0.000137   0.004509   0.000092
              25         26
     1  C    0.007431  -0.064382
     2  C    0.000008  -0.000019
     3  C   -0.065521   0.007764
     4  C   -0.000267   0.000006
     5  C   -0.053478   0.443963
     6  C    0.442421  -0.056678
     7  C   -0.012040  -0.000312
     8  H    0.004820   0.000009
     9  H    0.000306   0.000006
    10  C    0.000141   0.000006
    11  H   -0.000008  -0.000000
    12  H    0.000001  -0.000000
    13  C   -0.000008   0.000001
    14  O    0.000000  -0.000000
    15  H    0.000674  -0.000003
    16  H   -0.000006   0.000016
    17  C    0.014733   0.015158
    18  H   -0.000386  -0.000379
    19  H   -0.000337  -0.000373
    20  Cl   0.000001  -0.000000
    21  C   -0.000293  -0.010758
    22  H    0.000007   0.000137
    23  H    0.000006   0.004509
    24  H    0.000005   0.000092
    25  H    0.659662  -0.003587
    26  H   -0.003587   0.659186
 Mulliken charges:
               1
     1  C   -0.223246
     2  C   -0.018742
     3  C   -0.206765
     4  C   -0.031266
     5  C   -0.061692
     6  C   -0.062596
     7  C    0.095727
     8  H    0.029740
     9  H    0.050431
    10  C   -0.057582
    11  H    0.062173
    12  H    0.078697
    13  C    0.071105
    14  O   -0.224352
    15  H    0.081327
    16  H    0.099689
    17  C    0.127743
    18  H    0.064222
    19  H    0.039000
    20  Cl  -0.102469
    21  C    0.051566
    22  H    0.045820
    23  H    0.035067
    24  H    0.045049
    25  H    0.005716
    26  H    0.005638
 Sum of Mulliken charges =  -0.00000
 Mulliken charges with hydrogens summed into heavy atoms:
               1
     1  C   -0.223246
     2  C    0.080947
     3  C   -0.206765
     4  C    0.050061
     5  C   -0.056054
     6  C   -0.056879
     7  C    0.175898
    10  C    0.083288
    13  C    0.071105
    14  O   -0.224352
    17  C    0.230965
    20  Cl  -0.102469
    21  C    0.177501
 APT charges:
               1
     1  C    0.049343
     2  C    0.328936
     3  C   -0.049341
     4  C   -0.300504
     5  C   -0.072220
     6  C   -0.042880
     7  C    0.143707
     8  H   -0.030435
     9  H   -0.048492
    10  C   -0.092345
    11  H   -0.008275
    12  H    0.027390
    13  C    0.948493
    14  O   -0.758138
    15  H    0.080422
    16  H    0.061571
    17  C   -0.110800
    18  H    0.043921
    19  H    0.054624
    20  Cl  -0.312084
    21  C    0.053410
    22  H   -0.012501
    23  H   -0.010102
    24  H   -0.022580
    25  H    0.041293
    26  H    0.037587
 Sum of APT charges =   0.00000
 APT charges with hydrogens summed into heavy atoms:
               1
     1  C    0.049343
     2  C    0.390507
     3  C   -0.049341
     4  C   -0.220082
     5  C   -0.034633
     6  C   -0.001586
     7  C    0.064780
    10  C   -0.073229
    13  C    0.948493
    14  O   -0.758138
    17  C   -0.012255
    20  Cl  -0.312084
    21  C    0.008227
 Electronic spatial extent (au):  <R**2>=           2795.5026
 Charge=             -0.0000 electrons
 Dipole moment (field-independent basis, Debye):
    X=             -3.0689    Y=             -1.3946    Z=              0.4625  Tot=              3.4025
 Quadrupole moment (field-independent basis, Debye-Ang):
   XX=            -98.8926   YY=            -80.9157   ZZ=            -77.0213
   XY=             -5.4450   XZ=              0.9991   YZ=              0.5658
 Traceless Quadrupole moment (field-independent basis, Debye-Ang):
   XX=            -13.2828   YY=              4.6941   ZZ=              8.5886
   XY=             -5.4450   XZ=              0.9991   YZ=              0.5658
 Octapole moment (field-independent basis, Debye-Ang**2):
  XXX=            -40.8213  YYY=              2.0228  ZZZ=              0.2090  XYY=             11.4248
  XXY=              9.5412  XXZ=              2.6668  XZZ=              2.1651  YZZ=              1.2908
  YYZ=             -0.1864  XYZ=              0.4087
 Hexadecapole moment (field-independent basis, Debye-Ang**3):
 XXXX=          -2236.1481 YYYY=          -1237.2649 ZZZZ=           -396.6221 XXXY=            -27.3949
 XXXZ=             -7.6685 YYYX=            -15.7889 YYYZ=             -1.4630 ZZZX=             -5.8424
 ZZZY=             -0.8670 XXYY=           -546.4721 XXZZ=           -388.7408 YYZZ=           -256.5806
 XXYZ=             -6.5018 YYXZ=             -7.6682 ZZXY=              4.6883
 N-N= 8.732922719291D+02 E-N=-4.003564784993D+03  KE= 9.552501357315D+02
  Exact polarizability:     138.373     -15.978     147.008     -14.441     -10.768     126.698
 Approx polarizability:     131.993      -9.307     144.481     -16.263     -15.206     139.033
   1 Symmetry operations used in ECPInt.
 ECPInt:  NShTT=    7140 NPrTT=   26096 LenC2=    6946 LenP2D=   19115.
 LDataN:  DoStor=T MaxTD1= 6 Len=  172
 D2PCM: PCM CHGder 2nd derivatives, FixD1E=F FixD2E=F DoIter=F DoCFld=F I1PDM=0
 Calling FoFJK, ICntrl=    100127 FMM=F ISym2X=0 I1Cent= 0 IOpClX= 0 NMat=1 NMatS=1 NMatT=0.
 Full mass-weighted force constant matrix:
 Low frequencies ---  -27.6821   -1.3926   -0.0021   -0.0018   -0.0014    7.5919
 Low frequencies ---    9.9954   35.0313   62.9320
 ******    1 imaginary frequencies (negative Signs) ****** 
 Diagonal vibrational polarizability:
       47.2821830      60.3269761      68.9120388
 Harmonic frequencies (cm**-1), IR intensities (KM/Mole), Raman scattering
 activities (A**4/AMU), depolarization ratios for plane and unpolarized
 incident light, reduced masses (AMU), force constants (mDyne/A),
 and normal coordinates:
                      1                      2                      3
                      A                      A                      A
 Frequencies --    -27.5033                34.9914                62.9126
 Red. masses --      6.3052                 6.9829                 5.3304
 Frc consts  --      0.0028                 0.0050                 0.0124
 IR Inten    --      3.3892                 0.4214                 0.6130
  Atom  AN      X      Y      Z        X      Y      Z        X      Y      Z
     1   6    -0.06  -0.00   0.07    -0.18  -0.10  -0.03     0.07  -0.03   0.06
     2   6    -0.04   0.04  -0.08     0.14   0.07   0.01    -0.12   0.10  -0.11
     3   6     0.00   0.04  -0.06    -0.04   0.02   0.04    -0.02  -0.12  -0.03
     4   6    -0.03   0.05   0.02     0.04   0.04  -0.02    -0.21   0.07  -0.07
     5   6     0.00  -0.06   0.05    -0.16  -0.10  -0.03     0.02  -0.10   0.02
     6   6     0.04  -0.04  -0.03    -0.07  -0.03   0.02    -0.04  -0.16  -0.05
     7   6     0.02   0.09  -0.16    -0.02   0.04   0.05    -0.01  -0.11  -0.03
     8   1     0.03  -0.01  -0.22     0.01   0.07   0.06    -0.04  -0.13  -0.04
     9   1     0.03   0.17  -0.24    -0.03   0.01   0.08     0.03  -0.09  -0.06
    10   6     0.01   0.17  -0.08    -0.05   0.04  -0.01    -0.00  -0.07   0.04
    11   1    -0.00   0.21  -0.23    -0.06   0.03  -0.05     0.06  -0.04   0.14
    12   1    -0.02   0.35   0.03    -0.09   0.05   0.01     0.04  -0.13  -0.00
    13   6     0.05  -0.01   0.11     0.00   0.02  -0.03    -0.12   0.03   0.02
    14   8     0.14  -0.19   0.34     0.01  -0.01  -0.06    -0.13   0.09   0.06
    15   1    -0.04   0.10   0.05    -0.05   0.03  -0.06    -0.38   0.09  -0.12
    16   1    -0.08   0.10  -0.14     0.15   0.09   0.00    -0.19   0.13  -0.18
    17   6    -0.07   0.07   0.00    -0.09  -0.01   0.02     0.02  -0.07   0.01
    18   1    -0.09   0.10  -0.00     0.01  -0.02  -0.01    -0.05  -0.03   0.02
    19   1    -0.10   0.10   0.01    -0.12   0.06   0.09     0.05  -0.11  -0.02
    20  17     0.02  -0.05  -0.15     0.28   0.09   0.06     0.14   0.11  -0.04
    21   6    -0.12  -0.01   0.15    -0.28  -0.19  -0.08     0.18   0.07   0.16
    22   1    -0.16   0.02   0.14    -0.37  -0.12  -0.10     0.25   0.02   0.23
    23   1    -0.10  -0.06   0.19    -0.33  -0.24  -0.11     0.20   0.08   0.18
    24   1    -0.16   0.01   0.16    -0.25  -0.26  -0.08     0.17   0.19   0.14
    25   1     0.09  -0.08  -0.07    -0.06  -0.02   0.02    -0.07  -0.20  -0.08
    26   1     0.02  -0.12   0.09    -0.20  -0.15  -0.06     0.03  -0.10   0.03
                      4                      5                      6
                      A                      A                      A
 Frequencies --     89.5930               125.1366               162.8236
 Red. masses --      3.2236                10.2161                 1.1088
 Frc consts  --      0.0152                 0.0943                 0.0173
 IR Inten    --      2.6543                 1.0499                 0.0371
  Atom  AN      X      Y      Z        X      Y      Z        X      Y      Z
     1   6     0.03  -0.00  -0.01     0.02  -0.05  -0.02    -0.02  -0.02  -0.01
     2   6    -0.08  -0.02  -0.01     0.05   0.07  -0.07    -0.02  -0.01  -0.00
     3   6     0.00  -0.02  -0.04    -0.01  -0.07   0.07     0.01   0.00   0.01
     4   6    -0.09  -0.02  -0.03     0.07   0.08  -0.19    -0.02  -0.01  -0.00
     5   6     0.18   0.13   0.09    -0.04  -0.03  -0.02     0.02   0.02   0.02
     6   6     0.16   0.12   0.07    -0.05  -0.04   0.04     0.04   0.03   0.03
     7   6    -0.02  -0.04  -0.08    -0.01  -0.05   0.08     0.00   0.00  -0.01
     8   1    -0.03  -0.07  -0.10     0.10   0.03   0.10     0.01   0.00  -0.01
     9   1    -0.02   0.00  -0.11    -0.04  -0.13   0.17    -0.01   0.01  -0.01
    10   6    -0.01  -0.02  -0.04    -0.09  -0.03  -0.09    -0.01   0.01  -0.02
    11   1     0.01  -0.00  -0.02    -0.13  -0.01  -0.25    -0.01   0.02  -0.03
    12   1     0.01  -0.00  -0.04    -0.25   0.02  -0.03    -0.02   0.03  -0.01
    13   6    -0.05  -0.02   0.00     0.04  -0.10  -0.11    -0.01   0.00  -0.00
    14   8    -0.04  -0.02   0.06     0.16  -0.43   0.06    -0.01   0.01   0.00
    15   1    -0.15  -0.04  -0.07     0.11   0.09  -0.16    -0.02  -0.01  -0.01
    16   1    -0.12  -0.04  -0.02     0.11  -0.05   0.04    -0.03  -0.01  -0.01
    17   6    -0.08  -0.10  -0.09     0.03  -0.09   0.04    -0.03  -0.03  -0.02
    18   1    -0.19  -0.15  -0.03     0.04  -0.11   0.04    -0.05  -0.06   0.01
    19   1    -0.08  -0.13  -0.21     0.04  -0.10   0.03    -0.04  -0.03  -0.06
    20  17     0.03   0.04   0.07    -0.13   0.31   0.09     0.01  -0.01   0.00
    21   6    -0.06  -0.08  -0.07     0.13  -0.00  -0.06     0.01  -0.00  -0.01
    22   1    -0.08  -0.11  -0.37     0.19  -0.02   0.09    -0.07   0.15   0.54
    23   1     0.09   0.05   0.04     0.04  -0.01  -0.16    -0.35  -0.31  -0.27
    24   1    -0.27  -0.25   0.06     0.28   0.06  -0.14     0.49   0.19  -0.27
    25   1     0.27   0.21   0.14    -0.10  -0.03   0.06     0.07   0.06   0.05
    26   1     0.29   0.23   0.17    -0.06  -0.00  -0.05     0.03   0.03   0.02
                      7                      8                      9
                      A                      A                      A
 Frequencies --    170.8444               195.8283               204.9809
 Red. masses --      2.7045                 3.5370                 2.9963
 Frc consts  --      0.0465                 0.0799                 0.0742
 IR Inten    --      0.8286                 6.4992                 0.2842
  Atom  AN      X      Y      Z        X      Y      Z        X      Y      Z
     1   6     0.02  -0.05  -0.01    -0.05  -0.05  -0.05     0.10   0.04   0.05
     2   6     0.03   0.02   0.06     0.23   0.12   0.12     0.11   0.08   0.07
     3   6    -0.03  -0.07   0.06    -0.07  -0.07  -0.10     0.05   0.01   0.01
     4   6    -0.01   0.01   0.05     0.11   0.09   0.12    -0.06   0.03   0.03
     5   6    -0.01  -0.00   0.01     0.03  -0.00  -0.01     0.06   0.01   0.02
     6   6    -0.03  -0.03   0.05     0.02  -0.02  -0.04     0.03  -0.02   0.00
     7   6     0.03   0.02   0.01    -0.06  -0.06  -0.08    -0.05  -0.06  -0.10
     8   1     0.19   0.07   0.00    -0.15  -0.12  -0.10    -0.06  -0.18  -0.17
     9   1     0.05  -0.03   0.06     0.02   0.00  -0.17    -0.12   0.05  -0.18
    10   6    -0.13   0.20  -0.13    -0.00  -0.03   0.09    -0.05  -0.03  -0.04
    11   1    -0.11   0.31  -0.41     0.02  -0.03   0.17    -0.01   0.00  -0.02
    12   1    -0.35   0.36   0.02     0.10  -0.05   0.05    -0.04  -0.02  -0.04
    13   6    -0.06   0.06  -0.02    -0.02   0.00   0.07    -0.12  -0.03   0.00
    14   8    -0.04   0.02   0.01    -0.03  -0.00  -0.00    -0.12  -0.03   0.03
    15   1     0.05   0.00   0.06     0.23   0.15   0.22     0.01   0.08   0.09
    16   1     0.08   0.07   0.07     0.45   0.22   0.23     0.29   0.17   0.15
    17   6    -0.01  -0.10   0.02    -0.13  -0.11  -0.12     0.17   0.11   0.10
    18   1    -0.00  -0.12   0.03    -0.20  -0.13  -0.09     0.30   0.25  -0.00
    19   1    -0.00  -0.11   0.01    -0.12  -0.13  -0.18     0.20   0.14   0.29
    20  17     0.03  -0.05  -0.00    -0.03   0.02  -0.03    -0.02   0.01  -0.03
    21   6     0.14  -0.01  -0.08     0.03   0.04   0.05    -0.04  -0.10  -0.08
    22   1     0.25  -0.12  -0.19     0.09  -0.00   0.13    -0.19   0.02  -0.06
    23   1     0.22   0.17  -0.08     0.06   0.04   0.10    -0.18  -0.21  -0.19
    24   1     0.07  -0.04  -0.05     0.00   0.17   0.04     0.10  -0.26  -0.12
    25   1    -0.04   0.01   0.08     0.09   0.03  -0.02    -0.03  -0.09  -0.05
    26   1     0.00   0.05   0.01     0.12   0.06   0.06     0.00  -0.05  -0.02
                     10                     11                     12
                      A                      A                      A
 Frequencies --    276.6099               307.1256               347.6300
 Red. masses --      2.4295                 3.4015                 2.7174
 Frc consts  --      0.1095                 0.1890                 0.1935
 IR Inten    --      0.8059                 3.2016                 6.0004
  Atom  AN      X      Y      Z        X      Y      Z        X      Y      Z
     1   6     0.02  -0.01  -0.08     0.15   0.12   0.04     0.04   0.10   0.13
     2   6     0.05   0.02   0.05    -0.08  -0.00  -0.03     0.12  -0.00   0.03
     3   6     0.05   0.02  -0.04    -0.12  -0.14  -0.10    -0.05  -0.02  -0.04
     4   6    -0.08  -0.01  -0.03     0.09   0.05   0.08    -0.05  -0.05  -0.10
     5   6     0.04   0.00  -0.08     0.12   0.10   0.02     0.00   0.02   0.09
     6   6     0.05   0.04  -0.05    -0.10  -0.09  -0.10    -0.08  -0.08  -0.06
     7   6     0.08  -0.01   0.16    -0.01  -0.06   0.07     0.05   0.04   0.04
     8   1     0.18   0.30   0.33     0.01   0.07   0.14     0.09   0.22   0.15
     9   1     0.10  -0.27   0.41     0.18  -0.18   0.11     0.10  -0.13   0.19
    10   6    -0.04  -0.01  -0.06    -0.07   0.08   0.07     0.07  -0.04  -0.06
    11   1    -0.01   0.04  -0.11    -0.07   0.15  -0.11     0.06  -0.11   0.09
    12   1    -0.18  -0.05  -0.05    -0.20   0.18   0.16     0.13  -0.18  -0.15
    13   6    -0.08  -0.01  -0.05     0.05   0.03   0.06     0.00   0.02  -0.08
    14   8    -0.06  -0.03   0.05     0.04  -0.03  -0.09     0.02   0.07   0.11
    15   1    -0.01  -0.01  -0.00     0.05   0.04   0.06    -0.00  -0.07  -0.10
    16   1     0.20   0.07   0.12    -0.24  -0.04  -0.12     0.29   0.03   0.14
    17   6     0.05   0.00  -0.08     0.03  -0.01  -0.04    -0.10   0.01   0.02
    18   1     0.09  -0.00  -0.09    -0.08   0.12  -0.05    -0.39  -0.04   0.13
    19   1     0.05   0.02  -0.06     0.15  -0.14  -0.03    -0.09  -0.09  -0.25
    20  17    -0.01  -0.02   0.00     0.01   0.01   0.00    -0.01  -0.01  -0.00
    21   6    -0.08   0.03   0.12    -0.09  -0.04   0.02     0.01  -0.00  -0.08
    22   1    -0.15   0.09   0.16    -0.34   0.18   0.03    -0.05   0.03  -0.15
    23   1    -0.00  -0.13   0.28    -0.22  -0.27  -0.01    -0.11   0.05  -0.25
    24   1    -0.20   0.16   0.15    -0.01  -0.19   0.01     0.15  -0.23  -0.10
    25   1     0.08   0.08  -0.02    -0.16  -0.13  -0.12    -0.11  -0.14  -0.11
    26   1     0.04   0.02  -0.09     0.13   0.14   0.03     0.00  -0.04   0.11
                     13                     14                     15
                      A                      A                      A
 Frequencies --    386.9577               404.1671               434.5742
 Red. masses --      2.0048                 2.3281                 3.8700
 Frc consts  --      0.1769                 0.2241                 0.4306
 IR Inten    --     14.0699                 7.4068                 6.2909
  Atom  AN      X      Y      Z        X      Y      Z        X      Y      Z
     1   6     0.10   0.05  -0.05    -0.06  -0.04  -0.07     0.00  -0.02  -0.04
     2   6     0.04  -0.01  -0.01     0.08  -0.05  -0.03    -0.12   0.14   0.13
     3   6     0.04   0.00   0.14    -0.12  -0.13  -0.01    -0.05  -0.06   0.03
     4   6    -0.00  -0.03  -0.02    -0.00  -0.07  -0.07    -0.05   0.18  -0.11
     5   6    -0.03   0.05  -0.08     0.02   0.09   0.02     0.01   0.05  -0.00
     6   6    -0.09   0.01   0.05    -0.06   0.02   0.04    -0.05  -0.00   0.04
     7   6    -0.01  -0.02  -0.06    -0.01  -0.05  -0.01    -0.00   0.03  -0.04
     8   1     0.01  -0.23  -0.20     0.02  -0.06  -0.03     0.01  -0.05  -0.09
     9   1    -0.12   0.18  -0.20     0.06  -0.05  -0.03     0.03   0.08  -0.11
    10   6     0.02   0.00  -0.03     0.02  -0.01  -0.03     0.05   0.01  -0.00
    11   1     0.00  -0.00  -0.07    -0.02  -0.03  -0.09     0.13  -0.08   0.46
    12   1     0.02   0.04  -0.01    -0.01   0.02  -0.00     0.27  -0.36  -0.26
    13   6     0.02  -0.01  -0.01     0.06  -0.01  -0.02    -0.02   0.20  -0.16
    14   8     0.01   0.05   0.04     0.04   0.11   0.09     0.09  -0.12  -0.03
    15   1    -0.00  -0.02  -0.02    -0.05  -0.08  -0.09     0.11  -0.00  -0.18
    16   1     0.08  -0.01   0.02     0.10  -0.07  -0.01    -0.06   0.14   0.18
    17   6     0.05  -0.10   0.01     0.02  -0.03   0.04     0.02  -0.05   0.02
    18   1    -0.16  -0.40   0.20     0.44   0.29  -0.23     0.18   0.03  -0.06
    19   1     0.07  -0.23  -0.37     0.11   0.05   0.58     0.08  -0.05   0.20
    20  17    -0.00   0.01  -0.00    -0.01   0.02  -0.01     0.02  -0.11   0.04
    21   6    -0.06   0.01   0.06    -0.03   0.02   0.02    -0.01  -0.00   0.02
    22   1    -0.22   0.14   0.06    -0.00   0.01   0.09    -0.03   0.02   0.05
    23   1    -0.04  -0.18   0.18     0.01  -0.02   0.08     0.01  -0.06   0.07
    24   1    -0.15   0.02   0.10    -0.07   0.14   0.01    -0.05   0.05   0.02
    25   1    -0.27  -0.01   0.05    -0.04   0.13   0.13    -0.08   0.04   0.07
    26   1    -0.13   0.08  -0.19     0.13   0.25   0.08     0.04   0.14  -0.00
                     16                     17                     18
                      A                      A                      A
 Frequencies --    538.0824               544.6432               554.1783
 Red. masses --      2.5210                 2.4932                 3.4724
 Frc consts  --      0.4300                 0.4357                 0.6283
 IR Inten    --      3.6155                14.3277                 4.4462
  Atom  AN      X      Y      Z        X      Y      Z        X      Y      Z
     1   6     0.08   0.09   0.07     0.00   0.06   0.02    -0.13   0.08   0.00
     2   6     0.01   0.02   0.01    -0.08  -0.05  -0.04     0.00   0.07   0.05
     3   6    -0.07  -0.09  -0.07    -0.03  -0.09   0.00     0.11  -0.08   0.04
     4   6    -0.00   0.02  -0.07     0.10  -0.01   0.16    -0.09   0.04  -0.01
     5   6    -0.12  -0.11  -0.08    -0.06  -0.01  -0.02    -0.00   0.03   0.02
     6   6     0.13   0.12   0.07     0.01   0.03   0.05     0.01  -0.02  -0.02
     7   6    -0.04  -0.09   0.00     0.09   0.00  -0.06     0.18  -0.18  -0.02
     8   1    -0.10  -0.11   0.01     0.26   0.17   0.00     0.19  -0.25  -0.07
     9   1     0.04  -0.08  -0.04     0.09  -0.17   0.11     0.18  -0.11  -0.09
    10   6    -0.04  -0.01   0.04     0.06  -0.02  -0.15     0.10  -0.02   0.01
    11   1    -0.04   0.04  -0.13     0.14  -0.08   0.25     0.18   0.18  -0.34
    12   1    -0.17   0.06   0.10     0.30  -0.24  -0.32    -0.15   0.23   0.21
    13   6     0.04   0.03  -0.02    -0.08  -0.01  -0.01     0.02  -0.04   0.05
    14   8     0.05   0.04   0.02    -0.08  -0.03   0.02    -0.00  -0.04  -0.08
    15   1    -0.03  -0.03  -0.12     0.36   0.10   0.34    -0.21   0.04  -0.06
    16   1     0.00  -0.01   0.02    -0.04   0.01  -0.04    -0.02   0.08   0.04
    17   6    -0.00   0.01   0.00    -0.01  -0.04   0.05    -0.04  -0.00   0.08
    18   1    -0.20   0.22  -0.01    -0.01   0.07   0.01    -0.03  -0.05   0.09
    19   1     0.14  -0.16  -0.00     0.08  -0.12   0.11    -0.10   0.05   0.03
    20  17    -0.00  -0.02   0.01     0.02   0.04  -0.01    -0.01  -0.02   0.01
    21   6     0.00   0.03  -0.00    -0.03   0.06  -0.02    -0.12   0.19  -0.08
    22   1    -0.07   0.07  -0.07    -0.06   0.08  -0.03    -0.06   0.14  -0.08
    23   1    -0.03   0.02  -0.03    -0.04   0.05  -0.02    -0.13   0.27  -0.13
    24   1     0.02  -0.09   0.01    -0.03   0.03  -0.01    -0.09   0.19  -0.10
    25   1     0.36   0.33   0.23     0.05   0.15   0.15    -0.13  -0.03  -0.01
    26   1    -0.36  -0.35  -0.24    -0.12  -0.07  -0.06     0.07  -0.05   0.12
                     19                     20                     21
                      A                      A                      A
 Frequencies --    577.1290               667.5630               704.6841
 Red. masses --      3.0001                 3.6200                 1.8035
 Frc consts  --      0.5888                 0.9505                 0.5277
 IR Inten    --      7.4540                 1.3406                21.3559
  Atom  AN      X      Y      Z        X      Y      Z        X      Y      Z
     1   6     0.06   0.01   0.01    -0.04   0.05  -0.03     0.01  -0.00   0.02
     2   6     0.12   0.00   0.03     0.09  -0.11  -0.06    -0.05  -0.06  -0.10
     3   6    -0.08  -0.04  -0.02     0.02  -0.03   0.03     0.00  -0.01  -0.01
     4   6    -0.16  -0.09   0.02     0.05  -0.10  -0.03    -0.03  -0.03  -0.09
     5   6    -0.04   0.00  -0.02     0.13  -0.10  -0.04    -0.04   0.03   0.01
     6   6    -0.02   0.02   0.04     0.10  -0.13   0.04    -0.03   0.03  -0.03
     7   6     0.08   0.18  -0.03    -0.04   0.05   0.05     0.07   0.01   0.02
     8   1     0.14   0.19  -0.04    -0.10  -0.09  -0.03    -0.03  -0.17  -0.07
     9   1     0.18   0.13  -0.02     0.03   0.18  -0.11     0.16   0.17  -0.17
    10   6     0.09   0.11   0.05    -0.10   0.13   0.13     0.05   0.05   0.12
    11   1     0.07   0.03   0.21    -0.03   0.08   0.48     0.10   0.16  -0.01
    12   1     0.34   0.13   0.00     0.02  -0.20  -0.07    -0.05   0.13   0.19
    13   6    -0.00  -0.05   0.10    -0.09   0.14  -0.06    -0.06   0.01  -0.02
    14   8    -0.03  -0.10  -0.13    -0.02  -0.04   0.04    -0.05  -0.03  -0.01
    15   1    -0.60  -0.10  -0.16    -0.04  -0.22  -0.16     0.59   0.06   0.20
    16   1    -0.02   0.00  -0.06    -0.01  -0.17  -0.10     0.50   0.07   0.21
    17   6    -0.00  -0.04   0.00     0.02  -0.03   0.03    -0.01   0.00  -0.01
    18   1     0.02   0.09  -0.06     0.09  -0.13   0.04    -0.02   0.08  -0.04
    19   1     0.11  -0.13   0.13     0.07  -0.10   0.00    -0.03   0.04   0.03
    20  17    -0.02   0.02  -0.02    -0.00   0.02  -0.01     0.01  -0.00   0.02
    21   6     0.02  -0.03   0.02    -0.09   0.17  -0.08     0.02  -0.03   0.02
    22   1    -0.03   0.01   0.01    -0.09   0.17  -0.08     0.01  -0.03   0.01
    23   1     0.02  -0.09   0.04    -0.10   0.21  -0.10     0.01  -0.04   0.01
    24   1     0.01  -0.06   0.03    -0.10   0.19  -0.09     0.03  -0.05   0.02
    25   1     0.10   0.16   0.15     0.12  -0.16   0.02     0.00   0.08   0.01
    26   1    -0.09   0.02  -0.08     0.16  -0.21   0.03    -0.03   0.05   0.01
                     22                     23                     24
                      A                      A                      A
 Frequencies --    711.6249               729.2987               811.5419
 Red. masses --      2.9517                 4.6720                 1.7943
 Frc consts  --      0.8807                 1.4641                 0.6962
 IR Inten    --     26.1219                42.8185                 1.2562
  Atom  AN      X      Y      Z        X      Y      Z        X      Y      Z
     1   6     0.03   0.04  -0.03     0.01   0.01  -0.00     0.05   0.05   0.04
     2   6    -0.07   0.08  -0.06    -0.17  -0.10   0.31     0.01   0.00   0.05
     3   6    -0.06   0.01   0.03    -0.02   0.01   0.01     0.05   0.05   0.04
     4   6    -0.05   0.08  -0.07    -0.18  -0.15   0.11     0.07   0.02   0.01
     5   6     0.09  -0.09  -0.04     0.03  -0.03  -0.01    -0.05  -0.04  -0.03
     6   6     0.04  -0.13   0.07     0.01  -0.04   0.02    -0.05  -0.05  -0.04
     7   6    -0.06   0.17  -0.00    -0.05   0.01   0.04     0.05   0.04   0.06
     8   1    -0.04   0.23   0.03    -0.13  -0.08  -0.00    -0.05  -0.24  -0.09
     9   1    -0.14   0.10   0.10    -0.08   0.10  -0.04    -0.11   0.30  -0.13
    10   6     0.01  -0.06  -0.03     0.00  -0.03   0.00     0.03  -0.05  -0.01
    11   1    -0.20  -0.21  -0.22    -0.08  -0.07  -0.13     0.04   0.01  -0.15
    12   1     0.09   0.20   0.09    -0.12  -0.02   0.04    -0.17  -0.02   0.06
    13   6     0.07  -0.16   0.06     0.09   0.03  -0.07    -0.04  -0.01  -0.04
    14   8    -0.00   0.04  -0.02     0.12   0.00  -0.05    -0.04  -0.01   0.03
    15   1     0.27   0.30   0.22     0.38  -0.32   0.21    -0.07  -0.06  -0.11
    16   1     0.28   0.17   0.14     0.27   0.19   0.47    -0.27  -0.10  -0.08
    17   6    -0.01  -0.05   0.00    -0.01  -0.01  -0.02    -0.08  -0.06  -0.08
    18   1     0.14  -0.04  -0.06     0.03  -0.00  -0.03     0.16   0.16  -0.25
    19   1     0.12  -0.16   0.14     0.02  -0.02   0.03    -0.05   0.02   0.27
    20  17     0.00  -0.04   0.04     0.04   0.10  -0.12     0.00   0.00  -0.01
    21   6    -0.04   0.09  -0.05    -0.01   0.03  -0.01     0.02   0.02   0.02
    22   1    -0.10   0.14  -0.06    -0.03   0.04  -0.02    -0.14   0.13  -0.12
    23   1    -0.06   0.06  -0.05    -0.02   0.02  -0.02    -0.08  -0.05  -0.06
    24   1    -0.05   0.07  -0.04    -0.01   0.01  -0.01     0.06  -0.23   0.05
    25   1     0.18  -0.04   0.13     0.07  -0.01   0.03     0.25   0.23   0.16
    26   1     0.13  -0.07  -0.01     0.05  -0.03   0.00     0.23   0.21   0.17
                     25                     26                     27
                      A                      A                      A
 Frequencies --    854.5538               884.7544               895.6019
 Red. masses --      2.6869                 2.4921                 1.9599
 Frc consts  --      1.1561                 1.1494                 0.9262
 IR Inten    --     36.5513                 4.7714                 5.0903
  Atom  AN      X      Y      Z        X      Y      Z        X      Y      Z
     1   6    -0.02  -0.02  -0.04     0.01  -0.00  -0.05    -0.03  -0.02   0.04
     2   6    -0.04  -0.02   0.17     0.03   0.02  -0.07     0.01   0.02  -0.02
     3   6    -0.07  -0.03  -0.03    -0.07  -0.02   0.05     0.01  -0.01  -0.05
     4   6     0.15   0.05  -0.13    -0.04  -0.01   0.09    -0.02   0.00   0.05
     5   6     0.07   0.04   0.01     0.13   0.02  -0.04     0.00   0.08   0.14
     6   6     0.01  -0.01   0.04    -0.03  -0.11   0.12    -0.03   0.02  -0.11
     7   6     0.04   0.09  -0.02     0.05  -0.01   0.08     0.03   0.07   0.07
     8   1    -0.01   0.08  -0.00    -0.03  -0.29  -0.08    -0.09  -0.21  -0.08
     9   1     0.14   0.06  -0.03    -0.03   0.22  -0.13    -0.05   0.32  -0.15
    10   6     0.06  -0.04   0.06     0.06  -0.04  -0.05    -0.01  -0.03  -0.03
    11   1     0.02   0.01  -0.19     0.10   0.03  -0.12    -0.09  -0.09  -0.07
    12   1    -0.00   0.23   0.21    -0.18  -0.13  -0.04    -0.14  -0.12  -0.05
    13   6    -0.07  -0.09  -0.02    -0.01   0.04  -0.05     0.01  -0.01  -0.04
    14   8    -0.11  -0.00   0.04     0.02  -0.01  -0.01     0.01   0.00   0.00
    15   1     0.16  -0.18  -0.29    -0.13   0.08   0.12    -0.08   0.06   0.07
    16   1    -0.39  -0.28   0.07     0.02   0.11  -0.12    -0.01   0.06  -0.06
    17   6     0.01   0.04   0.05    -0.08   0.16  -0.08     0.11  -0.09  -0.03
    18   1    -0.15  -0.01   0.12    -0.27   0.31  -0.07     0.11  -0.10  -0.02
    19   1     0.04  -0.04  -0.10    -0.10   0.18  -0.11     0.22  -0.22  -0.02
    20  17     0.01   0.02  -0.04    -0.01  -0.01   0.02    -0.00  -0.00   0.01
    21   6    -0.01  -0.02  -0.02     0.01  -0.05  -0.01    -0.06   0.02  -0.01
    22   1     0.11  -0.10   0.10     0.12  -0.13   0.09     0.11  -0.11   0.07
    23   1     0.08   0.01   0.07     0.08   0.00   0.05    -0.00   0.18  -0.03
    24   1    -0.06   0.19  -0.04    -0.00   0.12  -0.03    -0.01   0.17  -0.06
    25   1    -0.09  -0.09  -0.01    -0.02   0.04   0.24     0.26   0.12  -0.06
    26   1    -0.26  -0.20  -0.23    -0.25  -0.13  -0.37    -0.39  -0.43  -0.08
                     28                     29                     30
                      A                      A                      A
 Frequencies --    912.6171               923.1925               943.6234
 Red. masses --      1.4342                 2.8823                 1.8200
 Frc consts  --      0.7038                 1.4473                 0.9548
 IR Inten    --     28.2094                 4.0310                 5.2458
  Atom  AN      X      Y      Z        X      Y      Z        X      Y      Z
     1   6    -0.03  -0.02  -0.03     0.02   0.04  -0.04     0.01   0.01   0.01
     2   6    -0.00   0.00   0.00     0.01   0.00  -0.02    -0.01  -0.02   0.03
     3   6    -0.01  -0.03  -0.02     0.07   0.01  -0.03     0.08   0.05   0.07
     4   6     0.00   0.00   0.00    -0.02  -0.01   0.03     0.01   0.00  -0.07
     5   6    -0.00  -0.01  -0.04     0.10   0.04  -0.08     0.06   0.06   0.04
     6   6    -0.06  -0.05  -0.07     0.03   0.05  -0.13    -0.08  -0.08  -0.04
     7   6     0.00   0.01  -0.00    -0.00   0.04   0.01    -0.02  -0.08  -0.06
     8   1    -0.02  -0.02  -0.01    -0.12   0.02   0.02     0.20   0.13   0.02
     9   1     0.01   0.02  -0.02    -0.03   0.09  -0.02    -0.11  -0.25   0.14
    10   6    -0.02  -0.00   0.00    -0.03  -0.03   0.01    -0.06   0.05   0.01
    11   1    -0.04  -0.03   0.01    -0.08  -0.06  -0.02     0.01   0.05   0.22
    12   1    -0.02  -0.03  -0.01    -0.12  -0.08   0.01     0.23   0.07  -0.05
    13   6     0.00  -0.01  -0.00     0.00   0.02  -0.02     0.02  -0.01   0.07
    14   8     0.00   0.00   0.00     0.02   0.00   0.00     0.00   0.01  -0.01
    15   1    -0.01   0.00   0.00    -0.04   0.02   0.04     0.08  -0.04  -0.08
    16   1    -0.00   0.01  -0.00     0.01   0.04  -0.04     0.06  -0.07   0.10
    17   6     0.06   0.07   0.12    -0.19  -0.10   0.24    -0.05  -0.01  -0.06
    18   1    -0.23  -0.10   0.28    -0.09   0.12   0.13     0.10   0.06  -0.14
    19   1     0.02  -0.01  -0.24    -0.23  -0.00   0.44    -0.09   0.10   0.10
    20  17     0.00   0.00  -0.00    -0.00  -0.00   0.00     0.00   0.00  -0.01
    21   6    -0.00  -0.02  -0.02     0.07  -0.04  -0.03    -0.00  -0.00   0.01
    22   1     0.05  -0.06   0.07    -0.11   0.12   0.08     0.03  -0.03  -0.00
    23   1     0.05  -0.05   0.06     0.16  -0.36   0.23    -0.01   0.05  -0.02
    24   1    -0.05   0.11  -0.02    -0.15   0.07   0.05     0.04  -0.03  -0.00
    25   1     0.46   0.49   0.32    -0.13   0.06  -0.12     0.30   0.36   0.28
    26   1     0.29   0.23   0.18    -0.14  -0.34  -0.21    -0.35  -0.28  -0.26
                     31                     32                     33
                      A                      A                      A
 Frequencies --    956.4345               960.3109               991.7225
 Red. masses --      1.8231                 1.3680                 1.5678
 Frc consts  --      0.9826                 0.7433                 0.9085
 IR Inten    --      8.3542                 8.1672                 0.8021
  Atom  AN      X      Y      Z        X      Y      Z        X      Y      Z
     1   6     0.02  -0.01  -0.00     0.01  -0.00  -0.00    -0.04   0.04   0.00
     2   6     0.07   0.00  -0.03    -0.09  -0.04  -0.04     0.00  -0.00  -0.01
     3   6    -0.03   0.07  -0.01    -0.01   0.03  -0.01    -0.01  -0.01   0.01
     4   6    -0.05  -0.03   0.03     0.10   0.02   0.05     0.00  -0.00   0.01
     5   6    -0.01   0.01   0.04    -0.01   0.00   0.01     0.10  -0.04  -0.09
     6   6    -0.02  -0.05   0.01    -0.00  -0.02   0.01    -0.03   0.06  -0.03
     7   6    -0.08  -0.02  -0.06    -0.02   0.00  -0.02    -0.03   0.01  -0.01
     8   1    -0.27   0.25   0.16    -0.09   0.08   0.05    -0.09   0.07   0.04
     9   1    -0.13  -0.23   0.17    -0.05  -0.06   0.06    -0.05  -0.03   0.04
    10   6     0.14  -0.05   0.02     0.05  -0.03   0.00     0.04  -0.02   0.00
    11   1     0.29   0.23  -0.29     0.11   0.08  -0.12     0.06   0.04  -0.09
    12   1    -0.07   0.19   0.20    -0.04   0.07   0.07    -0.01   0.06   0.06
    13   6    -0.04   0.11  -0.03    -0.02   0.03  -0.01    -0.01   0.03  -0.01
    14   8     0.00  -0.03  -0.00    -0.01  -0.01   0.01    -0.00  -0.01   0.00
    15   1     0.25  -0.03   0.14    -0.56  -0.15  -0.33    -0.01  -0.03  -0.01
    16   1    -0.25  -0.04  -0.23     0.56   0.17   0.30     0.01   0.01  -0.02
    17   6     0.01  -0.04   0.02     0.00  -0.01   0.01    -0.00  -0.01   0.02
    18   1     0.14  -0.16   0.03     0.04  -0.05   0.01     0.11  -0.14   0.03
    19   1     0.06  -0.09   0.04     0.02  -0.03   0.02     0.10  -0.12   0.03
    20  17    -0.00  -0.00   0.01     0.00   0.00  -0.00    -0.00   0.00   0.00
    21   6     0.01   0.02  -0.02     0.00   0.01  -0.01    -0.05  -0.03   0.11
    22   1    -0.07   0.08   0.00    -0.02   0.03   0.01     0.24  -0.31  -0.08
    23   1     0.03  -0.07   0.04     0.01  -0.03   0.02    -0.17   0.39  -0.25
    24   1    -0.07   0.05   0.00    -0.03   0.03   0.00     0.32  -0.26  -0.02
    25   1     0.25  -0.00   0.03     0.09  -0.01   0.01    -0.34   0.27   0.14
    26   1    -0.11   0.01  -0.06    -0.04   0.01  -0.02     0.16  -0.21   0.01
                     34                     35                     36
                      A                      A                      A
 Frequencies --   1033.8424              1043.7912              1067.3000
 Red. masses --      1.4228                 1.4047                 2.1306
 Frc consts  --      0.8960                 0.9017                 1.4300
 IR Inten    --     12.0157                 4.4887                 4.3131
  Atom  AN      X      Y      Z        X      Y      Z        X      Y      Z
     1   6    -0.02   0.01  -0.02     0.06   0.06   0.04    -0.04  -0.02  -0.03
     2   6     0.00   0.00  -0.00     0.00  -0.00   0.00    -0.01  -0.01   0.02
     3   6     0.01  -0.00  -0.02     0.04   0.03   0.02    -0.05  -0.00  -0.03
     4   6    -0.01  -0.00   0.01    -0.00   0.00  -0.02     0.01   0.01  -0.06
     5   6    -0.04   0.09  -0.04    -0.04  -0.00  -0.04     0.02   0.02  -0.02
     6   6     0.06  -0.07   0.01     0.02  -0.02  -0.01     0.03   0.01  -0.03
     7   6     0.04   0.02  -0.03    -0.02  -0.02   0.01    -0.08  -0.07   0.16
     8   1     0.01   0.05  -0.01     0.01  -0.02   0.01    -0.20  -0.32   0.03
     9   1     0.16  -0.02  -0.04    -0.17   0.01   0.05    -0.36   0.19   0.02
    10   6    -0.04  -0.02   0.03     0.01   0.02  -0.01     0.09   0.11  -0.12
    11   1    -0.12  -0.09  -0.01     0.07   0.07   0.03     0.34   0.27   0.15
    12   1    -0.11  -0.07   0.02     0.06   0.03  -0.02     0.22   0.01  -0.21
    13   6     0.00  -0.00  -0.02     0.00   0.01   0.03     0.01  -0.05   0.09
    14   8     0.01   0.01   0.01    -0.00  -0.00  -0.00    -0.03  -0.00  -0.02
    15   1    -0.02   0.01   0.02     0.03  -0.01  -0.02     0.03   0.08  -0.01
    16   1    -0.00   0.03  -0.02     0.01  -0.03   0.02     0.01  -0.13   0.11
    17   6    -0.02  -0.01   0.05    -0.03  -0.04   0.01    -0.00   0.01   0.06
    18   1     0.08  -0.14   0.07    -0.15   0.27  -0.07    -0.02  -0.08   0.09
    19   1    -0.03  -0.00   0.04     0.17  -0.23   0.13     0.03  -0.05  -0.00
    20  17    -0.00  -0.00   0.00     0.00   0.00  -0.00     0.00   0.00  -0.01
    21   6    -0.01   0.00   0.08    -0.09  -0.07  -0.03     0.03   0.02   0.04
    22   1     0.07  -0.10  -0.11     0.32  -0.36   0.27    -0.07   0.08  -0.12
    23   1    -0.14   0.19  -0.16     0.13   0.23   0.07    -0.08  -0.04  -0.07
    24   1     0.20  -0.25   0.03    -0.03   0.42  -0.16     0.07  -0.22   0.07
    25   1     0.36  -0.23  -0.13     0.07  -0.16  -0.13     0.24  -0.16  -0.19
    26   1    -0.26   0.47  -0.39     0.09   0.29  -0.00    -0.05   0.05  -0.11
                     37                     38                     39
                      A                      A                      A
 Frequencies --   1129.9715              1160.9057              1170.5179
 Red. masses --      1.3086                 1.2506                 1.5588
 Frc consts  --      0.9845                 0.9930                 1.2583
 IR Inten    --     12.1955                 7.2219                14.2500
  Atom  AN      X      Y      Z        X      Y      Z        X      Y      Z
     1   6    -0.04  -0.07  -0.04     0.05   0.02   0.03     0.08  -0.08   0.01
     2   6     0.01   0.00  -0.02     0.01   0.01  -0.02    -0.01  -0.01   0.02
     3   6     0.05  -0.03   0.02    -0.01  -0.09  -0.01     0.06  -0.04  -0.00
     4   6    -0.00  -0.00   0.01    -0.00  -0.00   0.02     0.01   0.00   0.01
     5   6     0.00   0.02   0.01    -0.01   0.00  -0.01     0.00  -0.01   0.02
     6   6     0.01   0.00  -0.02     0.02   0.02  -0.02    -0.01   0.01  -0.01
     7   6    -0.01   0.03  -0.01    -0.03   0.02   0.04    -0.06   0.02  -0.00
     8   1     0.19   0.04  -0.05     0.20  -0.08  -0.08    -0.32   0.11   0.12
     9   1    -0.33   0.04   0.11    -0.26   0.08   0.08     0.09  -0.03  -0.02
    10   6    -0.01  -0.04   0.01     0.02  -0.02  -0.02     0.04   0.05   0.02
    11   1    -0.09  -0.10  -0.07    -0.14  -0.18  -0.05     0.09   0.09   0.04
    12   1     0.11   0.17   0.09     0.24   0.27   0.09     0.03   0.01  -0.01
    13   6    -0.01   0.06   0.02    -0.01   0.05   0.01     0.00  -0.06  -0.09
    14   8     0.00  -0.01  -0.00    -0.01  -0.01  -0.00     0.00   0.01   0.01
    15   1     0.10  -0.19  -0.09     0.14  -0.28  -0.14    -0.20   0.33   0.18
    16   1     0.02   0.05  -0.04     0.00   0.16  -0.10    -0.03  -0.09   0.05
    17   6     0.04  -0.02   0.01     0.01  -0.01   0.00     0.05  -0.07   0.01
    18   1    -0.49   0.54  -0.04     0.16  -0.20   0.03    -0.27   0.27  -0.01
    19   1     0.17  -0.18  -0.02    -0.42   0.47  -0.05    -0.35   0.40   0.00
    20  17    -0.00   0.00   0.00    -0.00  -0.00   0.00     0.00   0.00  -0.00
    21   6     0.02   0.04   0.03    -0.03  -0.01  -0.01    -0.05   0.04   0.00
    22   1    -0.08   0.10  -0.14     0.04  -0.05   0.05    -0.03   0.02  -0.05
    23   1    -0.11  -0.00  -0.10     0.03   0.09   0.01    -0.08   0.21  -0.11
    24   1     0.03  -0.15   0.06     0.01   0.09  -0.04     0.01   0.08  -0.04
    25   1    -0.04  -0.03  -0.05     0.07  -0.01  -0.05    -0.14   0.12   0.09
    26   1    -0.01   0.05  -0.02    -0.02   0.02  -0.03    -0.08   0.17  -0.13
                     40                     41                     42
                      A                      A                      A
 Frequencies --   1181.9088              1202.2638              1239.2806
 Red. masses --      1.9579                 1.1956                 2.1228
 Frc consts  --      1.6114                 1.0182                 1.9209
 IR Inten    --     72.1445                 6.3256                 2.5861
  Atom  AN      X      Y      Z        X      Y      Z        X      Y      Z
     1   6     0.03  -0.03   0.02     0.02  -0.03   0.00     0.12  -0.09  -0.05
     2   6     0.01  -0.02  -0.01    -0.01   0.05  -0.01     0.00  -0.00  -0.01
     3   6     0.01  -0.03  -0.04     0.01   0.04  -0.01    -0.12   0.12   0.03
     4   6    -0.01   0.02  -0.05     0.01  -0.01   0.01    -0.00   0.00  -0.00
     5   6    -0.01  -0.01   0.02     0.01  -0.02   0.01     0.07  -0.08  -0.00
     6   6     0.00  -0.01   0.02    -0.01  -0.00   0.01    -0.12   0.11   0.01
     7   6     0.05   0.06  -0.03    -0.00  -0.02   0.01     0.03  -0.03  -0.01
     8   1    -0.30   0.08   0.06    -0.26  -0.00   0.08     0.39  -0.10  -0.14
     9   1    -0.08   0.05   0.02     0.25  -0.03  -0.08     0.29  -0.07  -0.08
    10   6    -0.02  -0.06  -0.07     0.00   0.04  -0.02    -0.01  -0.03  -0.00
    11   1     0.06   0.00  -0.03     0.05   0.06   0.07     0.02   0.00  -0.03
    12   1    -0.52  -0.41  -0.13    -0.04  -0.10  -0.09    -0.11  -0.09  -0.01
    13   6     0.01   0.10   0.22     0.02  -0.08   0.01    -0.00   0.02   0.04
    14   8    -0.00  -0.01  -0.03    -0.02   0.01   0.00     0.00  -0.00  -0.00
    15   1     0.16  -0.13  -0.11     0.24  -0.51  -0.27     0.02  -0.02  -0.02
    16   1     0.07  -0.30   0.18    -0.02   0.54  -0.29     0.01  -0.08   0.04
    17   6     0.02  -0.02   0.00     0.00  -0.01   0.01    -0.00  -0.04   0.04
    18   1     0.01  -0.01   0.00    -0.06   0.06   0.00    -0.17   0.06   0.07
    19   1    -0.15   0.17  -0.02     0.03  -0.04   0.03    -0.12   0.12   0.12
    20  17     0.00   0.00  -0.01    -0.01  -0.00   0.01     0.00   0.00  -0.00
    21   6    -0.02   0.01  -0.01    -0.01   0.01  -0.00    -0.04   0.04   0.02
    22   1    -0.02   0.02  -0.01    -0.02   0.02  -0.02    -0.04   0.02  -0.11
    23   1    -0.02   0.08  -0.03    -0.02   0.04  -0.03    -0.10   0.23  -0.14
    24   1    -0.01   0.06  -0.02    -0.01   0.03  -0.01     0.05   0.09  -0.04
    25   1    -0.21   0.11   0.13    -0.08   0.06   0.06     0.46  -0.22  -0.32
    26   1    -0.06   0.13  -0.08    -0.03   0.08  -0.06     0.11  -0.16   0.04
                     43                     44                     45
                      A                      A                      A
 Frequencies --   1254.3287              1261.6100              1347.9889
 Red. masses --      1.5246                 1.2904                 1.5337
 Frc consts  --      1.4133                 1.2102                 1.6420
 IR Inten    --      0.8793                 8.6270                 9.4523
  Atom  AN      X      Y      Z        X      Y      Z        X      Y      Z
     1   6     0.03  -0.08   0.07    -0.01   0.02  -0.01     0.01  -0.02   0.01
     2   6     0.00  -0.01  -0.00     0.01  -0.00  -0.02    -0.01  -0.07   0.06
     3   6    -0.01   0.06  -0.08     0.04   0.01   0.03     0.01  -0.04   0.03
     4   6    -0.00   0.00   0.01    -0.01   0.01   0.01     0.04  -0.02  -0.07
     5   6     0.05  -0.09   0.05    -0.01   0.01  -0.01     0.02  -0.03   0.01
     6   6    -0.00   0.03  -0.03    -0.00  -0.01   0.00    -0.02   0.04  -0.02
     7   6     0.02  -0.04   0.04    -0.05  -0.04   0.04    -0.01  -0.02  -0.03
     8   1     0.17  -0.13  -0.06    -0.27  -0.06   0.09     0.03   0.05   0.01
     9   1    -0.03   0.04  -0.02     0.52  -0.08  -0.15    -0.25  -0.05   0.10
    10   6    -0.01  -0.01  -0.01     0.07   0.04  -0.06     0.10   0.08   0.03
[...]
 4,-0.00009230,0.00007586,-0.00012372,-0.00002530,-0.00071758,0.0005842
 4,0.00031268,0.00001558,-0.00005623,-0.00005377,-0.00047892,0.00075773
 ,0.00004862,-0.00036793,0.00012161,-0.00049485,0.00004283,-0.00001281,
 0.00005732,0.00003488,-0.00000931,0.00003874,0.00003061,-0.00000100,0.
 00007404,-0.19094667,-0.12828119,0.03850065,-0.00656361,-0.00561723,0.
 00248504,0.20800862,0.01169948,0.01153634,-0.00239665,-0.00062922,0.00
 050516,-0.00151793,-0.01741335,-0.01218120,0.00296992,-0.00014125,-0.0
 0068489,0.00006981,0.00126063,-0.00215328,-0.00265012,0.00237255,-0.00
 219590,0.00235558,-0.00008086,0.00041575,0.00089574,0.00021692,0.00020
 361,0.00003501,-0.00017085,0.00022951,0.00001891,0.00010109,-0.0001963
 8,0.00009012,-0.00015680,0.00022967,-0.00030479,0.00071759,-0.00036212
 ,-0.00069658,0.00073974,0.00059453,0.00082266,-0.00020503,-0.00026257,
 -0.00020231,-0.00002183,-0.00006639,-0.00006224,0.00002166,-0.00007672
 ,0.00008376,-0.12812021,-0.15377546,0.03511396,-0.00781945,-0.00642737
 ,0.00263487,0.13860466,0.16438284,0.00991659,0.00924164,-0.00431556,-0
 .00058836,-0.00038660,-0.00141308,0.01399119,0.00923541,-0.00413951,-0
 .00027029,0.00010403,-0.00059450,0.00137862,-0.00006420,-0.00095379,-0
 .00027481,0.00148802,-0.00156044,0.00012648,-0.00060615,-0.00023056,-0
 .00007148,-0.00002967,-0.00005971,0.00007183,-0.00014810,0.00011629,-0
 .00009935,-0.00011525,0.00018633,-0.00001760,-0.00008756,-0.00002059,0
 .00016998,-0.00030949,0.00013765,-0.00077541,0.00060429,0.00055292,0.0
 0023153,-0.00012785,-0.00032460,-0.00001326,-0.00001738,0.00001113,-0.
 00002499,-0.00002071,-0.00006638,0.04151742,0.03828759,-0.04497894,-0.
 02070310,-0.01766798,0.00552475,-0.04247392,-0.03770851,0.05403760,0.0
 0006200,-0.00007599,-0.00033307,-0.03481660,-0.01035074,0.02879995,0.0
 0001699,-0.00006320,0.00030117,0.00813060,0.00087892,-0.00505021,0.000
 14092,-0.00006202,0.00005530,-0.00014026,-0.00010919,0.00011661,0.0000
 1050,0.00004329,-0.00002220,0.00000163,-0.00002275,-0.00000416,-0.0000
 1315,-0.00000181,-0.00000484,0.00112992,-0.00066250,-0.00004341,-0.000
 12723,-0.00023550,-0.00021618,-0.00002810,0.00006561,-0.00000673,-0.00
 638377,-0.00112067,-0.00222063,0.00029687,0.00202444,0.00016487,0.0055
 7374,0.00228197,0.00315764,0.00209910,-0.01039624,0.00910389,-0.000267
 53,-0.00018790,0.00012090,-0.00002044,-0.00000003,-0.00002070,-0.00034
 496,-0.00008670,-0.00009648,0.02443083,0.00001910,-0.00014879,-0.00011
 282,-0.01286195,-0.09201615,0.06845539,-0.00015609,-0.00040827,0.00059
 436,-0.00670422,-0.02717470,0.03248074,0.00034542,-0.00022004,-0.00010
 561,-0.00045667,-0.00045102,-0.00025246,0.00013831,0.00017301,-0.00002
 619,-0.00003910,0.00017658,-0.00001088,-0.00017943,-0.00002552,-0.0000
 5766,0.00090444,-0.00076057,0.00002379,-0.00007668,-0.00025244,-0.0002
 8037,-0.00002678,0.00012706,-0.00003550,-0.00625846,0.00141246,0.00422
 390,0.00335645,-0.00124348,-0.00114254,0.00394037,-0.00366480,-0.00035
 374,0.00028187,-0.00038394,0.00252023,-0.00043471,0.00006093,0.0003770
 5,0.00004861,0.00005654,-0.00005714,0.00001193,-0.00030199,-0.00030119
 ,0.01821296,0.12472034,0.00054621,-0.00015262,-0.00064433,0.02906270,0
 .06433291,-0.12261518,0.00042962,0.00067696,-0.00079916,0.00087184,0.0
 2035156,-0.00791091,-0.00017102,-0.00017224,0.00058824,0.00004312,0.00
 054419,0.00083720,-0.00010863,-0.00023425,0.00007603,0.00003103,-0.000
 23148,0.00000747,0.00016790,0.00004074,0.00004256,-0.00082501,0.000639
 55,0.00019774,0.00011717,0.00028150,0.00028497,0.00008844,0.00024102,0
 .00025418,0.00436703,-0.00367128,-0.00756343,-0.00493348,-0.00096216,0
 .00416821,0.00226402,0.00161458,0.00398552,0.00220369,0.02294105,-0.01
 622541,0.00006808,-0.00017740,-0.00027472,-0.00011800,-0.00010804,0.00
 004688,-0.00017374,0.00023534,0.00026839,-0.03397210,-0.10580123,0.145
 06213,-0.11942507,0.07303842,-0.02122813,0.00001393,0.00004501,0.00007
 114,-0.00311286,0.00070472,0.00266327,0.00001135,-0.00007502,-0.000024
 54,0.00810698,-0.00079329,0.00233808,0.00381610,0.00276474,0.00336712,
 0.00055341,0.00093580,-0.00070254,-0.00012077,0.00023600,-0.00000077,0
 .00005956,0.00001617,-0.00008357,0.00019177,-0.00018347,0.00003723,0.0
 0002429,0.00002277,-0.00004051,0.00003546,-0.00001843,-0.00001681,-0.0
 0005661,0.00007780,0.00014180,0.00005713,-0.00001996,-0.00006038,-0.00
 001985,-0.00000951,-0.00002394,-0.00000088,-0.00001498,-0.00004885,-0.
 00839615,0.01683599,-0.00982644,0.00040195,0.00005727,-0.00003274,0.00
 079471,-0.00042928,-0.00050024,-0.00005116,-0.00003665,-0.00003011,0.5
 6131758,0.07101972,-0.19060773,0.05159971,0.00015371,0.00031079,-0.000
 30843,0.00043912,-0.00074033,-0.00047255,-0.00000487,-0.00021246,0.000
 04865,0.01087355,-0.00941159,0.00762884,0.00191149,0.00343245,0.003635
 85,0.00039650,0.00045664,0.00082634,0.00012532,-0.00003562,-0.00007507
 ,-0.00015586,0.00015884,-0.00010788,0.00004424,-0.00004499,-0.00005563
 ,-0.00002899,0.00000011,-0.00000817,-0.00000505,0.00001894,-0.00001404
 ,0.00006202,0.00008648,0.00010879,-0.00004215,-0.00005440,-0.00004008,
 -0.00000142,-0.00003062,0.00000193,-0.00000282,0.00000634,0.00003745,0
 .00527304,-0.00784154,0.00215863,-0.00056698,0.00044380,0.00063496,-0.
 00027554,0.00020022,0.00030152,-0.00008551,-0.00024670,0.00026870,0.00
 486991,0.52493783,-0.01843371,0.04826445,-0.10549617,-0.00002623,-0.00
 006599,0.00000117,0.00251140,-0.00042243,-0.00440285,0.00003524,0.0000
 7859,0.00003046,-0.01277621,0.02455731,-0.00397573,0.00362730,0.003240
 41,-0.00092032,0.00062962,-0.00053289,0.00170276,0.00046161,-0.0003340
 5,-0.00004934,-0.00027606,0.00027359,0.00004867,-0.00011257,-0.0000347
 4,0.00000038,-0.00000302,-0.00001326,0.00004060,-0.00008399,0.00001666
 ,0.00005725,-0.00002430,-0.00003876,-0.00007400,-0.00000794,0.00001595
 ,0.00001669,0.00001549,-0.00000256,0.00001203,0.00001501,-0.00001418,0
 .00000426,0.00561063,-0.01445659,0.01135398,-0.00039190,0.00004151,-0.
 00008830,0.00015173,0.00021926,0.00002529,-0.00001697,0.00002436,0.000
 03305,-0.02707670,0.01462870,0.56811063,0.01340096,0.01379684,-0.00181
 513,-0.00000904,0.00015132,-0.00021312,0.00001127,0.00043823,-0.000712
 28,0.00001271,-0.00002220,0.00006613,-0.00075928,0.00059906,-0.0008997
 0,-0.00056217,-0.00010509,-0.00027292,-0.00003129,-0.00017331,0.000004
 97,0.00000612,-0.00001169,0.00000517,-0.00002522,0.00001577,0.00003354
 ,-0.00002141,0.00004044,-0.00004172,-0.00001524,-0.00001660,0.00001138
 ,-0.00000578,-0.00000515,0.00001516,-0.00000963,0.00008562,0.00007809,
 0.00000791,-0.00004641,-0.00003329,0.00000370,-0.00001815,-0.00000351,
 -0.00000779,-0.00003330,0.00001098,0.00036257,-0.00077706,0.00060871,0
 .00008363,-0.00004092,-0.00003832,-0.00011240,0.00018703,0.00003647,0.
 00027620,-0.00005784,0.00014790,-0.16108247,-0.13028273,0.02222528,0.1
 6883891,-0.01542142,-0.01980430,0.00644144,-0.00009031,-0.00032084,0.0
 0036197,0.00002968,-0.00064986,0.00090990,-0.00003926,0.00009588,-0.00
 003105,0.00136659,-0.00069920,-0.00121672,0.00133226,0.00027728,0.0002
 9575,-0.00000269,0.00014009,-0.00015581,0.00004282,0.00000617,0.000000
 01,0.00012967,-0.00008289,-0.00006523,0.00001706,-0.00012341,0.0001426
 4,0.00006677,0.00003733,-0.00002622,-0.00000869,0.00000867,-0.00001590
 ,-0.00009245,-0.00016699,-0.00015591,0.00009100,0.00010065,0.00006394,
 -0.00001669,0.00002057,-0.00002340,0.00002919,0.00000717,0.00000365,-0
 .00030163,0.00081931,-0.00015741,-0.00012147,0.00014543,0.00012310,0.0
 0060458,-0.00022276,-0.00022266,-0.00010851,0.00020725,-0.00032502,-0.
 13284077,-0.19658111,0.02255373,0.14069297,0.21307622,0.00768148,0.011
 10573,-0.00410577,-0.00007096,0.00019797,-0.00012480,0.00005363,-0.000
 14697,0.00004441,0.00002780,-0.00010368,-0.00004594,-0.00135835,0.0010
 3293,0.00047339,-0.00073410,-0.00042022,-0.00073795,0.00001849,0.00006
 740,0.00007063,-0.00001993,0.00000515,-0.00000350,-0.00004234,0.000014
 78,0.00001749,0.00001548,0.00000707,-0.00004363,-0.00002222,-0.0000125
 5,-0.00000544,0.00000592,-0.00000212,-0.00000653,-0.00001191,0.0001088
 6,0.00014645,0.00000648,-0.00005292,-0.00006862,0.00000775,-0.00000041
 ,0.00000970,-0.00004191,0.00002349,-0.00005503,0.00023843,-0.00027093,
 -0.00013546,-0.00004150,-0.00010772,0.00010667,-0.00007301,-0.00007156
 ,0.00027146,0.00015005,-0.00013407,0.00001483,0.02306440,0.02250519,-0
 .04711380,-0.02191476,-0.02853616,0.04852269,-0.01110089,0.00283361,0.
 00983515,-0.00002880,-0.00000452,0.00007213,-0.00040138,0.00027834,0.0
 0063637,0.00001630,-0.00002004,-0.00004463,0.00099796,-0.00132737,-0.0
 0006881,-0.00023990,-0.00004646,-0.00005471,0.00012986,0.00015753,-0.0
 0023945,-0.00009249,0.00007601,0.00000265,-0.00002291,0.00001809,0.000
 02757,0.00003320,0.00000868,-0.00003187,-0.00002920,-0.00000137,-0.000
 00496,0.00002558,-0.00001615,-0.00002167,0.00010451,0.00006316,0.00007
 295,-0.00007947,-0.00003890,-0.00002416,0.00000759,0.00000809,0.000017
 65,-0.00001483,0.00002184,-0.00001013,0.00055914,0.00208341,-0.0018327
 9,-0.00009432,0.00013690,0.00019140,0.00036944,-0.00024793,-0.00015797
 ,-0.00001324,-0.00001305,-0.00004870,-0.18958483,0.05855058,0.12657594
 ,-0.01220852,0.00764753,0.01130934,0.20051957,0.01954492,-0.00793315,-
 0.01937255,-0.00000467,-0.00009275,0.00008222,0.00112625,-0.00032417,-
 0.00086197,0.00000617,0.00004471,-0.00000677,-0.00082573,0.00119812,-0
 .00084901,-0.00004818,-0.00003815,-0.00022048,-0.00000456,-0.00016327,
 0.00045624,0.00013979,-0.00012052,-0.00000543,-0.00000366,0.00000377,-
 0.00001843,-0.00003937,-0.00002678,0.00004011,0.00002841,0.00000455,0.
 00000330,-0.00003181,0.00001656,0.00002007,-0.00009972,-0.00007804,-0.
 00007129,0.00007514,0.00004432,0.00001968,-0.00000756,0.00000559,-0.00
 000968,-0.00000109,0.00000792,-0.00001113,0.00135300,-0.00278772,0.003
 40144,-0.00033428,0.00018826,0.00011107,0.00017180,0.00001344,-0.00005
 287,0.00000400,0.00006038,-0.00005335,0.05735793,-0.06993589,-0.050135
 14,-0.01606458,0.00830417,0.01593473,-0.06614903,0.07425056,-0.0106540
 5,0.00371377,0.00867778,0.00001111,0.00002016,-0.00001021,-0.00040190,
 0.00040133,0.00031078,0.00000690,-0.00000738,0.00000105,-0.00081293,0.
 00001470,0.00083907,-0.00003908,-0.00023436,0.00005712,0.00000688,0.00
 012556,-0.00009031,-0.00002449,0.00002300,0.00000155,0.00001035,-0.000
 00077,-0.00000201,0.00001802,-0.00000881,-0.00000641,0.00000469,-0.000
 00095,-0.00000178,-0.00000011,0.00000150,0.00000173,-0.00003130,0.0000
 0191,0.00000780,0.00002350,-0.00000077,-0.00000436,-0.00000623,-0.0000
 0082,-0.00000430,-0.00000711,-0.00000616,-0.00000413,-0.00066542,0.001
 98004,-0.00025091,-0.00015820,0.00023043,0.00012059,0.00011539,-0.0000
 5717,-0.00014163,0.00000650,-0.00000870,0.00001431,0.12798292,-0.05174
 158,-0.15992137,0.00012481,-0.00097177,-0.00185780,-0.13637693,0.05344
 881,0.16654104,-0.00491816,-0.00252329,-0.01253632,-0.00001095,0.00005
 079,-0.00007962,-0.00015061,0.00057753,-0.00091116,0.00000062,-0.00000
 436,0.00002498,-0.00031901,-0.00000218,0.00050008,-0.00028386,0.000355
 31,0.00047379,0.00022505,0.00001367,0.00026917,0.00001426,-0.00002111,
 -0.00000840,-0.00012986,0.00012028,0.00005087,-0.00001274,0.00005434,-
 0.00006318,-0.00003727,-0.00001053,0.00001744,-0.00000100,-0.00000852,
 0.00000506,0.00012212,0.00002194,-0.00001254,-0.00010081,-0.00003192,0
 .00001370,0.00001971,-0.00000474,0.00002400,0.00001006,-0.00000017,0.0
 0003093,0.00039802,-0.00034083,0.00052938,-0.00015966,0.00031016,0.000
 11001,0.00007743,-0.00003960,-0.00015186,0.00000114,-0.00002964,0.0000
 5476,-0.09223698,-0.02019490,-0.09981439,-0.00815555,-0.00294880,-0.01
 855910,0.01105946,0.00412900,0.02044288,0.09463525,0.01121352,0.004903
 21,0.02812827,-0.00002061,-0.00010547,0.00009090,-0.00003940,-0.000479
 92,0.00086264,-0.00003450,0.00002634,0.00000324,0.00128688,-0.00185474
 ,-0.00040864,-0.00041647,-0.00128816,-0.00048447,-0.00017910,-0.000002
 60,-0.00027991,-0.00003217,0.00001726,0.00002425,0.00012470,-0.0001060
 4,-0.00003375,0.00000787,-0.00003766,0.00005268,0.00003570,0.00001348,
 -0.00001127,0.00000050,0.00001100,-0.00000240,-0.00006917,-0.00006211,
 -0.00006837,0.00006113,0.00003976,0.00002918,-0.00001235,0.00000596,-0
 .00001842,0.00001775,-0.00001713,0.00001323,-0.00064475,0.00096049,-0.
 00060103,0.00021073,-0.00011431,-0.00020086,-0.00009076,0.00007904,-0.
 00002251,0.00001152,0.00010185,-0.00008696,-0.01934470,-0.05353128,-0.
 04676021,-0.00855149,-0.00421036,-0.02154031,-0.00439119,-0.00260387,-
 0.00658216,0.02034233,0.05811423,-0.00269784,0.00150101,-0.00986907,0.
 00000080,0.00005215,-0.00008171,-0.00000463,0.00010047,-0.00000048,-0.
 00000350,-0.00002425,0.00002405,-0.00164575,0.00021974,0.00111495,0.00
 039426,0.00072306,0.00037529,0.00000495,-0.00003442,0.00011293,-0.0000
 1224,0.00000736,-0.00001489,-0.00007174,0.00006350,-0.00000021,-0.0000
 1331,0.00006623,-0.00004170,-0.00004032,-0.00001093,0.00001337,0.00001
 411,-0.00001404,-0.00000501,0.00012999,0.00003224,0.00001144,-0.000101
 20,-0.00002973,0.00000469,0.00002075,-0.00000523,0.00001823,0.00001360
 ,0.00000431,0.00002118,0.00022301,0.00000469,-0.00019205,-0.00016675,0
 .00018012,0.00038289,0.00006078,0.00001403,0.00004460,-0.00001493,-0.0
 0003783,0.00004605,-0.09854358,-0.04891404,-0.25956630,0.00258109,0.00
 121240,0.00427287,-0.00932222,-0.00251306,-0.01425771,0.10959699,0.047
 64695,0.27769756,-0.00210445,0.00391355,0.00034145,0.00002538,-0.00010
 415,0.00004042,0.00688822,-0.01099902,0.01281362,0.00016362,0.00011270
 ,0.00008989,0.00407290,0.00735290,-0.01578549,-0.05154213,0.02126137,-
 0.00838163,-0.00095683,-0.00339496,-0.00160879,-0.00015489,0.00048657,
 -0.00054537,0.00047445,-0.00026666,-0.00036640,-0.00018186,0.00024205,
 0.00004838,-0.00005188,-0.00004644,0.00004362,0.00003723,0.00004189,-0
 .00002304,-0.00011203,0.00009879,0.00010019,0.00008866,-0.00002552,-0.
 00004936,-0.00005566,-0.00001928,-0.00006269,0.00000440,-0.00000399,-0
 .00001048,0.00266389,0.00464059,0.00577933,0.00034652,-0.00166236,0.00
 104791,-0.00033161,0.00048997,-0.00060926,0.00003065,0.00012194,-0.000
 09633,0.00074895,0.00035514,-0.00063472,-0.00014386,0.00029836,-0.0001
 2406,0.00002597,-0.00007620,0.00004485,-0.00004669,0.00010982,-0.00010
 810,0.04005243,0.00292747,-0.00199093,0.00072219,0.00003200,-0.0001708
 9,0.00006935,0.00241641,0.00489986,-0.00320444,0.00023100,0.00007512,0
 .00007759,-0.00475209,-0.00482845,0.01418294,0.01976432,-0.16295223,0.
 14665616,-0.00235380,-0.00206599,-0.00186583,-0.00029223,0.00030060,0.
 00011788,0.00042143,-0.00019317,-0.00032101,-0.00017974,0.00028928,0.0
 0018907,-0.00009672,-0.00007234,0.00005168,0.00001158,-0.00001246,-0.0
 0000429,-0.00006206,0.00024152,0.00018938,0.00004047,-0.00008592,-0.00
 008709,-0.00018980,-0.00001257,-0.00005421,0.00001632,-0.00002584,0.00
 002449,0.00486658,0.00403410,0.00280767,0.00005596,-0.00114603,0.00088
 645,-0.00064569,0.00092407,-0.00079029,0.00003683,0.00016406,-0.000153
 34,-0.00018905,0.00018656,0.00081340,0.00003057,-0.00012116,0.00010120
 ,-0.00000286,0.00003730,-0.00005026,0.00015943,-0.00027501,0.00013791,
 -0.02189328,0.16256228,0.00146147,-0.00046538,0.00013351,0.00004096,0.
 00005133,-0.00003836,-0.00602219,0.01631571,-0.00913558,0.00006493,0.0
 0003272,-0.00000627,0.00150344,-0.00389008,0.00370440,-0.00761968,0.14
 570358,-0.22839989,-0.00256747,-0.00140189,-0.00034875,0.00058256,-0.0
 0040409,-0.00004102,0.00036628,-0.00018299,-0.00020918,0.00000409,0.00
 010039,0.00026036,-0.00001432,-0.00004038,0.00004130,-0.00013311,-0.00
 003705,0.00009256,-0.00007673,0.00009447,0.00005155,0.00001062,-0.0000
 4149,-0.00003810,0.00007868,0.00009573,-0.00001866,-0.00001151,-0.0000
 1711,-0.00000870,0.00556192,0.00301409,-0.00034250,0.00011330,-0.00041
 725,0.00008838,-0.00060719,0.00100767,-0.00129120,0.00003024,-0.000009
 59,0.00007382,0.00010202,-0.00001445,0.00039812,-0.00004472,0.00004685
 ,-0.00002357,-0.00004697,0.00004892,0.00000288,0.00005530,-0.00004348,
 0.00000643,0.00769664,-0.15984219,0.23526671,0.00208526,0.00381083,-0.
 00062763,-0.00003710,0.00007031,0.00002781,-0.00110140,0.00265537,0.00
 042601,0.00003616,-0.00007767,-0.00010155,-0.18627135,0.05466080,0.144
 01087,-0.00505945,-0.00257200,0.01089258,0.00021833,-0.00004892,0.0007
 3469,0.00001083,-0.00001035,-0.00004922,-0.00021213,0.00016803,0.00006
 948,0.00006906,0.00012495,-0.00010852,-0.00007034,-0.00006368,0.000017
 06,0.00002306,-0.00002936,0.00002764,0.00009903,0.00017886,0.00017989,
 -0.00009358,-0.00009225,-0.00008326,0.00000039,0.00002435,0.00004656,-
 0.00004396,-0.00003173,-0.00001282,0.00476808,0.00436245,0.00344322,-0
 .00135801,0.00039227,0.00085305,0.00087347,-0.00084896,-0.00061172,0.0
 0000535,-0.00005013,0.00001359,-0.00204554,-0.00242754,-0.00218054,0.0
 0014566,-0.00035578,0.00043490,0.00006220,-0.00024597,0.00037894,0.000
 00005,0.00040423,-0.00029421,0.00005862,-0.00035301,-0.00052854,0.1878
 3731,-0.01004398,0.00843285,0.01021908,0.00002175,-0.00003856,0.000076
 72,0.00356639,-0.00284525,0.00112123,0.00001721,0.00003814,-0.00000396
 ,0.05554414,-0.06683443,-0.04049926,0.01006854,0.00144690,-0.01651926,
 0.00047542,0.00078454,-0.00072036,-0.00004860,0.00004455,0.00003040,0.
 00007214,-0.00006418,-0.00008148,0.00027697,-0.00038027,-0.00004087,0.
 00015163,0.00005927,-0.00004133,-0.00000090,0.00001114,0.00000790,-0.0
 0015532,-0.00008912,-0.00007607,0.00012239,0.00005599,0.00002617,-0.00
 002031,-0.00000104,-0.00003312,-0.00002328,0.00000020,-0.00002703,0.00
 410496,0.00261265,0.00531878,-0.00152340,0.00066216,0.00071652,0.00050
 130,-0.00040714,-0.00058352,0.00000970,0.00003794,-0.00003870,-0.00300
 742,-0.00096474,-0.00191713,0.00016867,-0.00026330,0.00029510,0.000375
 11,-0.00007534,-0.00028954,0.00002579,0.00041605,-0.00038264,-0.001033
 78,0.00023822,0.00029596,-0.05964511,0.05712277,0.01771686,-0.00978664
 ,-0.00781995,0.00000401,-0.00002494,-0.00001434,-0.00080995,0.00216560
 ,-0.00010315,0.00000901,0.00001266,-0.00000364,0.14293498,-0.03933987,
 -0.19052562,-0.00582301,0.00186976,0.00602711,-0.00009627,0.00016816,0
 .00054124,0.00005510,-0.00006481,-0.00000841,-0.00006655,0.00007609,0.
 00000232,0.00010021,-0.00003495,-0.00003634,0.00002406,-0.00002687,0.0
 0003214,-0.00003892,-0.00000081,0.00007578,-0.00012820,-0.00001295,-0.
 00004184,0.00007145,0.00001581,-0.00000428,-0.00001357,0.00000394,-0.0
 0000441,-0.00000590,-0.00001673,-0.00000625,0.00391331,0.00519861,-0.0
 0094052,-0.00035952,0.00015444,0.00004346,0.00110256,-0.00089878,-0.00
 108590,0.00001547,0.00002769,0.00003155,-0.00152813,-0.00263331,-0.000
 22717,0.00003978,-0.00025211,0.00037724,-0.00045518,0.00061458,-0.0000
 2278,-0.00006277,0.00029342,-0.00011740,0.00035944,-0.00065440,-0.0002
 1824,-0.15695828,0.04314639,0.19404940\\-0.00000176,-0.00000332,-0.000
 00630,-0.00000265,0.00000539,0.00000016,0.00002237,0.00002254,0.000023
 09,-0.00000790,0.00000145,-0.00000696,0.00000717,-0.00000338,0.0000070
 9,-0.00000264,-0.00000839,0.00000106,-0.00001550,-0.00001447,-0.000015
 46,0.00000353,0.00000186,-0.00000115,0.00000484,0.00000615,-0.00000168
 ,0.00001256,0.00000309,-0.00000484,0.00000087,0.00000240,-0.00000055,0
 .00000577,0.00000427,-0.00000409,-0.00000967,-0.00000427,0.00001605,0.
 00000736,0.00000932,-0.00000686,0.00000702,0.00000534,-0.00000150,-0.0
 0000147,0.00000008,0.00000127,-0.00002078,-0.00001410,-0.00001068,0.00
 000648,-0.00000017,-0.00000637,-0.00000898,-0.00000153,0.00000555,0.00
 000200,0.00000758,0.00000628,-0.00000388,-0.00000779,-0.00000017,-0.00
 000335,0.00000137,0.00000588,-0.00000638,-0.00000683,0.00000012,0.0000
 0148,-0.00000184,-0.00000020,0.00000298,-0.00000078,-0.00000112,0.0000
 0052,-0.00000399,0.00000141\\\@
 The archive entry for this job was punched.


 YOU CANNOT THROW TO THE GROUND THE LETTERS OF
 THE GREEK ALPHABET AND PICK UP THE ILIAD.
        - RUFUS CHOATE, 1799-1859
 Job cpu time:       0 days  0 hours 33 minutes 50.5 seconds.
 Elapsed time:       0 days  0 hours  2 minutes 51.1 seconds.
 File lengths (MBytes):  RWF=    268 Int=      0 D2E=      0 Chk=     12 Scr=      1
 Normal termination of Gaussian 16 at Sat Dec 30 20:57:29 2023.
