Unloading slurm/anatra/current
  ERROR: No such file or directory on
    '/cm/local/modulefiles/slurm/anatra/current'
environment: line 0: unalias: gv: not found
environment: line 0: unalias: sl: not found
 Entering Gaussian System, Link 0=g16
 Initial command:
 /apps/gaussian/g16/C.01/g16/l1.exe "/local/jobs/1153171/Gau-1736066.inp" -scrdir="/local/jobs/1153171/"
 Entering Link 1 = /apps/gaussian/g16/C.01/g16/l1.exe PID=   1736069.
  
 Copyright (c) 1988-2019, Gaussian, Inc.  All Rights Reserved.
  
 This is part of the Gaussian(R) 16 program.  It is based on
 the Gaussian(R) 09 system (copyright 2009, Gaussian, Inc.),
 the Gaussian(R) 03 system (copyright 2003, Gaussian, Inc.),
 the Gaussian(R) 98 system (copyright 1998, Gaussian, Inc.),
 the Gaussian(R) 94 system (copyright 1995, Gaussian, Inc.),
 the Gaussian 92(TM) system (copyright 1992, Gaussian, Inc.),
 the Gaussian 90(TM) system (copyright 1990, Gaussian, Inc.),
 the Gaussian 88(TM) system (copyright 1988, Gaussian, Inc.),
 the Gaussian 86(TM) system (copyright 1986, Carnegie Mellon
 University), and the Gaussian 82(TM) system (copyright 1983,
 Carnegie Mellon University). Gaussian is a federally registered
 trademark of Gaussian, Inc.
  
 This software contains proprietary and confidential information,
 including trade secrets, belonging to Gaussian, Inc.
  
 This software is provided under written license and may be
 used, copied, transmitted, or stored only in accord with that
 written license.
  
 The following legend is applicable only to US Government
 contracts under FAR:
  
                    RESTRICTED RIGHTS LEGEND
  
 Use, reproduction and disclosure by the US Government is
 subject to restrictions as set forth in subparagraphs (a)
 and (c) of the Commercial Computer Software - Restricted
 Rights clause in FAR 52.227-19.
  
 Gaussian, Inc.
 340 Quinnipiac St., Bldg. 40, Wallingford CT 06492
  
  
 ---------------------------------------------------------------
 Warning -- This program may not be used in any manner that
 competes with the business of Gaussian, Inc. or will provide
 assistance to any competitor of Gaussian, Inc.  The licensee
 of this program is prohibited from giving any competitor of
 Gaussian, Inc. access to this program.  By using this program,
 the user acknowledges that Gaussian, Inc. is engaged in the
 business of creating and licensing software in the field of
 computational chemistry and represents and warrants to the
 licensee that it is not a competitor of Gaussian, Inc. and that
 it will not use this program in any manner prohibited above.
 ---------------------------------------------------------------
  

 Cite this work as:
 Gaussian 16, Revision C.01,
 M. J. Frisch, G. W. Trucks, H. B. Schlegel, G. E. Scuseria, 
 M. A. Robb, J. R. Cheeseman, G. Scalmani, V. Barone, 
 G. A. Petersson, H. Nakatsuji, X. Li, M. Caricato, A. V. Marenich, 
 J. Bloino, B. G. Janesko, R. Gomperts, B. Mennucci, H. P. Hratchian, 
 J. V. Ortiz, A. F. Izmaylov, J. L. Sonnenberg, D. Williams-Young, 
 F. Ding, F. Lipparini, F. Egidi, J. Goings, B. Peng, A. Petrone, 
 T. Henderson, D. Ranasinghe, V. G. Zakrzewski, J. Gao, N. Rega, 
 G. Zheng, W. Liang, M. Hada, M. Ehara, K. Toyota, R. Fukuda, 
 J. Hasegawa, M. Ishida, T. Nakajima, Y. Honda, O. Kitao, H. Nakai, 
 T. Vreven, K. Throssell, J. A. Montgomery, Jr., J. E. Peralta, 
 F. Ogliaro, M. J. Bearpark, J. J. Heyd, E. N. Brothers, K. N. Kudin, 
 V. N. Staroverov, T. A. Keith, R. Kobayashi, J. Normand, 
 K. Raghavachari, A. P. Rendell, J. C. Burant, S. S. Iyengar, 
 J. Tomasi, M. Cossi, J. M. Millam, M. Klene, C. Adamo, R. Cammi, 
 J. W. Ochterski, R. L. Martin, K. Morokuma, O. Farkas, 
 J. B. Foresman, and D. J. Fox, Gaussian, Inc., Wallingford CT, 2019.
 
 ******************************************
 Gaussian 16:  ES64L-G16RevC.01  3-Jul-2019
                30-Dec-2023 
 ******************************************
 %chk=imda-1_1_opt_sqm_re_freq.chk
 %nprocshared=12
 Will use up to   12 processors via shared memory.
 %mem=48GB
 -----------------------------------------------------------
 # wb97xd def2svp scrf=(iefpcm,solvent=toluene) freq=noraman
 -----------------------------------------------------------
 1/10=4,30=1,38=1/1,3;
 2/12=2,17=6,18=5,40=1/2;
 3/5=43,7=101,11=2,25=1,30=1,70=2201,71=2,72=13,74=-58,140=1/1,2,3;
 4//1;
 5/5=2,38=5,53=13,98=1/2;
 8/6=4,10=90,11=11/1;
 11/6=1,8=1,9=11,15=111,16=1/1,2,10;
 10/6=1/2;
 6/7=2,8=2,9=2,10=2,28=1/1;
 7/8=1,10=1,25=1/1,2,3,16;
 1/10=4,30=1/3;
 99//99;
 -----------------------
 imda-1_1_opt_sqm_re.out
 -----------------------
 Symbolic Z-matrix:
 Charge =  0 Multiplicity = 1
 C                    -2.46695   0.31487  -0.21937 
 C                     0.98807   1.27223   1.11638 
 C                    -0.91868  -1.47846  -0.041 
 C                     1.36742  -0.0024    1.09882 
 C                    -2.67217  -0.35033   0.93923 
 C                    -1.71967  -1.45769   1.04656 
 C                     0.22754  -2.40389  -0.32258 
 H                     0.46346  -2.97842   0.58751 
 H                    -0.07396  -3.14853  -1.07958 
 C                     1.48797  -1.71427  -0.85717 
 H                     2.26129  -2.45139  -1.12011 
 H                     1.25131  -1.18945  -1.80029 
 C                     2.16472  -0.66376   0.00888 
 O                     3.31418  -0.34912  -0.18872 
 H                     1.05807  -0.62825   1.94102 
 H                     0.41311   1.71025   1.93335 
 C                    -1.34668  -0.36416  -0.95948 
 H                    -1.68769  -0.75378  -1.93674 
 H                    -0.53013   0.34442  -1.18319 
 Cl                    1.28405   2.3838   -0.18799 
 C                    -3.17195   1.52426  -0.73929 
 H                    -2.46548   2.35929  -0.87904 
 H                    -3.96092   1.85531  -0.04951 
 H                    -3.63452   1.33014  -1.72085 
 H                    -1.65151  -2.14043   1.8963 
 H                    -3.42312  -0.09916   1.69081 
 

 GradGradGradGradGradGradGradGradGradGradGradGradGradGradGradGradGradGrad
 Berny optimization.
 Initialization pass.
 Trust Radius=3.00D-01 FncErr=1.00D-07 GrdErr=1.00D-07 EigMax=2.50D+02 EigMin=1.00D-04
 Number of steps in this run=      2 maximum allowed number of steps=      2.
 GradGradGradGradGradGradGradGradGradGradGradGradGradGradGradGradGradGrad

                          Input orientation:                          
 ---------------------------------------------------------------------
 Center     Atomic      Atomic             Coordinates (Angstroms)
 Number     Number       Type             X           Y           Z
 ---------------------------------------------------------------------
      1          6           0       -2.466950    0.314870   -0.219370
      2          6           0        0.988070    1.272230    1.116380
      3          6           0       -0.918680   -1.478460   -0.041000
      4          6           0        1.367420   -0.002400    1.098820
      5          6           0       -2.672170   -0.350330    0.939230
      6          6           0       -1.719670   -1.457690    1.046560
      7          6           0        0.227540   -2.403890   -0.322580
      8          1           0        0.463460   -2.978420    0.587510
      9          1           0       -0.073960   -3.148530   -1.079580
     10          6           0        1.487970   -1.714270   -0.857170
     11          1           0        2.261290   -2.451390   -1.120110
     12          1           0        1.251310   -1.189450   -1.800290
     13          6           0        2.164720   -0.663760    0.008880
     14          8           0        3.314180   -0.349120   -0.188720
     15          1           0        1.058070   -0.628250    1.941020
     16          1           0        0.413110    1.710250    1.933350
     17          6           0       -1.346680   -0.364160   -0.959480
     18          1           0       -1.687690   -0.753780   -1.936740
     19          1           0       -0.530130    0.344420   -1.183190
     20         17           0        1.284050    2.383800   -0.187990
     21          6           0       -3.171950    1.524260   -0.739290
     22          1           0       -2.465480    2.359290   -0.879040
     23          1           0       -3.960920    1.855310   -0.049510
     24          1           0       -3.634520    1.330140   -1.720850
     25          1           0       -1.651510   -2.140430    1.896300
     26          1           0       -3.423120   -0.099160    1.690810
 ---------------------------------------------------------------------
                    Distance matrix (angstroms):
                    1          2          3          4          5
     1  C    0.000000
     2  C    3.825955   0.000000
     3  C    2.375918   3.541401   0.000000
     4  C    4.067023   1.329999   2.950287   0.000000
     5  C    1.351651   4.007673   2.303965   4.057686   0.000000
     6  C    2.302819   3.845672   1.350853   3.413316   1.464589
     7  C    3.829175   4.020307   1.499843   3.014442   3.770622
     8  H    4.481531   4.315431   2.134295   3.152027   4.106427
     9  H    4.296685   5.049086   2.140405   4.089149   4.319284
    10  C    4.490611   3.614413   2.552196   2.602101   4.732246
    11  H    5.551557   4.526403   3.496181   3.423479   5.744072
    12  H    4.311351   3.825719   2.808467   3.134870   4.858270
    13  C    4.739428   2.521729   3.189605   1.503680   4.935514
    14  O    5.819217   3.121354   4.383416   2.359629   6.091688
    15  H    4.240581   2.072862   2.925543   1.093932   3.872404
    16  H    3.856946   1.090816   3.979899   2.130802   3.840992
    17  C    1.504609   3.526758   1.506139   3.425465   2.315646
    18  H    2.167630   4.537174   2.170338   4.371830   3.066460
    19  H    2.163584   2.907539   2.185969   2.988068   3.094459
    20  Cl   4.283860   1.739130   4.448671   2.712339   4.939410
    21  C    1.493307   4.562104   3.818529   5.129836   2.565404
    22  H    2.148213   4.134055   4.221756   4.917381   3.269689
    23  H    2.152616   5.117791   4.513238   5.758555   2.739221
    24  H    2.156023   5.424165   4.252754   5.894540   3.290307
    25  H    3.342080   4.384279   2.174483   3.784321   2.272045
    26  H    2.175884   4.655027   3.342732   4.827949   1.091735
                    6          7          8          9         10
     6  C    0.000000
     7  C    2.561536   0.000000
     8  H    2.699889   1.101820   0.000000
     9  H    3.176125   1.103830   1.759814   0.000000
    10  C    3.738847   1.532986   2.175959   2.132180   0.000000
    11  H    4.640037   2.185051   2.534940   2.437425   1.100231
    12  H    4.123497   2.169469   3.085889   2.472601   1.104952
    13  C    4.098242   2.624992   2.930316   3.517174   1.520396
    14  O    5.300424   3.710437   3.955042   4.484397   2.376027
    15  H    3.033788   2.994422   2.776481   4.093571   3.032181
    16  H    3.920586   4.695722   4.878263   5.737833   4.546390
    17  C    2.314979   2.654112   3.536119   3.063814   3.141418
    18  H    3.065386   2.999414   3.993533   3.012254   3.488958
    19  H    3.103932   2.977906   3.894081   3.524135   2.901245
    20  Cl   5.030258   4.904723   5.479797   5.765917   4.157350
    21  C    3.767015   5.211578   5.937233   5.616788   5.675987
    22  H    4.339759   5.499990   6.262636   6.007967   5.676631
    23  H    4.147353   5.979845   6.583759   6.419339   6.563887
    24  H    4.370035   5.551004   6.378531   5.757369   6.021153
    25  H    1.092171   2.919532   2.624549   3.515792   4.197564
    26  H    2.272092   4.763700   4.961140   5.309481   5.763644
                   11         12         13         14         15
    11  H    0.000000
    12  H    1.753624   0.000000
    13  C    2.116498   2.093744   0.000000
    14  O    2.528953   2.749317   1.208016   0.000000
    15  H    3.760598   3.788098   2.226904   3.115082   0.000000
    16  H    5.482576   4.801136   3.522449   4.142510   2.425822
    17  C    4.171304   2.852651   3.654779   4.724184   3.776965
    18  H    4.375295   2.974247   4.316782   5.313946   4.753102
    19  H    3.951273   2.430452   3.114430   4.030966   3.637190
    20  Cl   5.020250   3.920293   3.178358   3.404450   3.695429
    21  C    6.743212   5.296713   5.816119   6.773667   5.450727
    22  H    6.748564   5.220803   5.600534   6.420007   5.412351
    23  H    7.642627   6.285152   6.623639   7.603024   5.943109
    24  H    7.030038   5.497816   6.371718   7.311072   6.266178
    25  H    4.950296   4.795363   4.506276   5.675753   3.103307
    26  H    6.763636   5.935218   5.862731   6.999023   4.519248
                   16         17         18         19         20
    16  H    0.000000
    17  C    3.970957   0.000000
    18  H    5.046028   1.105951   0.000000
    19  H    3.531008   1.104032   1.764604   0.000000
    20  Cl   2.390040   3.881652   4.661950   2.905296   0.000000
    21  C    4.475517   2.635569   2.970922   2.927163   4.571507
    22  H    4.076404   2.945397   3.378593   2.810300   3.812758
    23  H    4.804676   3.548006   3.941645   3.916419   5.273347
    24  H    5.466349   2.946956   2.859979   3.301206   5.258535
    25  H    4.369412   3.376912   4.076310   4.112813   5.781906
    26  H    4.248465   3.377257   4.074232   4.101954   5.643796
                   21         22         23         24         25
    21  C    0.000000
    22  H    1.102681   0.000000
    23  H    1.099029   1.782823   0.000000
    24  H    1.102322   1.770437   1.782054   0.000000
    25  H    4.763195   5.349069   5.008542   5.390822   0.000000
    26  H    2.933252   3.683094   2.671684   3.704998   2.710648
                   26
    26  H    0.000000
 Stoichiometry    C11H13ClO
 Framework group  C1[X(C11H13ClO)]
 Deg. of freedom    72
 Full point group                 C1      NOp   1
 Largest Abelian subgroup         C1      NOp   1
 Largest concise Abelian subgroup C1      NOp   1
                         Standard orientation:                         
 ---------------------------------------------------------------------
 Center     Atomic      Atomic             Coordinates (Angstroms)
 Number     Number       Type             X           Y           Z
 ---------------------------------------------------------------------
      1          6           0       -2.466949    0.314870   -0.219370
      2          6           0        0.988071    1.272229    1.116380
      3          6           0       -0.918680   -1.478460   -0.041000
      4          6           0        1.367421   -0.002401    1.098820
      5          6           0       -2.672169   -0.350330    0.939230
      6          6           0       -1.719670   -1.457690    1.046560
      7          6           0        0.227540   -2.403890   -0.322580
      8          1           0        0.463460   -2.978421    0.587510
      9          1           0       -0.073960   -3.148530   -1.079580
     10          6           0        1.487970   -1.714271   -0.857170
     11          1           0        2.261290   -2.451391   -1.120110
     12          1           0        1.251310   -1.189451   -1.800290
     13          6           0        2.164721   -0.663761    0.008880
     14          8           0        3.314181   -0.349121   -0.188720
     15          1           0        1.058071   -0.628251    1.941020
     16          1           0        0.413111    1.710250    1.933350
     17          6           0       -1.346679   -0.364160   -0.959480
     18          1           0       -1.687689   -0.753780   -1.936740
     19          1           0       -0.530129    0.344420   -1.183190
     20         17           0        1.284051    2.383799   -0.187990
     21          6           0       -3.171949    1.524260   -0.739290
     22          1           0       -2.465479    2.359290   -0.879040
     23          1           0       -3.960919    1.855311   -0.049510
     24          1           0       -3.634519    1.330141   -1.720850
     25          1           0       -1.651510   -2.140430    1.896300
     26          1           0       -3.423119   -0.099160    1.690810
 ---------------------------------------------------------------------
 Rotational constants (GHZ):           0.8867383           0.5794131           0.4150787
 Standard basis: def2SVP (5D, 7F)
 There are   264 symmetry adapted cartesian basis functions of A   symmetry.
 There are   251 symmetry adapted basis functions of A   symmetry.
   251 basis functions,   428 primitive gaussians,   264 cartesian basis functions
    52 alpha electrons       52 beta electrons
       nuclear repulsion energy       873.4007460564 Hartrees.
 NAtoms=   26 NActive=   26 NUniq=   26 SFac= 1.00D+00 NAtFMM=   60 NAOKFM=F Big=F
 Integral buffers will be    131072 words long.
 Raffenetti 2 integral format.
 Two-electron integral symmetry is turned on.
 Nuclear repulsion after empirical dispersion term =      873.3802147722 Hartrees.
 Force inversion solution in PCM.
 ------------------------------------------------------------------------------
 Polarizable Continuum Model (PCM)
 =================================
 Model                : PCM.
 Atomic radii         : UFF (Universal Force Field).
 Polarization charges : Total charges.
 Charge compensation  : None.
 Solution method      : Matrix inversion.
 Cavity type          : Scaled VdW (van der Waals Surface) (Alpha=1.100).
 Cavity algorithm     : GePol (No added spheres)
                        Default sphere list used, NSphG=   26.
                        Lebedev-Laikov grids with approx.  5.0 points / Ang**2.
                        Smoothing algorithm: York/Karplus (Gamma=1.0000).
                        Polarization charges: spherical gaussians, with
                                              point-specific exponents (IZeta= 3).
                        Self-potential: point-specific (ISelfS= 7).
                        Self-field    : sphere-specific E.n sum rule (ISelfD= 2).
 1st derivatives      : Analytical E(r).r(x)/FMM algorithm (CHGder, D1EAlg=3).
                        Cavity 1st derivative terms included.
 2nd derivatives      : Analytical E(r).r(xy)/FMM algorithm (CHGder, D2EAlg=3).
                        Cavity 2nd derivative terms included.
 Solvent              : Toluene, Eps=   2.374100 Eps(inf)=   2.238315
 ------------------------------------------------------------------------------
 One-electron integrals computed using PRISM.
   1 Symmetry operations used in ECPInt.
 ECPInt:  NShTT=    7140 NPrTT=   26096 LenC2=    6946 LenP2D=   19119.
 LDataN:  DoStor=T MaxTD1= 4 Len=   56
 NBasis=   251 RedAO= T EigKep=  5.71D-04  NBF=   251
 NBsUse=   251 1.00D-06 EigRej= -1.00D+00 NBFU=   251
 ExpMin= 1.22D-01 ExpMax= 1.04D+04 ExpMxC= 1.57D+03 IAcc=3 IRadAn=         5 AccDes= 0.00D+00
 Harris functional with IExCor= 4639 and IRadAn=       5 diagonalized for initial guess.
 HarFok:  IExCor= 4639 AccDes= 0.00D+00 IRadAn=         5 IDoV= 1 UseB2=F ITyADJ=14
 ICtDFT=  3500011 ScaDFX=  1.000000  1.000000  1.000000  1.000000
 FoFCou: FMM=F IPFlag=           0 FMFlag=      100000 FMFlg1=           0
         NFxFlg=           0 DoJE=T BraDBF=F KetDBF=T FulRan=T
         wScrn=  0.000000 ICntrl=       500 IOpCl=  0 I1Cent=   200000004 NGrid=           0
         NMat0=    1 NMatS0=      1 NMatT0=    0 NMatD0=    1 NMtDS0=    0 NMtDT0=    0
 Petite list used in FoFCou.
 Requested convergence on RMS density matrix=1.00D-08 within 128 cycles.
 Requested convergence on MAX density matrix=1.00D-06.
 Requested convergence on             energy=1.00D-06.
 No special actions if energy rises.
 Inv3:  Mode=1 IEnd=    12036027.
 Iteration    1 A*A^-1 deviation from unit magnitude is 3.00D-15 for     11.
 Iteration    1 A*A^-1 deviation from orthogonality  is 2.22D-15 for   1117    547.
 Iteration    1 A^-1*A deviation from unit magnitude is 2.89D-15 for   1099.
 Iteration    1 A^-1*A deviation from orthogonality  is 1.65D-15 for   1331     67.
 Error on total polarization charges =  0.00625
 SCF Done:  E(RwB97XD) =  -961.702758088     A.U. after   15 cycles
            NFock= 15  Conv=0.48D-08     -V/T= 2.0068
 DoSCS=F DFT=T ScalE2(SS,OS)=  1.000000  1.000000
 Range of M.O.s used for correlation:     1   251
 NBasis=   251 NAE=    52 NBE=    52 NFC=     0 NFV=     0
 NROrb=    251 NOA=    52 NOB=    52 NVA=   199 NVB=   199

 **** Warning!!: The largest alpha MO coefficient is  0.10356910D+02

   1 Symmetry operations used in ECPInt.
 ECPInt:  NShTT=    7140 NPrTT=   26096 LenC2=    6946 LenP2D=   19119.
 LDataN:  DoStor=T MaxTD1= 5 Len=  102
 Symmetrizing basis deriv contribution to polar:
 IMax=3 JMax=2 DiffMx= 0.00D+00
 G2DrvN: will do    27 centers at a time, making    1 passes.
 Calling FoFCou, ICntrl=  3107 FMM=F I1Cent=   0 AccDes= 0.00D+00.
 NEqPCM:  Using equilibrium solvation (IEInf=0, Eps=   2.3741, EpsInf=   2.2383)
 G2PCM: DoFxE=T DoFxN=T DoGrad=T DoDP/DQ/DG/TGxP=FFFF NFrqRd=   0 IEInf=0 SqF1=F DoCFld=F IF1Alg=4.
 End of G2Drv F.D. properties file   721 does not exist.
 End of G2Drv F.D. properties file   722 does not exist.
 End of G2Drv F.D. properties file   788 does not exist.
          IDoAtm=11111111111111111111111111
 NEqPCM:  Using equilibrium solvation (IEInf=0, Eps=   2.3741, EpsInf=   2.2383)
          Differentiating once with respect to electric field.
                with respect to dipole field.
          Differentiating once with respect to nuclear coordinates.
 Keep R1 ints in memory in canonical form, NReq=1021395223.
          There are    81 degrees of freedom in the 1st order CPHF.  IDoFFX=6 NUNeed=     3.
     78 vectors produced by pass  0 Test12= 1.28D-14 1.23D-09 XBig12= 5.86D+01 2.58D+00.
 AX will form    78 AO Fock derivatives at one time.
     78 vectors produced by pass  1 Test12= 1.28D-14 1.23D-09 XBig12= 5.34D+00 4.42D-01.
     78 vectors produced by pass  2 Test12= 1.28D-14 1.23D-09 XBig12= 1.78D-01 5.73D-02.
     78 vectors produced by pass  3 Test12= 1.28D-14 1.23D-09 XBig12= 2.02D-03 5.74D-03.
     78 vectors produced by pass  4 Test12= 1.28D-14 1.23D-09 XBig12= 1.34D-05 4.24D-04.
     78 vectors produced by pass  5 Test12= 1.28D-14 1.23D-09 XBig12= 7.31D-08 3.64D-05.
     65 vectors produced by pass  6 Test12= 1.28D-14 1.23D-09 XBig12= 3.56D-10 1.99D-06.
     20 vectors produced by pass  7 Test12= 1.28D-14 1.23D-09 XBig12= 1.67D-12 1.21D-07.
      3 vectors produced by pass  8 Test12= 1.28D-14 1.23D-09 XBig12= 7.58D-15 7.75D-09.
 InvSVY:  IOpt=1 It=  1 EMax= 2.56D-15
 Solved reduced A of dimension   556 with    81 vectors.
 Isotropic polarizability for W=    0.000000      137.36 Bohr**3.
 End of Minotr F.D. properties file   721 does not exist.
 End of Minotr F.D. properties file   722 does not exist.
 End of Minotr F.D. properties file   788 does not exist.

 **********************************************************************

            Population analysis using the SCF Density.

 **********************************************************************

 Orbital symmetries:
       Occupied  (A) (A) (A) (A) (A) (A) (A) (A) (A) (A) (A) (A)
                 (A) (A) (A) (A) (A) (A) (A) (A) (A) (A) (A) (A)
                 (A) (A) (A) (A) (A) (A) (A) (A) (A) (A) (A) (A)
                 (A) (A) (A) (A) (A) (A) (A) (A) (A) (A) (A) (A)
                 (A) (A) (A) (A)
       Virtual   (A) (A) (A) (A) (A) (A) (A) (A) (A) (A) (A) (A)
                 (A) (A) (A) (A) (A) (A) (A) (A) (A) (A) (A) (A)
                 (A) (A) (A) (A) (A) (A) (A) (A) (A) (A) (A) (A)
                 (A) (A) (A) (A) (A) (A) (A) (A) (A) (A) (A) (A)
                 (A) (A) (A) (A) (A) (A) (A) (A) (A) (A) (A) (A)
                 (A) (A) (A) (A) (A) (A) (A) (A) (A) (A) (A) (A)
                 (A) (A) (A) (A) (A) (A) (A) (A) (A) (A) (A) (A)
                 (A) (A) (A) (A) (A) (A) (A) (A) (A) (A) (A) (A)
                 (A) (A) (A) (A) (A) (A) (A) (A) (A) (A) (A) (A)
                 (A) (A) (A) (A) (A) (A) (A) (A) (A) (A) (A) (A)
                 (A) (A) (A) (A) (A) (A) (A) (A) (A) (A) (A) (A)
                 (A) (A) (A) (A) (A) (A) (A) (A) (A) (A) (A) (A)
                 (A) (A) (A) (A) (A) (A) (A) (A) (A) (A) (A) (A)
                 (A) (A) (A) (A) (A) (A) (A) (A) (A) (A) (A) (A)
                 (A) (A) (A) (A) (A) (A) (A) (A) (A) (A) (A) (A)
                 (A) (A) (A) (A) (A) (A) (A) (A) (A) (A) (A) (A)
                 (A) (A) (A) (A) (A) (A) (A)
 The electronic state is 1-A.
 Alpha  occ. eigenvalues -- -101.68793 -19.25543 -10.40038 -10.36776 -10.32226
 Alpha  occ. eigenvalues --  -10.31259 -10.31231 -10.30185 -10.30080 -10.30050
 Alpha  occ. eigenvalues --  -10.29685 -10.29206 -10.29010  -9.59536  -7.34903
 Alpha  occ. eigenvalues --   -7.33980  -7.33911  -1.14500  -0.97844  -0.96150
 Alpha  occ. eigenvalues --   -0.89929  -0.86025  -0.83820  -0.79555  -0.77587
 Alpha  occ. eigenvalues --   -0.72960  -0.70511  -0.62719  -0.61631  -0.60762
 Alpha  occ. eigenvalues --   -0.59595  -0.57495  -0.55478  -0.54846  -0.53432
 Alpha  occ. eigenvalues --   -0.52541  -0.49932  -0.49800  -0.48957  -0.48601
 Alpha  occ. eigenvalues --   -0.47407  -0.45886  -0.45351  -0.44687  -0.43064
 Alpha  occ. eigenvalues --   -0.42831  -0.41365  -0.40119  -0.38209  -0.34790
 Alpha  occ. eigenvalues --   -0.33873  -0.28291
 Alpha virt. eigenvalues --    0.02934   0.04843   0.07721   0.12607   0.13317
 Alpha virt. eigenvalues --    0.14514   0.15302   0.16455   0.17482   0.18562
 Alpha virt. eigenvalues --    0.19277   0.20641   0.21725   0.22245   0.22713
 Alpha virt. eigenvalues --    0.23747   0.24440   0.24793   0.26456   0.30016
 Alpha virt. eigenvalues --    0.30787   0.31242   0.33810   0.34659   0.36754
 Alpha virt. eigenvalues --    0.38918   0.40361   0.41234   0.42465   0.44769
 Alpha virt. eigenvalues --    0.47613   0.48135   0.50884   0.52177   0.52720
 Alpha virt. eigenvalues --    0.53419   0.54229   0.54923   0.55709   0.56900
 Alpha virt. eigenvalues --    0.58012   0.58533   0.60400   0.62886   0.63485
 Alpha virt. eigenvalues --    0.64851   0.66081   0.68557   0.69051   0.69815
 Alpha virt. eigenvalues --    0.70314   0.70827   0.71231   0.72450   0.73097
 Alpha virt. eigenvalues --    0.73720   0.73898   0.74715   0.75003   0.75888
 Alpha virt. eigenvalues --    0.76329   0.77148   0.77616   0.78329   0.78471
 Alpha virt. eigenvalues --    0.78688   0.79579   0.80029   0.80954   0.82460
 Alpha virt. eigenvalues --    0.83147   0.83341   0.84590   0.86762   0.87082
 Alpha virt. eigenvalues --    0.88572   0.89876   0.91021   0.91881   0.93077
 Alpha virt. eigenvalues --    0.95072   0.97068   0.98642   1.01993   1.04170
 Alpha virt. eigenvalues --    1.06594   1.08206   1.09323   1.10872   1.13708
 Alpha virt. eigenvalues --    1.14767   1.17531   1.18942   1.23661   1.24354
 Alpha virt. eigenvalues --    1.25036   1.26661   1.29888   1.33404   1.34373
 Alpha virt. eigenvalues --    1.34413   1.37720   1.41350   1.43959   1.46064
 Alpha virt. eigenvalues --    1.55222   1.58547   1.59909   1.60850   1.62048
 Alpha virt. eigenvalues --    1.62376   1.65663   1.66112   1.66661   1.69626
 Alpha virt. eigenvalues --    1.70848   1.73600   1.75476   1.77804   1.79288
 Alpha virt. eigenvalues --    1.80790   1.81433   1.82712   1.83049   1.84092
 Alpha virt. eigenvalues --    1.85130   1.85879   1.86651   1.87507   1.88328
 Alpha virt. eigenvalues --    1.89919   1.91041   1.91939   1.94059   1.94483
 Alpha virt. eigenvalues --    1.96324   1.97101   1.99812   2.01381   2.03650
 Alpha virt. eigenvalues --    2.05161   2.06443   2.07715   2.08851   2.10326
 Alpha virt. eigenvalues --    2.14459   2.15606   2.16627   2.17279   2.18749
 Alpha virt. eigenvalues --    2.21563   2.24218   2.25391   2.29172   2.30506
 Alpha virt. eigenvalues --    2.33344   2.34820   2.35790   2.36345   2.39059
 Alpha virt. eigenvalues --    2.41303   2.42960   2.44757   2.48092   2.48562
 Alpha virt. eigenvalues --    2.49449   2.53021   2.56218   2.57715   2.65205
 Alpha virt. eigenvalues --    2.66244   2.68959   2.70763   2.73322   2.74616
 Alpha virt. eigenvalues --    2.76429   2.78439   2.79049   2.79370   2.81911
 Alpha virt. eigenvalues --    2.82215   2.83688   2.87519   2.92060   2.95177
 Alpha virt. eigenvalues --    2.99504   3.01183   3.02051   3.05197   3.08603
 Alpha virt. eigenvalues --    3.11770   3.13243   3.20367   3.21988   3.25885
 Alpha virt. eigenvalues --    3.27062   3.47911   3.48603   3.70741
          Condensed to atoms (all electrons):
               1          2          3          4          5          6
     1  C    5.082970   0.003635  -0.096514  -0.001396   0.590507  -0.002184
     2  C    0.003635   4.721002  -0.007002   0.630798   0.002704  -0.002716
     3  C   -0.096514  -0.007002   5.193528  -0.004926  -0.006466   0.582246
     4  C   -0.001396   0.630798  -0.004926   5.105667  -0.001384  -0.000418
     5  C    0.590507   0.002704  -0.006466  -0.001384   4.963763   0.274161
     6  C   -0.002184  -0.002716   0.582246  -0.000418   0.274161   4.989843
     7  C    0.010391  -0.001946   0.335350   0.013094   0.009894  -0.060846
     8  H   -0.000614   0.000402  -0.015026  -0.002267   0.000692  -0.015234
     9  H    0.000461  -0.000039  -0.000995   0.000002  -0.000653   0.001655
    10  C    0.000508   0.007616  -0.048574  -0.168736  -0.000432   0.002689
    11  H   -0.000012  -0.000303   0.006406   0.011262   0.000012  -0.000149
    12  H   -0.000015  -0.000360  -0.014630   0.002926   0.000074  -0.000151
    13  C    0.000080  -0.031425  -0.006811   0.269332   0.000025   0.001191
    14  O    0.000001   0.000259  -0.000079  -0.080292  -0.000000  -0.000000
    15  H   -0.000017   0.003523   0.004519   0.370429  -0.000884   0.002626
    16  H    0.000308   0.409475  -0.000199  -0.021249   0.001192  -0.000244
    17  C    0.334752  -0.000078   0.333496   0.003589  -0.091787  -0.109237
    18  H    0.003094   0.000154  -0.000967   0.000157   0.000359   0.000603
    19  H   -0.008216  -0.002567   0.001232  -0.009085   0.001288   0.003302
    20  Cl   0.000389   0.286291   0.000374  -0.086075  -0.000122   0.000070
    21  C    0.403560  -0.000142   0.009070   0.000020  -0.063937   0.010144
    22  H   -0.015862  -0.000552   0.000474   0.000053   0.001554  -0.000371
    23  H   -0.010487  -0.000004  -0.000598   0.000001  -0.012165   0.000429
    24  H   -0.015141   0.000026   0.000582  -0.000005   0.002819  -0.000538
    25  H    0.007432   0.000008  -0.065524  -0.000267  -0.053483   0.442428
    26  H   -0.064383  -0.000019   0.007765   0.000006   0.443967  -0.056682
               7          8          9         10         11         12
     1  C    0.010391  -0.000614   0.000461   0.000508  -0.000012  -0.000015
     2  C   -0.001946   0.000402  -0.000039   0.007616  -0.000303  -0.000360
     3  C    0.335350  -0.015026  -0.000995  -0.048574   0.006406  -0.014630
     4  C    0.013094  -0.002267   0.000002  -0.168736   0.011262   0.002926
     5  C    0.009894   0.000692  -0.000653  -0.000432   0.000012   0.000074
     6  C   -0.060846  -0.015234   0.001655   0.002689  -0.000149  -0.000151
     7  C    4.713792   0.380498   0.341882   0.308186  -0.009191  -0.007478
     8  H    0.380498   0.662644  -0.023273  -0.025913  -0.005174   0.006490
     9  H    0.341882  -0.023273   0.648886  -0.006559  -0.005942  -0.008275
    10  C    0.308186  -0.025913  -0.006559   5.091582   0.340896   0.350446
    11  H   -0.009191  -0.005174  -0.005942   0.340896   0.606628  -0.006044
    12  H   -0.007478   0.006490  -0.008275   0.350446  -0.006044   0.592413
    13  C   -0.035945  -0.007862   0.006606   0.295142  -0.008039  -0.004564
    14  O    0.004654   0.000157  -0.000163  -0.088145   0.007678   0.000910
    15  H    0.000331   0.000408   0.000160  -0.002662  -0.000285   0.000101
    16  H    0.000096   0.000004  -0.000003  -0.000400   0.000009   0.000024
    17  C   -0.079841   0.009922  -0.005799  -0.000297   0.000228   0.006699
    18  H    0.004150  -0.000269   0.001157  -0.001971  -0.000048   0.000642
    19  H   -0.010289  -0.000162   0.000149   0.006375  -0.000087   0.001232
    20  Cl   0.000014  -0.000003   0.000001  -0.002291  -0.000003   0.000859
    21  C   -0.000224   0.000006   0.000010   0.000000  -0.000000   0.000010
    22  H    0.000005  -0.000001   0.000003  -0.000011   0.000000  -0.000012
    23  H    0.000007  -0.000000  -0.000000   0.000000   0.000000  -0.000000
    24  H    0.000014   0.000000  -0.000007   0.000002  -0.000000   0.000003
    25  H   -0.012042   0.004819   0.000307   0.000141  -0.000008   0.000001
    26  H   -0.000312   0.000009   0.000006   0.000006  -0.000000  -0.000000
              13         14         15         16         17         18
     1  C    0.000080   0.000001  -0.000017   0.000308   0.334752   0.003094
     2  C   -0.031425   0.000259   0.003523   0.409475  -0.000078   0.000154
     3  C   -0.006811  -0.000079   0.004519  -0.000199   0.333496  -0.000967
     4  C    0.269332  -0.080292   0.370429  -0.021249   0.003589   0.000157
     5  C    0.000025  -0.000000  -0.000884   0.001192  -0.091787   0.000359
     6  C    0.001191  -0.000000   0.002626  -0.000244  -0.109237   0.000603
     7  C   -0.035945   0.004654   0.000331   0.000096  -0.079841   0.004150
     8  H   -0.007862   0.000157   0.000408   0.000004   0.009922  -0.000269
     9  H    0.006606  -0.000163   0.000160  -0.000003  -0.005799   0.001157
    10  C    0.295142  -0.088145  -0.002662  -0.000400  -0.000297  -0.001971
    11  H   -0.008039   0.007678  -0.000285   0.000009   0.000228  -0.000048
    12  H   -0.004564   0.000910   0.000101   0.000024   0.006699   0.000642
    13  C    4.767545   0.695080  -0.022599   0.006805  -0.004663   0.000266
    14  O    0.695080   7.684134   0.001254  -0.000144   0.000017  -0.000001
    15  H   -0.022599   0.001254   0.568520  -0.010879  -0.000280   0.000001
    16  H    0.006805  -0.000144  -0.010879   0.552856  -0.000186   0.000008
    17  C   -0.004663   0.000017  -0.000280  -0.000186   4.857598   0.332980
    18  H    0.000266  -0.000001   0.000001   0.000008   0.332980   0.610558
    19  H    0.000322  -0.000131   0.000043   0.000181   0.331341  -0.015225
    20  Cl   0.008425  -0.000850   0.003677  -0.037237  -0.006503   0.000014
    21  C   -0.000001  -0.000000   0.000001  -0.000001  -0.066860  -0.000775
    22  H    0.000001   0.000000   0.000000  -0.000106  -0.005859  -0.000082
    23  H   -0.000000   0.000000  -0.000000   0.000002   0.008809  -0.000240
    24  H    0.000000   0.000000  -0.000000   0.000002  -0.005650   0.001958
    25  H   -0.000008   0.000000   0.000673  -0.000006   0.014733  -0.000386
    26  H    0.000001  -0.000000  -0.000003   0.000016   0.015157  -0.000379
              19         20         21         22         23         24
     1  C   -0.008216   0.000389   0.403560  -0.015862  -0.010487  -0.015141
     2  C   -0.002567   0.286291  -0.000142  -0.000552  -0.000004   0.000026
     3  C    0.001232   0.000374   0.009070   0.000474  -0.000598   0.000582
     4  C   -0.009085  -0.086075   0.000020   0.000053   0.000001  -0.000005
     5  C    0.001288  -0.000122  -0.063937   0.001554  -0.012165   0.002819
     6  C    0.003302   0.000070   0.010144  -0.000371   0.000429  -0.000538
     7  C   -0.010289   0.000014  -0.000224   0.000005   0.000007   0.000014
     8  H   -0.000162  -0.000003   0.000006  -0.000001  -0.000000   0.000000
     9  H    0.000149   0.000001   0.000010   0.000003  -0.000000  -0.000007
    10  C    0.006375  -0.002291   0.000000  -0.000011   0.000000   0.000002
    11  H   -0.000087  -0.000003  -0.000000   0.000000   0.000000  -0.000000
    12  H    0.001232   0.000859   0.000010  -0.000012  -0.000000   0.000003
    13  C    0.000322   0.008425  -0.000001   0.000001  -0.000000   0.000000
    14  O   -0.000131  -0.000850  -0.000000   0.000000   0.000000   0.000000
    15  H    0.000043   0.003677   0.000001   0.000000  -0.000000  -0.000000
    16  H    0.000181  -0.037237  -0.000001  -0.000106   0.000002   0.000002
    17  C    0.331341  -0.006503  -0.066860  -0.005859   0.008809  -0.005650
    18  H   -0.015225   0.000014  -0.000775  -0.000082  -0.000240   0.001958
    19  H    0.639780   0.020344  -0.000663   0.003123  -0.000240  -0.000294
    20  Cl   0.020344  16.912691  -0.000889   0.003283   0.000003  -0.000001
    21  C   -0.000663  -0.000889   4.520542   0.380042   0.386431   0.383118
    22  H    0.003123   0.003283   0.380042   0.631312  -0.019738  -0.023133
    23  H   -0.000240   0.000003   0.386431  -0.019738   0.628548  -0.020327
    24  H   -0.000294  -0.000001   0.383118  -0.023133  -0.020327   0.631373
    25  H   -0.000336   0.000001  -0.000293   0.000007   0.000006   0.000005
    26  H   -0.000372  -0.000000  -0.010758   0.000136   0.004509   0.000093
              25         26
     1  C    0.007432  -0.064383
     2  C    0.000008  -0.000019
     3  C   -0.065524   0.007765
     4  C   -0.000267   0.000006
     5  C   -0.053483   0.443967
     6  C    0.442428  -0.056682
     7  C   -0.012042  -0.000312
     8  H    0.004819   0.000009
     9  H    0.000307   0.000006
    10  C    0.000141   0.000006
    11  H   -0.000008  -0.000000
    12  H    0.000001  -0.000000
    13  C   -0.000008   0.000001
    14  O    0.000000  -0.000000
    15  H    0.000673  -0.000003
    16  H   -0.000006   0.000016
    17  C    0.014733   0.015157
    18  H   -0.000386  -0.000379
    19  H   -0.000336  -0.000372
    20  Cl   0.000001  -0.000000
    21  C   -0.000293  -0.010758
    22  H    0.000007   0.000136
    23  H    0.000006   0.004509
    24  H    0.000005   0.000093
    25  H    0.659667  -0.003587
    26  H   -0.003587   0.659190
 Mulliken charges:
               1
     1  C   -0.223244
     2  C   -0.018740
     3  C   -0.206732
     4  C   -0.031236
     5  C   -0.061697
     6  C   -0.062616
     7  C    0.095758
     8  H    0.029749
     9  H    0.050422
    10  C   -0.057598
    11  H    0.062167
    12  H    0.078699
    13  C    0.071094
    14  O   -0.224336
    15  H    0.081345
    16  H    0.099676
    17  C    0.127720
    18  H    0.064241
    19  H    0.038957
    20  Cl  -0.102461
    21  C    0.051588
    22  H    0.045734
    23  H    0.035056
    24  H    0.045102
    25  H    0.005714
    26  H    0.005635
 Sum of Mulliken charges =  -0.00000
 Mulliken charges with hydrogens summed into heavy atoms:
               1
     1  C   -0.223244
     2  C    0.080937
     3  C   -0.206732
     4  C    0.050109
     5  C   -0.056062
     6  C   -0.056901
     7  C    0.175930
    10  C    0.083269
    13  C    0.071094
    14  O   -0.224336
    17  C    0.230919
    20  Cl  -0.102461
    21  C    0.177481
 APT charges:
               1
     1  C    0.049347
     2  C    0.328859
     3  C   -0.049344
     4  C   -0.300351
     5  C   -0.072239
     6  C   -0.042891
     7  C    0.143749
     8  H   -0.030436
     9  H   -0.048492
    10  C   -0.092362
    11  H   -0.008264
    12  H    0.027408
    13  C    0.948408
    14  O   -0.758044
    15  H    0.080411
    16  H    0.061596
    17  C   -0.110729
    18  H    0.043916
    19  H    0.054300
    20  Cl  -0.311987
    21  C    0.053363
    22  H   -0.012388
    23  H   -0.010102
    24  H   -0.022625
    25  H    0.041298
    26  H    0.037600
 Sum of APT charges =   0.00000
 APT charges with hydrogens summed into heavy atoms:
               1
     1  C    0.049347
     2  C    0.390455
     3  C   -0.049344
     4  C   -0.219940
     5  C   -0.034639
     6  C   -0.001593
     7  C    0.064821
    10  C   -0.073218
    13  C    0.948408
    14  O   -0.758044
    17  C   -0.012514
    20  Cl  -0.311987
    21  C    0.008248
 Electronic spatial extent (au):  <R**2>=           2794.4541
 Charge=              0.0000 electrons
 Dipole moment (field-independent basis, Debye):
    X=             -3.0670    Y=             -1.3973    Z=              0.4616  Tot=              3.4018
 Quadrupole moment (field-independent basis, Debye-Ang):
   XX=            -98.8821   YY=            -80.9233   ZZ=            -77.0221
   XY=             -5.4585   XZ=              0.9896   YZ=              0.5644
 Traceless Quadrupole moment (field-independent basis, Debye-Ang):
   XX=            -13.2729   YY=              4.6859   ZZ=              8.5871
   XY=             -5.4585   XZ=              0.9896   YZ=              0.5644
 Octapole moment (field-independent basis, Debye-Ang**2):
  XXX=            -40.8289  YYY=              2.0415  ZZZ=              0.2082  XYY=             11.4338
  XXY=              9.4866  XXZ=              2.6500  XZZ=              2.1623  YZZ=              1.2908
  YYZ=             -0.1812  XYZ=              0.4112
 Hexadecapole moment (field-independent basis, Debye-Ang**3):
 XXXX=          -2234.7226 YYYY=          -1237.3922 ZZZZ=           -396.5451 XXXY=            -27.5352
 XXXZ=             -7.6966 YYYX=            -15.8083 YYYZ=             -1.5008 ZZZX=             -5.8399
 ZZZY=             -0.8785 XXYY=           -546.2482 XXZZ=           -388.4926 YYZZ=           -256.5728
 XXYZ=             -6.4939 YYXZ=             -7.6957 ZZXY=              4.6604
 N-N= 8.733802147722D+02 E-N=-4.003740451512D+03  KE= 9.552501763078D+02
  Exact polarizability:     138.396     -15.990     147.002     -14.432     -10.781     126.680
 Approx polarizability:     132.017      -9.318     144.481     -16.252     -15.221     139.019
   1 Symmetry operations used in ECPInt.
 ECPInt:  NShTT=    7140 NPrTT=   26096 LenC2=    6946 LenP2D=   19119.
 LDataN:  DoStor=T MaxTD1= 6 Len=  172
 D2PCM: PCM CHGder 2nd derivatives, FixD1E=F FixD2E=F DoIter=F DoCFld=F I1PDM=0
 Calling FoFJK, ICntrl=    100127 FMM=F ISym2X=0 I1Cent= 0 IOpClX= 0 NMat=1 NMatS=1 NMatT=0.
 Full mass-weighted force constant matrix:
 Low frequencies ---  -28.0399   -2.1868   -0.0014   -0.0013    0.0024    7.4208
 Low frequencies ---    9.7460   35.1115   63.2002
 ******    1 imaginary frequencies (negative Signs) ****** 
 Diagonal vibrational polarizability:
       46.5489740      59.1875489      67.6687139
 Harmonic frequencies (cm**-1), IR intensities (KM/Mole), Raman scattering
 activities (A**4/AMU), depolarization ratios for plane and unpolarized
 incident light, reduced masses (AMU), force constants (mDyne/A),
 and normal coordinates:
                      1                      2                      3
                      A                      A                      A
 Frequencies --    -27.8486                35.0754                63.1800
 Red. masses --      6.2940                 6.8818                 5.3703
 Frc consts  --      0.0029                 0.0050                 0.0126
 IR Inten    --      3.4129                 0.3917                 0.5905
  Atom  AN      X      Y      Z        X      Y      Z        X      Y      Z
     1   6    -0.06  -0.01   0.07    -0.18  -0.10  -0.03     0.07  -0.03   0.06
     2   6    -0.04   0.04  -0.08     0.14   0.07   0.01    -0.11   0.10  -0.11
     3   6     0.00   0.04  -0.06    -0.04   0.02   0.04    -0.03  -0.12  -0.03
     4   6    -0.03   0.05   0.02     0.04   0.04  -0.02    -0.21   0.07  -0.07
     5   6     0.00  -0.06   0.05    -0.16  -0.10  -0.03     0.02  -0.10   0.01
     6   6     0.04  -0.04  -0.03    -0.07  -0.02   0.02    -0.04  -0.16  -0.05
     7   6     0.02   0.09  -0.16    -0.02   0.04   0.05    -0.01  -0.11  -0.03
     8   1     0.03  -0.01  -0.22     0.01   0.07   0.06    -0.04  -0.13  -0.03
     9   1     0.03   0.17  -0.24    -0.03   0.01   0.08     0.03  -0.09  -0.06
    10   6     0.01   0.17  -0.08    -0.04   0.03  -0.01    -0.00  -0.07   0.04
    11   1    -0.00   0.21  -0.23    -0.06   0.03  -0.05     0.06  -0.04   0.14
    12   1    -0.02   0.35   0.03    -0.09   0.05   0.01     0.04  -0.13  -0.00
    13   6     0.05  -0.01   0.11     0.01   0.02  -0.03    -0.12   0.03   0.02
    14   8     0.14  -0.19   0.34     0.01  -0.01  -0.06    -0.13   0.09   0.05
    15   1    -0.04   0.10   0.05    -0.04   0.03  -0.06    -0.38   0.09  -0.12
    16   1    -0.08   0.10  -0.14     0.15   0.08   0.01    -0.19   0.13  -0.18
    17   6    -0.07   0.07   0.00    -0.08  -0.01   0.02     0.02  -0.07   0.02
    18   1    -0.09   0.10  -0.00     0.02  -0.02  -0.01    -0.05  -0.03   0.02
    19   1    -0.10   0.10   0.01    -0.12   0.06   0.09     0.05  -0.11  -0.01
    20  17     0.02  -0.05  -0.15     0.28   0.09   0.06     0.14   0.11  -0.04
    21   6    -0.13  -0.01   0.15    -0.28  -0.19  -0.08     0.17   0.07   0.16
    22   1    -0.16   0.02   0.14    -0.37  -0.12  -0.10     0.24   0.02   0.23
    23   1    -0.11  -0.06   0.19    -0.33  -0.24  -0.11     0.19   0.07   0.18
    24   1    -0.16   0.01   0.16    -0.25  -0.26  -0.09     0.17   0.19   0.14
    25   1     0.09  -0.07  -0.07    -0.06  -0.02   0.02    -0.08  -0.21  -0.08
    26   1     0.02  -0.12   0.09    -0.21  -0.15  -0.06     0.03  -0.11   0.03
                      4                      5                      6
                      A                      A                      A
 Frequencies --     90.1679               124.8620               162.9102
 Red. masses --      3.2295                10.2951                 1.1092
 Frc consts  --      0.0155                 0.0946                 0.0173
 IR Inten    --      2.6666                 1.0498                 0.0365
  Atom  AN      X      Y      Z        X      Y      Z        X      Y      Z
     1   6     0.03  -0.00  -0.01     0.02  -0.05  -0.02    -0.01  -0.02  -0.01
     2   6    -0.08  -0.02  -0.01     0.05   0.07  -0.07    -0.02  -0.01  -0.00
     3   6     0.00  -0.02  -0.04    -0.01  -0.07   0.07     0.01   0.00   0.01
     4   6    -0.10  -0.02  -0.03     0.07   0.08  -0.19    -0.02  -0.01  -0.00
     5   6     0.18   0.13   0.09    -0.04  -0.03  -0.02     0.02   0.02   0.02
     6   6     0.16   0.11   0.07    -0.05  -0.04   0.04     0.04   0.03   0.03
     7   6    -0.02  -0.04  -0.08    -0.01  -0.06   0.08     0.00   0.00  -0.01
     8   1    -0.03  -0.07  -0.10     0.10   0.03   0.10     0.01   0.00  -0.01
     9   1    -0.02   0.00  -0.11    -0.04  -0.13   0.16    -0.01   0.01  -0.01
    10   6    -0.01  -0.02  -0.04    -0.09  -0.03  -0.09    -0.01   0.01  -0.02
    11   1     0.01  -0.00  -0.02    -0.13  -0.01  -0.25    -0.01   0.02  -0.03
    12   1     0.01  -0.01  -0.04    -0.25   0.02  -0.03    -0.02   0.03  -0.01
    13   6    -0.05  -0.02   0.00     0.04  -0.10  -0.11    -0.01   0.00  -0.00
    14   8    -0.04  -0.02   0.06     0.16  -0.43   0.06    -0.01   0.01   0.01
    15   1    -0.15  -0.04  -0.07     0.10   0.09  -0.16    -0.02  -0.01  -0.01
    16   1    -0.12  -0.04  -0.03     0.11  -0.05   0.04    -0.03  -0.01  -0.01
    17   6    -0.08  -0.09  -0.09     0.03  -0.09   0.04    -0.03  -0.03  -0.02
    18   1    -0.18  -0.15  -0.03     0.04  -0.11   0.04    -0.05  -0.06   0.01
    19   1    -0.08  -0.13  -0.21     0.04  -0.10   0.03    -0.04  -0.03  -0.06
    20  17     0.03   0.04   0.07    -0.13   0.31   0.09     0.01  -0.01   0.00
    21   6    -0.06  -0.08  -0.07     0.13  -0.00  -0.06     0.01  -0.00  -0.01
    22   1    -0.08  -0.11  -0.37     0.19  -0.03   0.09    -0.07   0.15   0.54
    23   1     0.09   0.05   0.04     0.04  -0.01  -0.16    -0.35  -0.31  -0.27
    24   1    -0.27  -0.25   0.06     0.28   0.06  -0.14     0.49   0.19  -0.27
    25   1     0.27   0.21   0.14    -0.10  -0.03   0.06     0.07   0.06   0.05
    26   1     0.29   0.23   0.17    -0.06   0.00  -0.04     0.03   0.03   0.02
                      7                      8                      9
                      A                      A                      A
 Frequencies --    170.9553               196.3564               205.4522
 Red. masses --      2.7052                 3.5431                 3.0059
 Frc consts  --      0.0466                 0.0805                 0.0748
 IR Inten    --      0.8270                 6.6645                 0.2046
  Atom  AN      X      Y      Z        X      Y      Z        X      Y      Z
     1   6     0.02  -0.05  -0.01    -0.05  -0.05  -0.05     0.10   0.04   0.05
     2   6     0.02   0.02   0.06     0.23   0.13   0.13     0.10   0.07   0.07
     3   6    -0.03  -0.07   0.06    -0.07  -0.07  -0.10     0.05   0.01   0.02
     4   6    -0.01   0.01   0.05     0.11   0.09   0.12    -0.06   0.02   0.02
     5   6    -0.01  -0.00   0.01     0.03  -0.00  -0.01     0.06   0.00   0.02
     6   6    -0.03  -0.03   0.05     0.02  -0.02  -0.04     0.03  -0.02   0.00
     7   6     0.03   0.02   0.01    -0.06  -0.06  -0.08    -0.05  -0.06  -0.09
     8   1     0.19   0.07   0.00    -0.15  -0.13  -0.11    -0.05  -0.18  -0.17
     9   1     0.04  -0.03   0.06     0.01   0.01  -0.18    -0.12   0.05  -0.18
    10   6    -0.13   0.20  -0.13    -0.01  -0.03   0.08    -0.05  -0.03  -0.04
    11   1    -0.12   0.31  -0.41     0.02  -0.03   0.16    -0.01   0.00  -0.03
    12   1    -0.36   0.36   0.02     0.10  -0.05   0.05    -0.04  -0.02  -0.04
    13   6    -0.06   0.06  -0.02    -0.03   0.00   0.07    -0.12  -0.03  -0.00
    14   8    -0.04   0.02   0.01    -0.04  -0.00  -0.00    -0.11  -0.03   0.03
    15   1     0.05   0.00   0.06     0.23   0.16   0.22     0.00   0.07   0.08
    16   1     0.08   0.07   0.07     0.47   0.23   0.24     0.27   0.16   0.14
    17   6    -0.01  -0.10   0.02    -0.12  -0.10  -0.12     0.17   0.12   0.10
    18   1    -0.00  -0.12   0.03    -0.18  -0.11  -0.09     0.30   0.26   0.00
    19   1     0.00  -0.11   0.02    -0.11  -0.12  -0.16     0.20   0.15   0.30
    20  17     0.03  -0.05  -0.00    -0.03   0.02  -0.03    -0.02   0.01  -0.03
    21   6     0.14  -0.01  -0.08     0.02   0.03   0.05    -0.04  -0.10  -0.08
    22   1     0.25  -0.12  -0.19     0.08  -0.00   0.13    -0.19   0.02  -0.07
    23   1     0.22   0.17  -0.09     0.05   0.02   0.08    -0.18  -0.21  -0.19
    24   1     0.08  -0.04  -0.05     0.01   0.16   0.03     0.10  -0.27  -0.12
    25   1    -0.04   0.01   0.08     0.09   0.02  -0.02    -0.04  -0.10  -0.05
    26   1     0.00   0.05   0.01     0.12   0.06   0.06    -0.01  -0.06  -0.02
                     10                     11                     12
                      A                      A                      A
 Frequencies --    276.5949               307.1290               347.7982
 Red. masses --      2.4297                 3.4007                 2.7298
 Frc consts  --      0.1095                 0.1890                 0.1946
 IR Inten    --      0.8080                 3.2141                 5.8333
  Atom  AN      X      Y      Z        X      Y      Z        X      Y      Z
     1   6     0.02  -0.01  -0.08     0.16   0.12   0.04     0.04   0.10   0.13
     2   6     0.05   0.02   0.05    -0.08  -0.00  -0.03     0.12  -0.00   0.03
     3   6     0.05   0.02  -0.04    -0.12  -0.14  -0.10    -0.05  -0.02  -0.05
     4   6    -0.08  -0.01  -0.03     0.09   0.05   0.08    -0.05  -0.05  -0.10
     5   6     0.04   0.00  -0.08     0.12   0.10   0.02     0.00   0.02   0.09
     6   6     0.05   0.04  -0.05    -0.10  -0.09  -0.10    -0.08  -0.08  -0.06
     7   6     0.08  -0.01   0.16    -0.01  -0.06   0.07     0.05   0.04   0.04
     8   1     0.18   0.30   0.33     0.01   0.07   0.14     0.09   0.22   0.15
     9   1     0.11  -0.27   0.41     0.18  -0.18   0.11     0.10  -0.13   0.19
    10   6    -0.04  -0.01  -0.06    -0.07   0.08   0.07     0.07  -0.04  -0.06
    11   1    -0.00   0.04  -0.11    -0.07   0.15  -0.11     0.06  -0.11   0.09
    12   1    -0.18  -0.05  -0.05    -0.20   0.18   0.16     0.13  -0.18  -0.15
    13   6    -0.08  -0.01  -0.05     0.05   0.03   0.06     0.00   0.02  -0.08
    14   8    -0.06  -0.03   0.05     0.04  -0.03  -0.09     0.02   0.07   0.11
    15   1    -0.01  -0.01  -0.00     0.05   0.04   0.06    -0.00  -0.07  -0.10
    16   1     0.20   0.07   0.12    -0.24  -0.04  -0.12     0.29   0.03   0.14
    17   6     0.05   0.00  -0.08     0.03  -0.01  -0.04    -0.10   0.01   0.02
    18   1     0.09  -0.00  -0.09    -0.08   0.12  -0.05    -0.39  -0.03   0.13
    19   1     0.05   0.02  -0.06     0.15  -0.14  -0.03    -0.09  -0.09  -0.24
    20  17    -0.01  -0.02   0.00     0.01   0.01   0.00    -0.01  -0.01  -0.00
    21   6    -0.08   0.03   0.12    -0.09  -0.04   0.02     0.01  -0.00  -0.08
    22   1    -0.15   0.09   0.16    -0.34   0.18   0.03    -0.04   0.03  -0.15
    23   1    -0.00  -0.13   0.28    -0.22  -0.27  -0.01    -0.11   0.05  -0.25
    24   1    -0.20   0.16   0.15    -0.01  -0.19   0.01     0.15  -0.23  -0.10
    25   1     0.08   0.08  -0.02    -0.16  -0.13  -0.12    -0.11  -0.14  -0.11
    26   1     0.04   0.02  -0.09     0.13   0.14   0.03     0.00  -0.04   0.11
                     13                     14                     15
                      A                      A                      A
 Frequencies --    387.2605               404.8090               434.6282
 Red. masses --      2.0359                 2.2775                 3.8531
 Frc consts  --      0.1799                 0.2199                 0.4288
 IR Inten    --     13.7481                 7.6230                 6.3733
  Atom  AN      X      Y      Z        X      Y      Z        X      Y      Z
     1   6     0.10   0.05  -0.05    -0.07  -0.04  -0.07     0.00  -0.02  -0.04
     2   6     0.05  -0.02  -0.01     0.08  -0.05  -0.03    -0.12   0.14   0.13
     3   6     0.03  -0.00   0.14    -0.11  -0.13  -0.01    -0.06  -0.06   0.03
     4   6    -0.00  -0.03  -0.03     0.00  -0.07  -0.06    -0.05   0.18  -0.11
     5   6    -0.03   0.05  -0.08     0.02   0.09   0.02     0.01   0.05  -0.00
     6   6    -0.10   0.01   0.05    -0.06   0.02   0.04    -0.05  -0.00   0.04
     7   6    -0.01  -0.02  -0.06    -0.01  -0.05  -0.01    -0.00   0.02  -0.04
     8   1     0.01  -0.23  -0.20     0.02  -0.05  -0.02     0.01  -0.05  -0.09
     9   1    -0.12   0.18  -0.20     0.06  -0.06  -0.03     0.03   0.08  -0.11
    10   6     0.02   0.00  -0.03     0.02  -0.01  -0.03     0.05   0.01  -0.00
    11   1     0.00  -0.00  -0.07    -0.02  -0.03  -0.09     0.13  -0.08   0.46
    12   1     0.02   0.04  -0.01    -0.01   0.03  -0.00     0.27  -0.36  -0.26
    13   6     0.02  -0.01  -0.01     0.06  -0.01  -0.02    -0.02   0.20  -0.16
    14   8     0.01   0.05   0.04     0.04   0.11   0.09     0.09  -0.11  -0.02
    15   1    -0.00  -0.03  -0.02    -0.05  -0.08  -0.09     0.11  -0.00  -0.18
    16   1     0.08  -0.02   0.02     0.09  -0.07  -0.01    -0.06   0.14   0.18
    17   6     0.05  -0.10   0.01     0.02  -0.02   0.04     0.02  -0.05   0.02
    18   1    -0.15  -0.39   0.19     0.44   0.30  -0.23     0.18   0.04  -0.06
    19   1     0.07  -0.23  -0.36     0.11   0.05   0.59     0.08  -0.05   0.20
    20  17    -0.01   0.01  -0.00    -0.01   0.02  -0.01     0.02  -0.11   0.04
    21   6    -0.06   0.01   0.06    -0.03   0.02   0.02    -0.01  -0.00   0.02
    22   1    -0.22   0.14   0.06     0.00   0.01   0.09    -0.03   0.02   0.05
    23   1    -0.04  -0.18   0.18     0.01  -0.01   0.07     0.01  -0.06   0.07
    24   1    -0.16   0.03   0.10    -0.06   0.14   0.01    -0.05   0.05   0.02
    25   1    -0.27  -0.01   0.05    -0.03   0.12   0.12    -0.08   0.04   0.08
    26   1    -0.13   0.08  -0.19     0.13   0.24   0.08     0.04   0.14  -0.00
                     16                     17                     18
                      A                      A                      A
 Frequencies --    538.1025               544.7292               554.1640
 Red. masses --      2.5213                 2.4963                 3.4680
 Frc consts  --      0.4301                 0.4364                 0.6275
 IR Inten    --      3.5814                14.3228                 4.4615
  Atom  AN      X      Y      Z        X      Y      Z        X      Y      Z
     1   6     0.08   0.09   0.07     0.00   0.06   0.02    -0.13   0.08   0.00
     2   6     0.01   0.02   0.01    -0.08  -0.05  -0.04    -0.00   0.07   0.05
     3   6    -0.07  -0.09  -0.07    -0.03  -0.09   0.00     0.11  -0.08   0.04
     4   6    -0.00   0.02  -0.07     0.10  -0.01   0.16    -0.09   0.04  -0.01
     5   6    -0.12  -0.11  -0.08    -0.06  -0.01  -0.02    -0.00   0.03   0.02
     6   6     0.13   0.12   0.07     0.01   0.03   0.05     0.01  -0.02  -0.02
     7   6    -0.04  -0.09   0.00     0.09   0.00  -0.06     0.18  -0.18  -0.02
     8   1    -0.10  -0.11   0.01     0.26   0.17   0.00     0.19  -0.26  -0.07
     9   1     0.04  -0.08  -0.04     0.09  -0.17   0.11     0.18  -0.11  -0.09
    10   6    -0.04  -0.01   0.04     0.06  -0.02  -0.15     0.10  -0.02   0.01
    11   1    -0.04   0.04  -0.13     0.14  -0.08   0.25     0.18   0.18  -0.35
    12   1    -0.16   0.05   0.10     0.30  -0.24  -0.32    -0.15   0.23   0.22
    13   6     0.04   0.03  -0.02    -0.08  -0.01  -0.01     0.02  -0.04   0.05
    14   8     0.05   0.04   0.02    -0.08  -0.03   0.02    -0.00  -0.04  -0.08
    15   1    -0.03  -0.03  -0.11     0.36   0.10   0.34    -0.21   0.04  -0.06
    16   1     0.00  -0.01   0.02    -0.04   0.01  -0.04    -0.02   0.08   0.04
    17   6    -0.00   0.01   0.00    -0.01  -0.04   0.05    -0.04  -0.00   0.08
    18   1    -0.20   0.22  -0.01    -0.01   0.07   0.01    -0.03  -0.05   0.09
    19   1     0.14  -0.16  -0.00     0.08  -0.12   0.11    -0.10   0.05   0.02
    20  17    -0.00  -0.02   0.01     0.02   0.04  -0.01    -0.01  -0.02   0.01
    21   6     0.00   0.03  -0.00    -0.03   0.06  -0.02    -0.11   0.19  -0.08
    22   1    -0.07   0.07  -0.07    -0.06   0.08  -0.03    -0.06   0.14  -0.08
    23   1    -0.03   0.02  -0.03    -0.04   0.05  -0.02    -0.13   0.27  -0.13
    24   1     0.02  -0.10   0.01    -0.03   0.03  -0.01    -0.09   0.19  -0.10
    25   1     0.36   0.33   0.23     0.05   0.15   0.15    -0.13  -0.03  -0.01
    26   1    -0.36  -0.35  -0.24    -0.12  -0.06  -0.06     0.07  -0.05   0.12
                     19                     20                     21
                      A                      A                      A
 Frequencies --    577.1149               667.5533               704.7279
 Red. masses --      3.0024                 3.6199                 1.8078
 Frc consts  --      0.5892                 0.9504                 0.5290
 IR Inten    --      7.4733                 1.3448                21.1435
  Atom  AN      X      Y      Z        X      Y      Z        X      Y      Z
     1   6     0.06   0.01   0.01    -0.04   0.05  -0.03     0.01  -0.00   0.02
     2   6     0.12   0.00   0.03     0.09  -0.11  -0.06    -0.05  -0.06  -0.10
     3   6    -0.08  -0.04  -0.02     0.02  -0.03   0.03     0.00  -0.01  -0.01
     4   6    -0.16  -0.09   0.02     0.05  -0.10  -0.03    -0.03  -0.03  -0.09
     5   6    -0.04   0.00  -0.02     0.13  -0.10  -0.04    -0.04   0.03   0.01
     6   6    -0.02   0.02   0.04     0.10  -0.13   0.04    -0.03   0.03  -0.03
     7   6     0.08   0.17  -0.03    -0.04   0.05   0.05     0.07   0.01   0.02
     8   1     0.14   0.19  -0.04    -0.10  -0.09  -0.03    -0.03  -0.17  -0.07
     9   1     0.18   0.13  -0.02     0.03   0.18  -0.11     0.16   0.17  -0.17
    10   6     0.09   0.11   0.05    -0.10   0.13   0.13     0.05   0.06   0.12
    11   1     0.07   0.03   0.21    -0.03   0.08   0.48     0.10   0.16  -0.01
    12   1     0.34   0.13   0.00     0.02  -0.20  -0.07    -0.05   0.13   0.19
    13   6    -0.00  -0.05   0.10    -0.09   0.14  -0.06    -0.06   0.01  -0.02
    14   8    -0.03  -0.10  -0.13    -0.02  -0.04   0.04    -0.05  -0.03  -0.01
    15   1    -0.60  -0.10  -0.16    -0.04  -0.22  -0.16     0.59   0.06   0.20
    16   1    -0.02   0.00  -0.06    -0.01  -0.17  -0.10     0.50   0.07   0.21
    17   6    -0.00  -0.04   0.00     0.02  -0.03   0.03    -0.01   0.00  -0.01
    18   1     0.03   0.09  -0.06     0.09  -0.13   0.04    -0.02   0.08  -0.04
    19   1     0.11  -0.13   0.13     0.07  -0.10   0.00    -0.03   0.04   0.03
    20  17    -0.02   0.01  -0.02    -0.00   0.02  -0.01     0.01  -0.00   0.02
    21   6     0.02  -0.03   0.02    -0.09   0.17  -0.08     0.02  -0.03   0.02
    22   1    -0.03   0.01   0.01    -0.09   0.17  -0.08     0.01  -0.03   0.01
    23   1     0.02  -0.09   0.04    -0.10   0.21  -0.10     0.01  -0.04   0.02
    24   1     0.01  -0.06   0.03    -0.10   0.19  -0.09     0.03  -0.05   0.02
    25   1     0.10   0.16   0.15     0.12  -0.16   0.02    -0.00   0.08   0.01
    26   1    -0.09   0.02  -0.08     0.16  -0.21   0.03    -0.03   0.05   0.01
                     22                     23                     24
                      A                      A                      A
 Frequencies --    711.6528               729.2617               811.5411
 Red. masses --      2.9415                 4.6629                 1.7934
 Frc consts  --      0.8777                 1.4611                 0.6959
 IR Inten    --     26.2775                42.8386                 1.2521
  Atom  AN      X      Y      Z        X      Y      Z        X      Y      Z
     1   6     0.03   0.04  -0.03     0.01   0.01  -0.00     0.05   0.05   0.04
     2   6    -0.07   0.08  -0.07    -0.17  -0.10   0.31     0.01   0.00   0.05
     3   6    -0.06   0.01   0.03    -0.02   0.01   0.01     0.05   0.05   0.04
     4   6    -0.05   0.08  -0.07    -0.18  -0.15   0.11     0.07   0.02   0.01
     5   6     0.09  -0.09  -0.04     0.03  -0.03  -0.01    -0.05  -0.04  -0.03
     6   6     0.03  -0.13   0.07     0.01  -0.04   0.02    -0.05  -0.05  -0.04
     7   6    -0.06   0.17  -0.00    -0.05   0.01   0.04     0.05   0.04   0.06
     8   1    -0.04   0.23   0.03    -0.13  -0.08  -0.00    -0.05  -0.24  -0.09
     9   1    -0.14   0.10   0.09    -0.08   0.10  -0.04    -0.11   0.30  -0.13
    10   6     0.01  -0.06  -0.03     0.00  -0.03   0.00     0.03  -0.05  -0.01
    11   1    -0.20  -0.21  -0.22    -0.08  -0.07  -0.13     0.04   0.01  -0.15
    12   1     0.09   0.20   0.09    -0.12  -0.02   0.04    -0.17  -0.02   0.06
    13   6     0.07  -0.16   0.06     0.09   0.03  -0.07    -0.04  -0.01  -0.04
    14   8    -0.00   0.04  -0.02     0.12   0.00  -0.05    -0.04  -0.01   0.03
    15   1     0.27   0.31   0.22     0.38  -0.32   0.21    -0.07  -0.06  -0.11
    16   1     0.29   0.17   0.14     0.27   0.19   0.47    -0.27  -0.10  -0.08
    17   6    -0.01  -0.05   0.00    -0.01  -0.01  -0.02    -0.08  -0.06  -0.08
    18   1     0.14  -0.03  -0.06     0.03  -0.00  -0.03     0.16   0.16  -0.25
    19   1     0.12  -0.15   0.14     0.02  -0.02   0.03    -0.05   0.02   0.27
    20  17     0.00  -0.04   0.04     0.04   0.10  -0.12     0.00   0.00  -0.01
    21   6    -0.04   0.09  -0.05    -0.01   0.03  -0.01     0.02   0.02   0.02
    22   1    -0.10   0.14  -0.06    -0.03   0.04  -0.02    -0.14   0.13  -0.12
    23   1    -0.06   0.06  -0.05    -0.02   0.02  -0.02    -0.08  -0.05  -0.06
    24   1    -0.05   0.07  -0.04    -0.01   0.01  -0.01     0.06  -0.23   0.05
    25   1     0.18  -0.04   0.13     0.07  -0.01   0.03     0.25   0.23   0.16
    26   1     0.13  -0.07  -0.01     0.05  -0.03   0.00     0.23   0.21   0.17
                     25                     26                     27
                      A                      A                      A
 Frequencies --    854.4927               884.7574               895.6167
 Red. masses --      2.6842                 2.4890                 1.9612
 Frc consts  --      1.1547                 1.1480                 0.9269
 IR Inten    --     36.5580                 4.7737                 5.0839
  Atom  AN      X      Y      Z        X      Y      Z        X      Y      Z
     1   6    -0.02  -0.02  -0.04     0.01  -0.00  -0.05    -0.03  -0.02   0.04
     2   6    -0.04  -0.02   0.17     0.03   0.02  -0.07     0.01   0.02  -0.02
     3   6    -0.07  -0.03  -0.03    -0.07  -0.02   0.05     0.01  -0.01  -0.05
     4   6     0.15   0.05  -0.13    -0.04  -0.01   0.09    -0.02   0.00   0.05
     5   6     0.07   0.04   0.01     0.13   0.02  -0.04     0.00   0.08   0.14
     6   6     0.01  -0.01   0.04    -0.03  -0.11   0.12    -0.03   0.02  -0.11
     7   6     0.04   0.09  -0.02     0.05  -0.01   0.08     0.03   0.07   0.07
     8   1    -0.01   0.08  -0.00    -0.03  -0.29  -0.08    -0.09  -0.21  -0.08
     9   1     0.14   0.06  -0.03    -0.03   0.22  -0.13    -0.05   0.32  -0.15
    10   6     0.06  -0.04   0.06     0.06  -0.04  -0.05    -0.01  -0.03  -0.03
    11   1     0.02   0.01  -0.19     0.10   0.03  -0.12    -0.09  -0.09  -0.07
    12   1    -0.00   0.23   0.21    -0.18  -0.13  -0.04    -0.14  -0.12  -0.05
    13   6    -0.07  -0.09  -0.02    -0.01   0.04  -0.05     0.01  -0.01  -0.04
    14   8    -0.11  -0.00   0.04     0.02  -0.01  -0.01     0.01   0.00   0.00
    15   1     0.16  -0.18  -0.29    -0.13   0.08   0.12    -0.08   0.06   0.07
    16   1    -0.39  -0.28   0.07     0.02   0.11  -0.12    -0.01   0.06  -0.06
    17   6     0.01   0.04   0.05    -0.08   0.16  -0.08     0.11  -0.09  -0.03
    18   1    -0.15  -0.01   0.12    -0.27   0.31  -0.07     0.11  -0.10  -0.02
    19   1     0.04  -0.04  -0.10    -0.10   0.18  -0.11     0.22  -0.22  -0.02
    20  17     0.01   0.02  -0.04    -0.01  -0.01   0.02    -0.00  -0.00   0.01
    21   6    -0.01  -0.02  -0.02     0.01  -0.05  -0.01    -0.06   0.02  -0.01
    22   1     0.10  -0.10   0.10     0.12  -0.13   0.09     0.11  -0.11   0.07
    23   1     0.08   0.01   0.07     0.08   0.00   0.05    -0.00   0.18  -0.03
    24   1    -0.06   0.19  -0.04    -0.00   0.12  -0.03    -0.02   0.17  -0.06
    25   1    -0.09  -0.09  -0.01    -0.02   0.04   0.24     0.26   0.13  -0.06
    26   1    -0.26  -0.20  -0.23    -0.25  -0.13  -0.37    -0.39  -0.43  -0.08
                     28                     29                     30
                      A                      A                      A
 Frequencies --    912.6442               923.2471               943.6161
 Red. masses --      1.4360                 2.8753                 1.8195
 Frc consts  --      0.7047                 1.4440                 0.9545
 IR Inten    --     28.1465                 4.1078                 5.2319
  Atom  AN      X      Y      Z        X      Y      Z        X      Y      Z
     1   6    -0.03  -0.02  -0.03     0.02   0.04  -0.04     0.01   0.01   0.01
     2   6    -0.00   0.00   0.00     0.01   0.00  -0.02    -0.01  -0.02   0.03
     3   6    -0.01  -0.03  -0.02     0.07   0.01  -0.03     0.08   0.05   0.07
     4   6     0.00   0.00   0.00    -0.02  -0.01   0.03     0.01   0.00  -0.07
     5   6    -0.00  -0.01  -0.04     0.10   0.04  -0.08     0.06   0.06   0.04
     6   6    -0.06  -0.05  -0.07     0.03   0.05  -0.13    -0.08  -0.08  -0.04
     7   6     0.00   0.01  -0.00    -0.00   0.04   0.01    -0.02  -0.08  -0.06
     8   1    -0.02  -0.02  -0.01    -0.12   0.02   0.02     0.20   0.13   0.02
     9   1     0.01   0.02  -0.02    -0.03   0.09  -0.02    -0.11  -0.25   0.14
    10   6    -0.02  -0.00   0.00    -0.03  -0.03   0.01    -0.06   0.05   0.01
    11   1    -0.04  -0.03   0.01    -0.08  -0.06  -0.02     0.01   0.05   0.22
    12   1    -0.02  -0.03  -0.01    -0.12  -0.08   0.01     0.23   0.07  -0.05
    13   6     0.00  -0.01  -0.00     0.00   0.02  -0.02     0.02  -0.01   0.07
    14   8     0.00   0.00   0.00     0.02   0.00   0.00     0.00   0.01  -0.01
    15   1    -0.01   0.00   0.00    -0.04   0.02   0.04     0.08  -0.04  -0.08
    16   1    -0.00   0.01  -0.00     0.01   0.04  -0.04     0.06  -0.07   0.10
    17   6     0.06   0.07   0.12    -0.19  -0.10   0.24    -0.05  -0.01  -0.06
    18   1    -0.23  -0.10   0.28    -0.09   0.12   0.13     0.10   0.06  -0.14
    19   1     0.02  -0.01  -0.24    -0.23  -0.00   0.44    -0.09   0.10   0.10
    20  17     0.00   0.00  -0.00    -0.00  -0.00   0.00     0.00   0.00  -0.01
    21   6    -0.00  -0.03  -0.02     0.07  -0.04  -0.03    -0.00  -0.00   0.01
    22   1     0.05  -0.06   0.07    -0.11   0.12   0.08     0.03  -0.03  -0.00
    23   1     0.05  -0.05   0.06     0.16  -0.36   0.23    -0.01   0.05  -0.02
    24   1    -0.05   0.11  -0.02    -0.14   0.07   0.05     0.04  -0.03  -0.00
    25   1     0.46   0.49   0.32    -0.13   0.06  -0.12     0.30   0.36   0.28
    26   1     0.29   0.23   0.18    -0.14  -0.34  -0.21    -0.35  -0.28  -0.26
                     31                     32                     33
                      A                      A                      A
 Frequencies --    956.4462               960.3296               991.7079
 Red. masses --      1.8225                 1.3681                 1.5680
 Frc consts  --      0.9823                 0.7434                 0.9086
 IR Inten    --      8.3192                 8.1924                 0.8028
  Atom  AN      X      Y      Z        X      Y      Z        X      Y      Z
     1   6     0.02  -0.01  -0.00     0.01  -0.00  -0.00    -0.04   0.04   0.00
     2   6     0.07   0.00  -0.03    -0.09  -0.04  -0.04     0.00  -0.00  -0.01
     3   6    -0.03   0.07  -0.01    -0.01   0.03  -0.01    -0.01  -0.01   0.01
     4   6    -0.05  -0.03   0.03     0.10   0.02   0.05     0.00  -0.00   0.01
     5   6    -0.01   0.01   0.04    -0.01   0.00   0.01     0.10  -0.04  -0.09
     6   6    -0.02  -0.05   0.01    -0.00  -0.02   0.01    -0.03   0.06  -0.03
     7   6    -0.08  -0.02  -0.06    -0.02   0.00  -0.02    -0.03   0.01  -0.01
     8   1    -0.27   0.25   0.16    -0.09   0.08   0.05    -0.09   0.07   0.04
     9   1    -0.13  -0.23   0.17    -0.05  -0.06   0.06    -0.05  -0.03   0.04
    10   6     0.14  -0.05   0.02     0.05  -0.03   0.00     0.04  -0.02   0.00
    11   1     0.29   0.23  -0.29     0.11   0.08  -0.12     0.06   0.04  -0.09
    12   1    -0.07   0.19   0.20    -0.04   0.07   0.07    -0.01   0.06   0.06
    13   6    -0.04   0.11  -0.03    -0.02   0.03  -0.01    -0.01   0.03  -0.01
    14   8     0.00  -0.03  -0.00    -0.01  -0.01   0.01    -0.00  -0.01   0.00
    15   1     0.25  -0.03   0.14    -0.56  -0.16  -0.33    -0.01  -0.03  -0.01
    16   1    -0.25  -0.05  -0.23     0.56   0.17   0.30     0.01   0.01  -0.02
    17   6     0.01  -0.04   0.02     0.00  -0.01   0.01    -0.00  -0.01   0.02
    18   1     0.14  -0.16   0.03     0.04  -0.05   0.01     0.11  -0.14   0.03
    19   1     0.06  -0.09   0.04     0.02  -0.03   0.02     0.10  -0.12   0.03
    20  17    -0.00  -0.00   0.01     0.00   0.00  -0.00    -0.00   0.00   0.00
    21   6     0.01   0.02  -0.02     0.00   0.01  -0.01    -0.05  -0.03   0.11
    22   1    -0.07   0.08   0.00    -0.02   0.03   0.01     0.24  -0.31  -0.08
    23   1     0.03  -0.07   0.04     0.01  -0.03   0.02    -0.17   0.39  -0.25
    24   1    -0.07   0.05   0.00    -0.03   0.03   0.00     0.32  -0.26  -0.02
    25   1     0.25  -0.00   0.03     0.09  -0.01   0.01    -0.34   0.26   0.14
    26   1    -0.11   0.01  -0.06    -0.04   0.01  -0.02     0.16  -0.21   0.01
                     34                     35                     36
                      A                      A                      A
 Frequencies --   1033.8293              1043.7927              1067.3304
 Red. masses --      1.4227                 1.4051                 2.1305
 Frc consts  --      0.8959                 0.9019                 1.4300
 IR Inten    --     12.0253                 4.4799                 4.2945
  Atom  AN      X      Y      Z        X      Y      Z        X      Y      Z
     1   6    -0.02   0.01  -0.02     0.06   0.06   0.04    -0.04  -0.02  -0.03
     2   6     0.00   0.00  -0.00     0.00  -0.00   0.00    -0.01  -0.01   0.02
     3   6     0.01  -0.00  -0.02     0.04   0.03   0.02    -0.05  -0.00  -0.03
     4   6    -0.01  -0.00   0.01    -0.00   0.00  -0.02     0.01   0.01  -0.06
     5   6    -0.04   0.09  -0.04    -0.04  -0.00  -0.04     0.02   0.02  -0.02
     6   6     0.06  -0.07   0.01     0.02  -0.02  -0.01     0.03   0.01  -0.03
     7   6     0.04   0.02  -0.03    -0.02  -0.02   0.01    -0.08  -0.07   0.16
     8   1     0.01   0.05  -0.01     0.01  -0.02   0.01    -0.20  -0.32   0.03
     9   1     0.16  -0.02  -0.04    -0.17   0.01   0.05    -0.36   0.19   0.02
    10   6    -0.04  -0.02   0.03     0.01   0.02  -0.01     0.09   0.11  -0.12
    11   1    -0.12  -0.09  -0.01     0.07   0.06   0.03     0.34   0.27   0.15
    12   1    -0.11  -0.07   0.02     0.06   0.03  -0.02     0.22   0.01  -0.21
    13   6     0.00  -0.00  -0.02     0.00   0.01   0.03     0.01  -0.05   0.09
    14   8     0.01   0.01   0.01    -0.00  -0.00  -0.00    -0.03  -0.00  -0.02
    15   1    -0.02   0.01   0.02     0.03  -0.01  -0.02     0.03   0.08  -0.01
    16   1    -0.00   0.03  -0.02     0.01  -0.03   0.02     0.01  -0.13   0.11
    17   6    -0.02  -0.01   0.05    -0.03  -0.04   0.01    -0.00   0.01   0.06
    18   1     0.08  -0.14   0.07    -0.15   0.27  -0.07    -0.02  -0.08   0.09
    19   1    -0.03  -0.00   0.04     0.17  -0.23   0.13     0.03  -0.05  -0.00
    20  17    -0.00  -0.00   0.00     0.00   0.00  -0.00     0.00   0.00  -0.01
    21   6    -0.01   0.00   0.08    -0.09  -0.07  -0.03     0.03   0.02   0.04
    22   1     0.06  -0.10  -0.11     0.32  -0.36   0.27    -0.07   0.08  -0.12
    23   1    -0.14   0.19  -0.16     0.13   0.23   0.07    -0.08  -0.04  -0.07
    24   1     0.20  -0.26   0.03    -0.03   0.42  -0.16     0.07  -0.22   0.07
    25   1     0.36  -0.23  -0.13     0.07  -0.16  -0.13     0.24  -0.16  -0.19
    26   1    -0.26   0.47  -0.39     0.09   0.29  -0.00    -0.05   0.05  -0.11
                     37                     38                     39
                      A                      A                      A
 Frequencies --   1129.9506              1160.9746              1170.5521
 Red. masses --      1.3088                 1.2492                 1.5608
 Frc consts  --      0.9846                 0.9921                 1.2600
 IR Inten    --     12.2711                 7.2101                14.1890
  Atom  AN      X      Y      Z        X      Y      Z        X      Y      Z
     1   6    -0.04  -0.07  -0.04     0.05   0.02   0.03     0.08  -0.08   0.01
     2   6     0.01   0.00  -0.02     0.01   0.01  -0.02    -0.01  -0.01   0.02
     3   6     0.05  -0.03   0.02    -0.01  -0.09  -0.01     0.06  -0.04  -0.00
     4   6    -0.00  -0.00   0.01    -0.00  -0.00   0.02     0.01   0.00   0.01
     5   6     0.00   0.02   0.01    -0.01   0.00  -0.01     0.00  -0.01   0.02
     6   6     0.01   0.00  -0.02     0.02   0.02  -0.02    -0.01   0.01  -0.01
     7   6    -0.01   0.03  -0.01    -0.02   0.02   0.04    -0.06   0.02  -0.00
     8   1     0.19   0.04  -0.05     0.20  -0.08  -0.08    -0.32   0.11   0.12
     9   1    -0.33   0.04   0.11    -0.26   0.08   0.08     0.08  -0.03  -0.02
    10   6    -0.01  -0.04   0.01     0.02  -0.02  -0.02     0.04   0.05   0.02
    11   1    -0.09  -0.10  -0.07    -0.14  -0.18  -0.05     0.08   0.09   0.04
    12   1     0.11   0.17   0.09     0.24   0.27   0.09     0.03   0.01  -0.01
    13   6    -0.01   0.06   0.02    -0.01   0.05   0.01     0.00  -0.06  -0.09
    14   8     0.00  -0.01  -0.00    -0.01  -0.01  -0.00     0.00   0.01   0.01
    15   1     0.10  -0.19  -0.09     0.14  -0.29  -0.14    -0.20   0.33   0.18
    16   1     0.02   0.05  -0.04     0.00   0.16  -0.11    -0.03  -0.09   0.05
    17   6     0.04  -0.02   0.01     0.01  -0.01  -0.00     0.05  -0.07   0.01
    18   1    -0.49   0.54  -0.04     0.16  -0.20   0.03    -0.27   0.27  -0.01
    19   1     0.17  -0.18  -0.02    -0.41   0.47  -0.05    -0.36   0.40   0.00
    20  17    -0.00   0.00   0.00    -0.00  -0.00   0.00     0.00   0.00  -0.00
    21   6     0.02   0.04   0.03    -0.03  -0.01  -0.01    -0.05   0.04   0.00
    22   1    -0.08   0.10  -0.14     0.04  -0.05   0.05    -0.03   0.02  -0.05
    23   1    -0.11  -0.00  -0.10     0.03   0.08   0.01    -0.08   0.21  -0.11
    24   1     0.03  -0.15   0.06     0.01   0.09  -0.04     0.01   0.08  -0.04
    25   1    -0.04  -0.03  -0.05     0.07  -0.01  -0.05    -0.14   0.12   0.09
    26   1    -0.01   0.05  -0.02    -0.02   0.02  -0.03    -0.08   0.17  -0.13
                     40                     41                     42
                      A                      A                      A
 Frequencies --   1181.8951              1202.2288              1239.2866
 Red. masses --      1.9574                 1.1956                 2.1228
 Frc consts  --      1.6110                 1.0181                 1.9209
 IR Inten    --     72.1417                 6.3011                 2.5878
  Atom  AN      X      Y      Z        X      Y      Z        X      Y      Z
     1   6     0.03  -0.03   0.02     0.02  -0.03   0.00     0.12  -0.09  -0.05
     2   6     0.01  -0.02  -0.01    -0.01   0.05  -0.01     0.00  -0.00  -0.01
     3   6     0.01  -0.03  -0.04     0.01   0.04  -0.01    -0.12   0.12   0.03
     4   6    -0.01   0.02  -0.05     0.01  -0.01   0.01    -0.00   0.00  -0.00
     5   6    -0.01  -0.01   0.02     0.01  -0.02   0.01     0.07  -0.08  -0.00
     6   6     0.00  -0.01   0.02    -0.01  -0.00   0.01    -0.12   0.11   0.01
     7   6     0.05   0.06  -0.03    -0.00  -0.02   0.01     0.03  -0.03  -0.01
     8   1    -0.30   0.08   0.06    -0.26  -0.00   0.08     0.39  -0.10  -0.14
     9   1    -0.08   0.05   0.02     0.25  -0.03  -0.08     0.29  -0.07  -0.08
    10   6    -0.02  -0.06  -0.07     0.00   0.04  -0.02    -0.01  -0.03  -0.00
    11   1     0.06   0.00  -0.03     0.05   0.06   0.07     0.02   0.00  -0.03
    12   1    -0.52  -0.41  -0.13    -0.04  -0.11  -0.09    -0.11  -0.09  -0.01
    13   6     0.01   0.10   0.22     0.02  -0.08   0.01    -0.00   0.02   0.04
    14   8    -0.00  -0.01  -0.03    -0.02   0.01   0.00     0.00  -0.00  -0.00
    15   1     0.16  -0.13  -0.11     0.24  -0.51  -0.27     0.02  -0.02  -0.02
    16   1     0.07  -0.30   0.18    -0.02   0.54  -0.28     0.01  -0.08   0.04
    17   6     0.02  -0.02   0.00     0.00  -0.01   0.01    -0.00  -0.04   0.04
    18   1     0.01  -0.01   0.00    -0.06   0.06   0.00    -0.16   0.06   0.07
    19   1    -0.15   0.17  -0.02     0.03  -0.04   0.03    -0.13   0.12   0.12
    20  17     0.00   0.00  -0.01    -0.01  -0.00   0.01     0.00   0.00  -0.00
    21   6    -0.02   0.01  -0.01    -0.01   0.01  -0.00    -0.04   0.04   0.02
    22   1    -0.02   0.02  -0.01    -0.02   0.02  -0.02    -0.04   0.02  -0.11
    23   1    -0.02   0.08  -0.03    -0.02   0.04  -0.03    -0.10   0.23  -0.14
    24   1    -0.01   0.06  -0.02    -0.01   0.03  -0.01     0.05   0.09  -0.04
    25   1    -0.21   0.11   0.13    -0.08   0.06   0.06     0.46  -0.22  -0.32
    26   1    -0.06   0.13  -0.08    -0.03   0.08  -0.06     0.11  -0.16   0.04
                     43                     44                     45
                      A                      A                      A
 Frequencies --   1254.3370              1261.6024              1347.9547
 Red. masses --      1.5248                 1.2904                 1.5333
 Frc consts  --      1.4135                 1.2101                 1.6415
 IR Inten    --      0.8766                 8.6127                 9.5160
  Atom  AN      X      Y      Z        X      Y      Z        X      Y      Z
     1   6     0.03  -0.08   0.07    -0.01   0.02  -0.01     0.01  -0.02   0.01
     2   6     0.00  -0.01  -0.00     0.01  -0.00  -0.02    -0.01  -0.07   0.06
     3   6    -0.01   0.06  -0.08     0.04   0.01   0.03     0.01  -0.04   0.03
     4   6    -0.00   0.00   0.01    -0.01   0.01   0.01     0.04  -0.02  -0.07
     5   6     0.05  -0.09   0.05    -0.01   0.01  -0.01     0.02  -0.03   0.01
     6   6    -0.00   0.03  -0.03    -0.00  -0.01   0.00    -0.02   0.04  -0.02
     7   6     0.02  -0.04   0.04    -0.05  -0.04   0.04    -0.01  -0.02  -0.03
     8   1     0.17  -0.13  -0.06    -0.27  -0.06   0.09     0.03   0.05   0.01
     9   1    -0.03   0.04  -0.02     0.52  -0.08  -0.15    -0.25  -0.05   0.10
    10   6    -0.01  -0.01  -0.01     0.07   0.04  -0.06     0.10   0.08   0.03
[...]
 ,-0.00009251,0.00007641,-0.00012364,-0.00002522,-0.00072143,0.00058729
 ,0.00031492,0.00001592,-0.00005547,-0.00005420,-0.00048816,0.00076422,
 0.00004984,-0.00036521,0.00011751,-0.00049857,0.00004106,-0.00001163,0
 .00005926,0.00003441,-0.00000858,0.00003889,0.00003052,-0.00000042,0.0
 0007339,-0.19091691,-0.12826877,0.03850255,-0.00657527,-0.00562808,0.0
 0248907,0.20808306,0.01169346,0.01153427,-0.00239350,-0.00064819,0.000
 48824,-0.00152589,-0.01741533,-0.01217515,0.00295959,-0.00014136,-0.00
 068711,0.00006823,0.00126330,-0.00215560,-0.00264712,0.00236786,-0.002
 19530,0.00235891,-0.00008336,0.00041540,0.00089615,0.00021682,0.000203
 46,0.00003492,-0.00017062,0.00022900,0.00001872,0.00010112,-0.00019580
 ,0.00008906,-0.00015677,0.00022994,-0.00030470,0.00072201,-0.00036409,
 -0.00069826,0.00073833,0.00059521,0.00082172,-0.00020504,-0.00026241,-
 0.00020169,-0.00002164,-0.00006609,-0.00006205,0.00002163,-0.00007654,
 0.00008322,-0.12810938,-0.15381939,0.03512595,-0.00781966,-0.00642919,
 0.00263636,0.13867231,0.16449187,0.00991980,0.00924788,-0.00431943,-0.
 00061956,-0.00039794,-0.00145293,0.01397970,0.00922991,-0.00414446,-0.
 00028329,0.00009664,-0.00061025,0.00138307,-0.00007057,-0.00095164,-0.
 00028038,0.00149266,-0.00155650,0.00012763,-0.00060574,-0.00023030,-0.
 00007123,-0.00002968,-0.00005973,0.00007192,-0.00014799,0.00011617,-0.
 00009951,-0.00011512,0.00018693,-0.00001734,-0.00008756,-0.00002050,0.
 00017291,-0.00031306,0.00013732,-0.00077453,0.00060282,0.00055076,0.00
 023097,-0.00012737,-0.00032375,-0.00001375,-0.00001731,0.00001089,-0.0
 0002496,-0.00002085,-0.00006631,0.04153102,0.03831193,-0.04501256,-0.0
 2070415,-0.01767255,0.00552883,-0.04240627,-0.03767401,0.05414051,0.00
 005990,-0.00007334,-0.00033244,-0.03479781,-0.01026761,0.02871544,0.00
 001634,-0.00006522,0.00030271,0.00813771,0.00091900,-0.00508845,0.0001
 4047,-0.00006045,0.00005397,-0.00013867,-0.00011053,0.00011510,0.00001
 078,0.00004390,-0.00002234,0.00000148,-0.00002289,-0.00000400,-0.00001
 321,-0.00000190,-0.00000479,0.00113004,-0.00066048,-0.00004453,-0.0001
 2710,-0.00023575,-0.00021585,-0.00002837,0.00006623,-0.00000633,-0.006
 37297,-0.00112292,-0.00222791,0.00030077,0.00200509,0.00016638,0.00556
 473,0.00229295,0.00315809,0.00210849,-0.01039672,0.00910592,-0.0002735
 5,-0.00019563,0.00013235,-0.00001751,0.00000249,-0.00002148,-0.0003899
 8,-0.00013689,-0.00012860,0.02442045,0.00001881,-0.00014729,-0.0001111
 4,-0.01278667,-0.09200855,0.06846609,-0.00015588,-0.00041109,0.0005975
 3,-0.00666999,-0.02717188,0.03247604,0.00034547,-0.00021939,-0.0001071
 5,-0.00045665,-0.00045270,-0.00025426,0.00013978,0.00017436,-0.0000259
 6,-0.00003952,0.00017676,-0.00001070,-0.00017967,-0.00002572,-0.000057
 65,0.00090685,-0.00076044,0.00002254,-0.00007664,-0.00025297,-0.000280
 48,-0.00002704,0.00012754,-0.00003497,-0.00626261,0.00140058,0.0042162
 5,0.00334008,-0.00120170,-0.00113825,0.00395215,-0.00365793,-0.0003480
 4,0.00028506,-0.00039372,0.00252869,-0.00044596,0.00005093,0.00039259,
 0.00005282,0.00006018,-0.00005834,-0.00003005,-0.00035036,-0.00033610,
 0.01815569,0.12473883,0.00054676,-0.00015239,-0.00064606,0.02899589,0.
 06435391,-0.12261500,0.00042923,0.00067863,-0.00080002,0.00085036,0.02
 035295,-0.00792372,-0.00017084,-0.00017296,0.00058894,0.00004318,0.000
 54415,0.00083857,-0.00011026,-0.00023551,0.00007531,0.00003130,-0.0002
 3174,0.00000734,0.00016796,0.00004088,0.00004259,-0.00082625,0.0006392
 4,0.00019783,0.00011684,0.00028158,0.00028519,0.00008821,0.00024153,0.
 00025428,0.00437344,-0.00366953,-0.00756217,-0.00493704,-0.00096197,0.
 00417849,0.00226078,0.00161978,0.00398691,0.00217700,0.02294001,-0.016
 22710,0.00007380,-0.00017497,-0.00027422,-0.00011891,-0.00010881,0.000
 04691,-0.00020911,0.00020138,0.00025503,-0.03382736,-0.10579749,0.1450
 7665,-0.11944173,0.07303627,-0.02120568,0.00001451,0.00004514,0.000071
 10,-0.00311448,0.00070818,0.00265421,0.00001150,-0.00007493,-0.0000244
 9,0.00811893,-0.00079915,0.00233890,0.00381398,0.00276588,0.00338026,0
 .00055304,0.00093364,-0.00070029,-0.00012062,0.00023560,-0.00000109,0.
 00005868,0.00001692,-0.00008319,0.00019148,-0.00018264,0.00003664,0.00
 002396,0.00002263,-0.00004032,0.00003555,-0.00001849,-0.00001671,-0.00
 005597,0.00007818,0.00014208,0.00005655,-0.00002021,-0.00006050,-0.000
 01971,-0.00000961,-0.00002377,-0.00000072,-0.00001505,-0.00004889,-0.0
 0839652,0.01683228,-0.00981209,0.00040279,0.00005686,-0.00003506,0.000
 79165,-0.00042782,-0.00050135,-0.00005197,-0.00003682,-0.00002989,0.56
 129681,0.07104721,-0.19064338,0.05157094,0.00015360,0.00031149,-0.0003
 0934,0.00043714,-0.00073509,-0.00047929,-0.00000481,-0.00021306,0.0000
 4875,0.01089316,-0.00943078,0.00762773,0.00190157,0.00342638,0.0036447
 9,0.00039735,0.00045633,0.00082825,0.00012542,-0.00003568,-0.00007523,
 -0.00015685,0.00015945,-0.00010735,0.00004402,-0.00004460,-0.00005620,
 -0.00002924,0.00000002,-0.00000808,-0.00000498,0.00001893,-0.00001405,
 0.00006272,0.00008698,0.00010916,-0.00004275,-0.00005473,-0.00004018,-
 0.00000139,-0.00003075,0.00000201,-0.00000275,0.00000638,0.00003774,0.
 00526823,-0.00784435,0.00215339,-0.00056462,0.00044278,0.00063357,-0.0
 0027825,0.00020258,0.00030182,-0.00008385,-0.00024749,0.00026990,0.004
 90559,0.52498554,-0.01839976,0.04821944,-0.10544753,-0.00002613,-0.000
 06688,0.00000181,0.00251347,-0.00041362,-0.00440913,0.00003534,0.00007
 925,0.00003032,-0.01277428,0.02453984,-0.00396822,0.00362140,0.0032399
 4,-0.00091188,0.00063169,-0.00053260,0.00170609,0.00046230,-0.00033392
 ,-0.00004943,-0.00027734,0.00027421,0.00004890,-0.00011262,-0.00003465
 ,-0.00000014,-0.00000322,-0.00001333,0.00004072,-0.00008399,0.00001651
 ,0.00005726,-0.00002379,-0.00003873,-0.00007403,-0.00000854,0.00001585
 ,0.00001673,0.00001553,-0.00000253,0.00001208,0.00001505,-0.00001421,0
 .00000417,0.00562182,-0.01446454,0.01135957,-0.00039674,0.00004544,-0.
 00008640,0.00015602,0.00021774,0.00002303,-0.00001843,0.00002471,0.000
 03255,-0.02710091,0.01462873,0.56810475,0.01340755,0.01379504,-0.00184
 868,-0.00000820,0.00015203,-0.00021440,0.00001198,0.00043699,-0.000709
 65,0.00001284,-0.00002234,0.00006692,-0.00076605,0.00060571,-0.0009015
 2,-0.00056071,-0.00010501,-0.00027654,-0.00003100,-0.00017274,0.000005
 01,0.00000617,-0.00001170,0.00000521,-0.00002520,0.00001564,0.00003344
 ,-0.00002126,0.00004030,-0.00004172,-0.00001517,-0.00001662,0.00001134
 ,-0.00000582,-0.00000514,0.00001518,-0.00001000,0.00008600,0.00007845,
 0.00000813,-0.00004661,-0.00003342,0.00000363,-0.00001830,-0.00000368,
 -0.00000783,-0.00003357,0.00001122,0.00036627,-0.00077471,0.00060743,0
 .00008315,-0.00004078,-0.00003749,-0.00011131,0.00018590,0.00003614,0.
 00029716,-0.00005871,0.00015219,-0.16119123,-0.13027294,0.02252651,0.1
 6893452,-0.01544123,-0.01979501,0.00647238,-0.00008983,-0.00032059,0.0
 0036192,0.00002860,-0.00064974,0.00090752,-0.00003922,0.00009578,-0.00
 003122,0.00137177,-0.00070988,-0.00121330,0.00132810,0.00027884,0.0002
 9954,-0.00000309,0.00013999,-0.00015590,0.00004274,0.00000628,0.,0.000
 12966,-0.00008276,-0.00006518,0.00001715,-0.00012336,0.00014249,0.0000
 6667,0.00003734,-0.00002620,-0.00000865,0.00000862,-0.00001592,-0.0000
 9222,-0.00016680,-0.00015566,0.00009091,0.00010060,0.00006380,-0.00001
 666,0.00002059,-0.00002330,0.00002909,0.00000714,0.00000349,-0.0003030
 5,0.00082390,-0.00015970,-0.00012052,0.00014440,0.00012287,0.00060659,
 -0.00022281,-0.00022226,-0.00011179,0.00020713,-0.00032565,-0.13281065
 ,-0.19640261,0.02286364,0.14066807,0.21288141,0.00767062,0.01108754,-0
 .00412438,-0.00007120,0.00019933,-0.00012635,0.00005441,-0.00014839,0.
 00004408,0.00002793,-0.00010436,-0.00004561,-0.00135769,0.00103530,0.0
 0047832,-0.00073278,-0.00041713,-0.00073904,0.00001819,0.00006764,0.00
 007034,-0.00001993,0.00000515,-0.00000348,-0.00004213,0.00001451,0.000
 01738,0.00001561,0.00000694,-0.00004357,-0.00002214,-0.00001257,-0.000
 00551,0.00000589,-0.00000206,-0.00000654,-0.00001234,0.00010918,0.0001
 4681,0.00000679,-0.00005311,-0.00006874,0.00000774,-0.00000053,0.00000
 960,-0.00004204,0.00002353,-0.00005502,0.00023819,-0.00027306,-0.00013
 336,-0.00004176,-0.00010782,0.00010588,-0.00007431,-0.00007100,0.00027
 214,0.00015535,-0.00013522,0.00001579,0.02336184,0.02280723,-0.0472259
 5,-0.02223740,-0.02886787,0.04863617,-0.01109909,0.00285139,0.00985040
 ,-0.00002880,-0.00000452,0.00007253,-0.00040159,0.00027749,0.00063815,
 0.00001654,-0.00002004,-0.00004478,0.00099482,-0.00133046,-0.00006984,
 -0.00024112,-0.00004793,-0.00005619,0.00012941,0.00015784,-0.00023979,
 -0.00009263,0.00007594,0.00000263,-0.00002280,0.00001793,0.00002751,0.
 00003327,0.00000867,-0.00003181,-0.00002916,-0.00000140,-0.00000500,0.
 00002558,-0.00001610,-0.00002168,0.00010414,0.00006328,0.00007320,-0.0
 0007916,-0.00003896,-0.00002431,0.00000753,0.00000812,0.00001762,-0.00
 001502,0.00002196,-0.00001035,0.00055918,0.00208997,-0.00183271,-0.000
 09396,0.00013667,0.00019194,0.00036945,-0.00024791,-0.00015792,-0.0000
 1382,-0.00001307,-0.00004887,-0.18907435,0.05860091,0.12656993,-0.0121
 9000,0.00766753,0.01133016,0.19997364,0.01950877,-0.00794320,-0.019400
 36,-0.00000459,-0.00009257,0.00008191,0.00112633,-0.00032398,-0.000861
 32,0.00000610,0.00004462,-0.00000680,-0.00082311,0.00120009,-0.0008453
 3,-0.00004768,-0.00003729,-0.00022043,-0.00000390,-0.00016240,0.000456
 88,0.00014004,-0.00012040,-0.00000542,-0.00000376,0.00000387,-0.000018
 51,-0.00003925,-0.00002701,0.00004014,0.00002844,0.00000460,0.00000327
 ,-0.00003185,0.00001655,0.00002006,-0.00009978,-0.00007814,-0.00007130
 ,0.00007519,0.00004440,0.00001970,-0.00000756,0.00000556,-0.00000972,-
 0.00000110,0.00000794,-0.00001119,0.00135044,-0.00278849,0.00339728,-0
 .00033527,0.00018869,0.00011186,0.00017302,0.00001269,-0.00005282,0.00
 000320,0.00006019,-0.00005329,0.05741792,-0.07008106,-0.05036541,-0.01
 602269,0.00832052,0.01595052,-0.06621449,0.07439280,-0.01063534,0.0037
 2987,0.00868552,0.00001113,0.00002015,-0.00001019,-0.00040186,0.000400
 20,0.00031158,0.00000689,-0.00000736,0.00000106,-0.00081369,0.00001477
 ,0.00084049,-0.00003714,-0.00023277,0.00005771,0.00000573,0.00012479,-
 0.00009092,-0.00002452,0.00002299,0.00000155,0.00001062,-0.00000100,-0
 .00000213,0.00001794,-0.00000869,-0.00000631,0.00000472,-0.00000096,-0
 .00000178,-0.00000012,0.00000150,0.00000175,-0.00003149,0.00000180,0.0
 0000772,0.00002363,-0.00000069,-0.00000433,-0.00000623,-0.00000084,-0.
 00000433,-0.00000710,-0.00000621,-0.00000414,-0.00066719,0.00198110,-0
 .00025088,-0.00015744,0.00022974,0.00012052,0.00011452,-0.00005684,-0.
 00014111,0.00000659,-0.00000864,0.00001431,0.12798103,-0.05197637,-0.1
 6029179,0.00015099,-0.00099124,-0.00188694,-0.13636583,0.05370135,0.16
 694849,-0.00493687,-0.00251340,-0.01252180,-0.00001105,0.00005054,-0.0
 0007929,-0.00014939,0.00057987,-0.00091259,0.00000068,-0.00000419,0.00
 002500,-0.00031714,-0.00001192,0.00050461,-0.00028807,0.00035709,0.000
 47574,0.00022524,0.00001425,0.00026955,0.00001424,-0.00002107,-0.00000
 842,-0.00013009,0.00012023,0.00005087,-0.00001273,0.00005439,-0.000063
 22,-0.00003731,-0.00001056,0.00001742,-0.00000097,-0.00000856,0.000005
 02,0.00012226,0.00002202,-0.00001252,-0.00010095,-0.00003200,0.0000137
 0,0.00001969,-0.00000472,0.00002399,0.00001005,-0.00000014,0.00003095,
 0.00039737,-0.00033970,0.00052895,-0.00016062,0.00031073,0.00011117,0.
 00007865,-0.00003973,-0.00015238,0.00000066,-0.00002938,0.00005446,-0.
 09260423,-0.02032633,-0.10012763,-0.00818912,-0.00295427,-0.01854876,0
 .01107703,0.00412946,0.02039161,0.09503948,0.01126338,0.00491179,0.028
 10655,-0.00002047,-0.00010602,0.00009160,-0.00003872,-0.00048334,0.000
 86422,-0.00003462,0.00002648,0.00000314,0.00127883,-0.00184721,-0.0004
 1133,-0.00041454,-0.00128799,-0.00049013,-0.00017976,-0.00000289,-0.00
 028065,-0.00003213,0.00001722,0.00002433,0.00012523,-0.00010625,-0.000
 03386,0.00000788,-0.00003779,0.00005298,0.00003581,0.00001355,-0.00001
 131,0.00000046,0.00001102,-0.00000242,-0.00006940,-0.00006245,-0.00006
 865,0.00006136,0.00004000,0.00002928,-0.00001236,0.00000603,-0.0000184
 3,0.00001781,-0.00001719,0.00001319,-0.00064484,0.00095780,-0.00060165
 ,0.00021150,-0.00011405,-0.00020049,-0.00009134,0.00007930,-0.00002204
 ,0.00001097,0.00010244,-0.00008746,-0.01946248,-0.05355942,-0.04678110
 ,-0.00858371,-0.00421518,-0.02150861,-0.00441640,-0.00260860,-0.006595
 18,0.02047337,0.05814086,-0.00271155,0.00151028,-0.00985767,0.00000076
 ,0.00005217,-0.00008184,-0.00000505,0.00009999,0.00000060,-0.00000343,
 -0.00002429,0.00002410,-0.00164166,0.00021894,0.00111695,0.00039375,0.
 00072389,0.00037717,0.00000486,-0.00003429,0.00011280,-0.00001232,0.00
 000740,-0.00001494,-0.00007178,0.00006339,-0.00000025,-0.00001333,0.00
 006624,-0.00004176,-0.00004032,-0.00001098,0.00001337,0.00001414,-0.00
 001402,-0.00000500,0.00012990,0.00003242,0.00001162,-0.00010113,-0.000
 02982,0.00000459,0.00002070,-0.00000521,0.00001820,0.00001359,0.000004
 32,0.00002119,0.00022065,0.00000704,-0.00019831,-0.00016478,0.00017866
 ,0.00038242,0.00006080,0.00001313,0.00004507,-0.00001487,-0.00003794,0
 .00004609,-0.09885105,-0.04894944,-0.25914144,0.00260922,0.00122080,0.
 00431331,-0.00936488,-0.00252409,-0.01427473,0.10993069,0.04767668,0.2
 7724105,-0.00210656,0.00391303,0.00034317,0.00002555,-0.00010399,0.000
 04058,0.00689115,-0.01100584,0.01280835,0.00016327,0.00011271,0.000089
 73,0.00407395,0.00736284,-0.01578543,-0.05155342,0.02127392,-0.0083798
 4,-0.00095110,-0.00339453,-0.00161000,-0.00015533,0.00048663,-0.000545
 46,0.00047473,-0.00026640,-0.00036594,-0.00018202,0.00024165,0.0000481
 8,-0.00005179,-0.00004645,0.00004356,0.00003721,0.00004193,-0.00002303
 ,-0.00011214,0.00009847,0.00010008,0.00008861,-0.00002537,-0.00004926,
 -0.00005563,-0.00001938,-0.00006257,0.00000441,-0.00000396,-0.00001051
 ,0.00265918,0.00463501,0.00578131,0.00034612,-0.00166213,0.00104750,-0
 .00033116,0.00048890,-0.00060715,0.00003070,0.00012208,-0.00009632,0.0
 0074971,0.00035612,-0.00063432,-0.00014425,0.00029894,-0.00012426,0.00
 002602,-0.00007621,0.00004472,-0.00004657,0.00010939,-0.00010785,0.040
 06040,0.00292711,-0.00198929,0.00072251,0.00003214,-0.00017087,0.00006
 947,0.00242106,0.00489276,-0.00319849,0.00023079,0.00007536,0.00007758
 ,-0.00475235,-0.00483265,0.01417521,0.01976884,-0.16307152,0.14668708,
 -0.00234908,-0.00206831,-0.00186788,-0.00029294,0.00029973,0.00011696,
 0.00042173,-0.00019291,-0.00032106,-0.00018001,0.00028891,0.00018902,-
 0.00009662,-0.00007239,0.00005163,0.00001161,-0.00001235,-0.00000435,-
 0.00006239,0.00024121,0.00018924,0.00004052,-0.00008578,-0.00008697,-0
 .00018958,-0.00001292,-0.00005425,0.00001641,-0.00002573,0.00002456,0.
 00486387,0.00403251,0.00281250,0.00005591,-0.00114709,0.00088703,-0.00
 064573,0.00092377,-0.00078849,0.00003674,0.00016434,-0.00015341,-0.000
 18980,0.00018556,0.00081250,0.00003095,-0.00012148,0.00010136,-0.00000
 275,0.00003737,-0.00005033,0.00015922,-0.00027444,0.00013767,-0.021902
 94,0.16269842,0.00146218,-0.00046597,0.00013399,0.00004089,0.00005135,
 -0.00003870,-0.00602164,0.01632020,-0.00913152,0.00006485,0.00003267,-
 0.00000626,0.00150243,-0.00389244,0.00370732,-0.00762244,0.14573503,-0
 .22826759,-0.00256700,-0.00140620,-0.00035216,0.00058276,-0.00040330,-
 0.00004111,0.00036708,-0.00018306,-0.00020936,0.00000391,0.00010043,0.
 00026053,-0.00001433,-0.00004046,0.00004132,-0.00013316,-0.00003719,0.
 00009256,-0.00007704,0.00009461,0.00005177,0.00001072,-0.00004156,-0.0
 0003821,0.00007849,0.00009577,-0.00001870,-0.00001148,-0.00001716,-0.0
 0000868,0.00556559,0.00301846,-0.00033683,0.00011314,-0.00041911,0.000
 08949,-0.00060799,0.00100887,-0.00129076,0.00003024,-0.00000959,0.0000
 7387,0.00010206,-0.00001448,0.00039842,-0.00004477,0.00004672,-0.00002
 341,-0.00004698,0.00004892,0.00000277,0.00005531,-0.00004345,0.0000063
 0,0.00769572,-0.15987496,0.23512324,0.00208279,0.00381138,-0.00062266,
 -0.00003718,0.00007016,0.00002802,-0.00110310,0.00265348,0.00042796,0.
 00003647,-0.00007757,-0.00010159,-0.18636023,0.05456500,0.14405793,-0.
 00506126,-0.00258018,0.01089049,0.00021852,-0.00004869,0.00073460,0.00
 001079,-0.00001027,-0.00004921,-0.00021230,0.00016786,0.00006946,0.000
 06906,0.00012491,-0.00010853,-0.00007027,-0.00006376,0.00001701,0.0000
 2314,-0.00002936,0.00002761,0.00009878,0.00017890,0.00017995,-0.000093
 44,-0.00009231,-0.00008332,0.00000034,0.00002434,0.00004651,-0.0000439
 6,-0.00003181,-0.00001285,0.00476437,0.00435916,0.00344496,-0.00135799
 ,0.00039183,0.00085373,0.00087281,-0.00084793,-0.00061081,0.00000530,-
 0.00005013,0.00001345,-0.00204761,-0.00242428,-0.00218134,0.00014576,-
 0.00035464,0.00043405,0.00006488,-0.00024769,0.00037781,-0.00000026,0.
 00040478,-0.00029505,0.00005894,-0.00035268,-0.00052853,0.18793566,-0.
 01005693,0.00843043,0.01022859,0.00002179,-0.00003847,0.00007685,0.003
 56772,-0.00284596,0.00112231,0.00001724,0.00003813,-0.00000404,0.05544
 896,-0.06677051,-0.04039135,0.01007589,0.00145670,-0.01651889,0.000475
 04,0.00078484,-0.00072069,-0.00004866,0.00004455,0.00003042,0.00007226
 ,-0.00006416,-0.00008145,0.00027731,-0.00038008,-0.00004085,0.00015159
 ,0.00005942,-0.00004132,-0.00000087,0.00001113,0.00000786,-0.00015511,
 -0.00008923,-0.00007612,0.00012223,0.00005606,0.00002623,-0.00002026,-
 0.00000107,-0.00003309,-0.00002331,0.00000016,-0.00002708,0.00410105,0
 .00260761,0.00532128,-0.00152330,0.00066146,0.00071732,0.00049995,-0.0
 0040586,-0.00058221,0.00000972,0.00003796,-0.00003875,-0.00300744,-0.0
 0095941,-0.00191626,0.00016892,-0.00026232,0.00029351,0.00037634,-0.00
 007673,-0.00029114,0.00002481,0.00041632,-0.00038294,-0.00103443,0.000
 23779,0.00029587,-0.05954050,0.05705125,0.01771305,-0.00977621,-0.0078
 1562,0.00000411,-0.00002491,-0.00001463,-0.00080852,0.00216383,-0.0001
 0036,0.00000903,0.00001270,-0.00000366,0.14298466,-0.03923016,-0.19051
 063,-0.00581915,0.00186547,0.00601908,-0.00009620,0.00016842,0.0005406
 6,0.00005508,-0.00006470,-0.00000839,-0.00006661,0.00007600,0.00000228
 ,0.00010056,-0.00003515,-0.00003643,0.00002417,-0.00002686,0.00003213,
 -0.00003887,-0.00000091,0.00007581,-0.00012828,-0.00001305,-0.00004191
 ,0.00007145,0.00001587,-0.00000426,-0.00001358,0.00000390,-0.00000445,
 -0.00000590,-0.00001679,-0.00000629,0.00391739,0.00520393,-0.00093219,
 -0.00036203,0.00015509,0.00004475,0.00110340,-0.00089892,-0.00108645,0
 .00001526,0.00002748,0.00003165,-0.00153285,-0.00263396,-0.00023043,0.
 00004000,-0.00025176,0.00037809,-0.00045314,0.00061410,-0.00002390,-0.
 00006243,0.00029479,-0.00011888,0.00035905,-0.00065415,-0.00021831,-0.
 15700965,0.04302593,0.19403234\\-0.00000240,-0.00000426,0.00000168,-0.
 00001986,0.00002069,0.00001944,-0.00000225,-0.00000144,0.00000172,0.00
 000287,-0.00001675,0.00000250,-0.00000158,-0.00000052,-0.00000063,0.00
 000577,-0.00000399,-0.00000165,0.00000618,0.00001118,-0.00000422,0.000
 00540,-0.00000354,0.00000467,0.00000373,0.00000088,-0.00000208,-0.0000
 0488,0.00000443,-0.00001187,0.00000207,0.00000451,-0.00000224,0.000008
 19,-0.00000379,0.00000763,-0.00000004,0.00001421,0.00000320,-0.0000044
 2,0.00000149,-0.00000165,0.00000288,0.00000597,-0.00000632,0.00000893,
 -0.00000966,-0.00001683,0.00000011,-0.00000135,-0.00000041,-0.00000075
 ,-0.00000087,0.00000073,0.00000100,0.00000141,0.00000128,-0.00000218,0
 .00000421,-0.00000101,-0.00000327,-0.00000229,0.00000638,-0.00000372,-
 0.00000297,0.00000224,-0.00000154,-0.00000573,-0.00000059,-0.00000350,
 -0.00000402,0.00000062,0.00000222,-0.00000183,-0.00000212,0.00000105,-
 0.00000598,-0.00000048\\\@
 The archive entry for this job was punched.


 THERE'S SMALL CHOICE IN A BOWL OF ROTTEN APPLES.
                     SHAKESPEARE
 Job cpu time:       0 days  0 hours 33 minutes 52.6 seconds.
 Elapsed time:       0 days  0 hours  2 minutes 51.7 seconds.
 File lengths (MBytes):  RWF=    268 Int=      0 D2E=      0 Chk=     12 Scr=      1
 Normal termination of Gaussian 16 at Sat Dec 30 20:57:41 2023.
