Unloading slurm/anatra/current
  ERROR: No such file or directory on
    '/cm/local/modulefiles/slurm/anatra/current'
environment: line 0: unalias: gv: not found
environment: line 0: unalias: sl: not found
 Entering Gaussian System, Link 0=g16
 Initial command:
 /apps/gaussian/g16/C.01/g16/l1.exe "/local/jobs/1153167/Gau-1515239.inp" -scrdir="/local/jobs/1153167/"
 Entering Link 1 = /apps/gaussian/g16/C.01/g16/l1.exe PID=   1515240.
  
 Copyright (c) 1988-2019, Gaussian, Inc.  All Rights Reserved.
  
 This is part of the Gaussian(R) 16 program.  It is based on
 the Gaussian(R) 09 system (copyright 2009, Gaussian, Inc.),
 the Gaussian(R) 03 system (copyright 2003, Gaussian, Inc.),
 the Gaussian(R) 98 system (copyright 1998, Gaussian, Inc.),
 the Gaussian(R) 94 system (copyright 1995, Gaussian, Inc.),
 the Gaussian 92(TM) system (copyright 1992, Gaussian, Inc.),
 the Gaussian 90(TM) system (copyright 1990, Gaussian, Inc.),
 the Gaussian 88(TM) system (copyright 1988, Gaussian, Inc.),
 the Gaussian 86(TM) system (copyright 1986, Carnegie Mellon
 University), and the Gaussian 82(TM) system (copyright 1983,
 Carnegie Mellon University). Gaussian is a federally registered
 trademark of Gaussian, Inc.
  
 This software contains proprietary and confidential information,
 including trade secrets, belonging to Gaussian, Inc.
  
 This software is provided under written license and may be
 used, copied, transmitted, or stored only in accord with that
 written license.
  
 The following legend is applicable only to US Government
 contracts under FAR:
  
                    RESTRICTED RIGHTS LEGEND
  
 Use, reproduction and disclosure by the US Government is
 subject to restrictions as set forth in subparagraphs (a)
 and (c) of the Commercial Computer Software - Restricted
 Rights clause in FAR 52.227-19.
  
 Gaussian, Inc.
 340 Quinnipiac St., Bldg. 40, Wallingford CT 06492
  
  
 ---------------------------------------------------------------
 Warning -- This program may not be used in any manner that
 competes with the business of Gaussian, Inc. or will provide
 assistance to any competitor of Gaussian, Inc.  The licensee
 of this program is prohibited from giving any competitor of
 Gaussian, Inc. access to this program.  By using this program,
 the user acknowledges that Gaussian, Inc. is engaged in the
 business of creating and licensing software in the field of
 computational chemistry and represents and warrants to the
 licensee that it is not a competitor of Gaussian, Inc. and that
 it will not use this program in any manner prohibited above.
 ---------------------------------------------------------------
  

 Cite this work as:
 Gaussian 16, Revision C.01,
 M. J. Frisch, G. W. Trucks, H. B. Schlegel, G. E. Scuseria, 
 M. A. Robb, J. R. Cheeseman, G. Scalmani, V. Barone, 
 G. A. Petersson, H. Nakatsuji, X. Li, M. Caricato, A. V. Marenich, 
 J. Bloino, B. G. Janesko, R. Gomperts, B. Mennucci, H. P. Hratchian, 
 J. V. Ortiz, A. F. Izmaylov, J. L. Sonnenberg, D. Williams-Young, 
 F. Ding, F. Lipparini, F. Egidi, J. Goings, B. Peng, A. Petrone, 
 T. Henderson, D. Ranasinghe, V. G. Zakrzewski, J. Gao, N. Rega, 
 G. Zheng, W. Liang, M. Hada, M. Ehara, K. Toyota, R. Fukuda, 
 J. Hasegawa, M. Ishida, T. Nakajima, Y. Honda, O. Kitao, H. Nakai, 
 T. Vreven, K. Throssell, J. A. Montgomery, Jr., J. E. Peralta, 
 F. Ogliaro, M. J. Bearpark, J. J. Heyd, E. N. Brothers, K. N. Kudin, 
 V. N. Staroverov, T. A. Keith, R. Kobayashi, J. Normand, 
 K. Raghavachari, A. P. Rendell, J. C. Burant, S. S. Iyengar, 
 J. Tomasi, M. Cossi, J. M. Millam, M. Klene, C. Adamo, R. Cammi, 
 J. W. Ochterski, R. L. Martin, K. Morokuma, O. Farkas, 
 J. B. Foresman, and D. J. Fox, Gaussian, Inc., Wallingford CT, 2019.
 
 ******************************************
 Gaussian 16:  ES64L-G16RevC.01  3-Jul-2019
                30-Dec-2023 
 ******************************************
 %chk=imda-1_1_opt_dft_re_freq.chk
 %nprocshared=12
 Will use up to   12 processors via shared memory.
 %mem=48GB
 -----------------------------------------------------------
 # wb97xd def2svp scrf=(iefpcm,solvent=toluene) freq=noraman
 -----------------------------------------------------------
 1/10=4,30=1,38=1/1,3;
 2/12=2,17=6,18=5,40=1/2;
 3/5=43,7=101,11=2,25=1,30=1,70=2201,71=2,72=13,74=-58,140=1/1,2,3;
 4//1;
 5/5=2,38=5,53=13,98=1/2;
 8/6=4,10=90,11=11/1;
 11/6=1,8=1,9=11,15=111,16=1/1,2,10;
 10/6=1/2;
 6/7=2,8=2,9=2,10=2,28=1/1;
 7/8=1,10=1,25=1/1,2,3,16;
 1/10=4,30=1/3;
 99//99;
 -----------------------
 imda-1_1_opt_dft_re.out
 -----------------------
 Symbolic Z-matrix:
 Charge =  0 Multiplicity = 1
 C                    -2.4669    0.31491  -0.21954 
 C                     0.98842   1.27209   1.11661 
 C                    -0.9187   -1.47844  -0.0407 
 C                     1.36775  -0.00253   1.09879 
 C                    -2.67217  -0.35      0.93922 
 C                    -1.71972  -1.45737   1.04684 
 C                     0.22744  -2.40402  -0.32208 
 H                     0.46345  -2.97823   0.58817 
 H                    -0.07417  -3.14891  -1.07879 
 C                     1.48781  -1.71459  -0.85706 
 H                     2.26109  -2.45179  -1.11991 
 H                     1.25097  -1.19005  -1.80031 
 C                     2.1647   -0.66378   0.00852 
 O                     3.31396  -0.34882  -0.18971 
 H                     1.05861  -0.62848   1.94101 
 H                     0.4137    1.71002   1.93385 
 C                    -1.34662  -0.36431  -0.95944 
 H                    -1.68754  -0.7541   -1.93666 
 H                    -0.53003   0.3442   -1.18321 
 Cl                    1.28393   2.38384  -0.1877 
 C                    -3.17188   1.52417  -0.73981 
 H                    -2.4654    2.35915  -0.8798 
 H                    -3.96084   1.85543  -0.05012 
 H                    -3.63445   1.32977  -1.72131 
 H                    -1.6516   -2.13991   1.89675 
 H                    -3.42313  -0.09861   1.69072 
 

 GradGradGradGradGradGradGradGradGradGradGradGradGradGradGradGradGradGrad
 Berny optimization.
 Initialization pass.
 Trust Radius=3.00D-01 FncErr=1.00D-07 GrdErr=1.00D-07 EigMax=2.50D+02 EigMin=1.00D-04
 Number of steps in this run=      2 maximum allowed number of steps=      2.
 GradGradGradGradGradGradGradGradGradGradGradGradGradGradGradGradGradGrad

                          Input orientation:                          
 ---------------------------------------------------------------------
 Center     Atomic      Atomic             Coordinates (Angstroms)
 Number     Number       Type             X           Y           Z
 ---------------------------------------------------------------------
      1          6           0       -2.466900    0.314910   -0.219540
      2          6           0        0.988420    1.272090    1.116610
      3          6           0       -0.918700   -1.478440   -0.040700
      4          6           0        1.367750   -0.002530    1.098790
      5          6           0       -2.672170   -0.350000    0.939220
      6          6           0       -1.719720   -1.457370    1.046840
      7          6           0        0.227440   -2.404020   -0.322080
      8          1           0        0.463450   -2.978230    0.588170
      9          1           0       -0.074170   -3.148910   -1.078790
     10          6           0        1.487810   -1.714590   -0.857060
     11          1           0        2.261090   -2.451790   -1.119910
     12          1           0        1.250970   -1.190050   -1.800310
     13          6           0        2.164700   -0.663780    0.008520
     14          8           0        3.313960   -0.348820   -0.189710
     15          1           0        1.058610   -0.628480    1.941010
     16          1           0        0.413700    1.710020    1.933850
     17          6           0       -1.346620   -0.364310   -0.959440
     18          1           0       -1.687540   -0.754100   -1.936660
     19          1           0       -0.530030    0.344200   -1.183210
     20         17           0        1.283930    2.383840   -0.187700
     21          6           0       -3.171880    1.524170   -0.739810
     22          1           0       -2.465400    2.359150   -0.879800
     23          1           0       -3.960840    1.855430   -0.050120
     24          1           0       -3.634450    1.329770   -1.721310
     25          1           0       -1.651600   -2.139910    1.896750
     26          1           0       -3.423130   -0.098610    1.690720
 ---------------------------------------------------------------------
                    Distance matrix (angstroms):
                    1          2          3          4          5
     1  C    0.000000
     2  C    3.826320   0.000000
     3  C    2.375923   3.541453   0.000000
     4  C    4.067346   1.329987   2.950356   0.000000
     5  C    1.351653   4.007813   2.303970   4.057974   0.000000
     6  C    2.302818   3.845626   1.350859   3.413463   1.464586
     7  C    3.829173   4.020287   1.499837   3.014354   3.770625
     8  H    4.481531   4.315097   2.134288   3.151711   4.106451
     9  H    4.296687   5.049170   2.140405   4.089095   4.319244
    10  C    4.490549   3.614557   2.552156   2.602098   4.732247
    11  H    5.551503   4.526477   3.496165   3.423384   5.744092
    12  H    4.311183   3.826158   2.808356   3.135063   4.858162
    13  C    4.739363   2.521724   3.189584   1.503685   4.935582
    14  O    5.818915   3.121211   4.383338   2.359636   6.091653
    15  H    4.241130   2.072855   2.925639   1.093945   3.872964
    16  H    3.857626   1.090856   3.980002   2.130813   3.841297
    17  C    1.504599   3.527067   1.506149   3.425639   2.315642
    18  H    2.167645   4.537473   2.170357   4.371912   3.066509
    19  H    2.163558   2.907893   2.185957   2.988196   3.094412
    20  Cl   4.283715   1.739120   4.448640   2.712350   4.939085
    21  C    1.493314   4.562668   3.818539   5.130254   2.565417
    22  H    2.148223   4.134758   4.221785   4.917864   3.269722
    23  H    2.152617   5.118273   4.513246   5.758983   2.739231
    24  H    2.156021   5.424762   4.252739   5.894912   3.290293
    25  H    3.342086   4.384070   2.174488   3.784390   2.272049
    26  H    2.175883   4.655126   3.342741   4.828265   1.091737
                    6          7          8          9         10
     6  C    0.000000
     7  C    2.561546   0.000000
     8  H    2.699930   1.101804   0.000000
     9  H    3.176074   1.103830   1.759808   0.000000
    10  C    3.738883   1.532987   2.175957   2.132187   0.000000
    11  H    4.640100   2.185074   2.534992   2.437438   1.100234
    12  H    4.123436   2.169447   3.085873   2.472594   1.104969
    13  C    4.098367   2.625016   2.930345   3.517194   1.520398
    14  O    5.300554   3.710522   3.955288   4.484461   2.376028
    15  H    3.034092   2.994155   2.775917   4.093281   3.032003
    16  H    3.920539   4.695662   4.877809   5.737876   4.546520
    17  C    2.314982   2.654112   3.536103   3.063882   3.141295
    18  H    3.065436   2.999375   3.993530   3.012311   3.488685
    19  H    3.103891   2.977922   3.894012   3.524277   2.901149
    20  Cl   5.030000   4.904878   5.479686   5.766264   4.157732
    21  C    3.767024   5.211579   5.937235   5.616795   5.675916
    22  H    4.339793   5.500021   6.262645   6.008020   5.676596
    23  H    4.147359   5.979847   6.583770   6.419329   6.563839
    24  H    4.370011   5.550966   6.378507   5.757343   6.021013
    25  H    1.092176   2.919547   2.624614   3.515708   4.197650
    26  H    2.272095   4.763711   4.961183   5.309430   5.763671
                   11         12         13         14         15
    11  H    0.000000
    12  H    1.753646   0.000000
    13  C    2.116512   2.093736   0.000000
    14  O    2.529089   2.749114   1.208012   0.000000
    15  H    3.760272   3.788118   2.226926   3.115250   0.000000
    16  H    5.482605   4.801602   3.522474   4.142443   2.425808
    17  C    4.171198   2.852435   3.654586   4.723741   3.777238
    18  H    4.375033   2.973800   4.316438   5.313294   4.753256
    19  H    3.951192   2.430370   3.114131   4.030332   3.637394
    20  Cl   5.020675   3.921006   3.178403   3.404182   3.695436
    21  C    6.743137   5.296532   5.816030   6.773243   5.451398
    22  H    6.748519   5.220686   5.600450   6.419527   5.413090
    23  H    7.642579   6.284988   6.623602   7.602692   5.943844
    24  H    7.029884   5.497551   6.371554   7.310531   6.266749
    25  H    4.950419   4.795352   4.506497   5.676099   3.103485
    26  H    6.763686   5.935128   5.862854   6.999072   4.519889
                   16         17         18         19         20
    16  H    0.000000
    17  C    3.971486   0.000000
    18  H    5.046578   1.105948   0.000000
    19  H    3.531594   1.104028   1.764590   0.000000
    20  Cl   2.390044   3.881714   4.662099   2.905447   0.000000
    21  C    4.476537   2.635558   2.970897   2.927167   4.571444
    22  H    4.077648   2.945377   3.378512   2.810291   3.812753
    23  H    4.805609   3.547993   3.941646   3.916397   5.273117
    24  H    5.467385   2.946951   2.859956   3.301261   5.258658
    25  H    4.369073   3.376920   4.076370   4.112770   5.781573
    26  H    4.248708   3.377253   4.074288   4.101900   5.643353
                   21         22         23         24         25
    21  C    0.000000
    22  H    1.102680   0.000000
    23  H    1.099028   1.782819   0.000000
    24  H    1.102318   1.770435   1.782056   0.000000
    25  H    4.763211   5.349116   5.008556   5.390801   0.000000
    26  H    2.933261   3.683124   2.671690   3.704980   2.710659
                   26
    26  H    0.000000
 Stoichiometry    C11H13ClO
 Framework group  C1[X(C11H13ClO)]
 Deg. of freedom    72
 Full point group                 C1      NOp   1
 Largest Abelian subgroup         C1      NOp   1
 Largest concise Abelian subgroup C1      NOp   1
                         Standard orientation:                         
 ---------------------------------------------------------------------
 Center     Atomic      Atomic             Coordinates (Angstroms)
 Number     Number       Type             X           Y           Z
 ---------------------------------------------------------------------
      1          6           0       -2.466899    0.314913   -0.219539
      2          6           0        0.988422    1.272089    1.116611
      3          6           0       -0.918701   -1.478439   -0.040699
      4          6           0        1.367751   -0.002531    1.098791
      5          6           0       -2.672170   -0.349997    0.939221
      6          6           0       -1.719721   -1.457368    1.046841
      7          6           0        0.227438   -2.404020   -0.322079
      8          1           0        0.463448   -2.978230    0.588171
      9          1           0       -0.074173   -3.148910   -1.078789
     10          6           0        1.487809   -1.714591   -0.857059
     11          1           0        2.261088   -2.451792   -1.119909
     12          1           0        1.250969   -1.190051   -1.800309
     13          6           0        2.164700   -0.663782    0.008521
     14          8           0        3.313960   -0.348823   -0.189709
     15          1           0        1.058610   -0.628481    1.941011
     16          1           0        0.413702    1.710020    1.933851
     17          6           0       -1.346620   -0.364309   -0.959439
     18          1           0       -1.687540   -0.754098   -1.936659
     19          1           0       -0.530029    0.344201   -1.183209
     20         17           0        1.283933    2.383839   -0.187699
     21          6           0       -3.171878    1.524173   -0.739809
     22          1           0       -2.465397    2.359153   -0.879799
     23          1           0       -3.960837    1.855434   -0.050119
     24          1           0       -3.634448    1.329774   -1.721309
     25          1           0       -1.651602   -2.139908    1.896751
     26          1           0       -3.423129   -0.098606    1.690721
 ---------------------------------------------------------------------
 Rotational constants (GHZ):           0.8866978           0.5794196           0.4150880
 Standard basis: def2SVP (5D, 7F)
 There are   264 symmetry adapted cartesian basis functions of A   symmetry.
 There are   251 symmetry adapted basis functions of A   symmetry.
   251 basis functions,   428 primitive gaussians,   264 cartesian basis functions
    52 alpha electrons       52 beta electrons
       nuclear repulsion energy       873.3990877689 Hartrees.
 NAtoms=   26 NActive=   26 NUniq=   26 SFac= 1.00D+00 NAtFMM=   60 NAOKFM=F Big=F
 Integral buffers will be    131072 words long.
 Raffenetti 2 integral format.
 Two-electron integral symmetry is turned on.
 Nuclear repulsion after empirical dispersion term =      873.3785570269 Hartrees.
 Force inversion solution in PCM.
 ------------------------------------------------------------------------------
 Polarizable Continuum Model (PCM)
 =================================
 Model                : PCM.
 Atomic radii         : UFF (Universal Force Field).
 Polarization charges : Total charges.
 Charge compensation  : None.
 Solution method      : Matrix inversion.
 Cavity type          : Scaled VdW (van der Waals Surface) (Alpha=1.100).
 Cavity algorithm     : GePol (No added spheres)
                        Default sphere list used, NSphG=   26.
                        Lebedev-Laikov grids with approx.  5.0 points / Ang**2.
                        Smoothing algorithm: York/Karplus (Gamma=1.0000).
                        Polarization charges: spherical gaussians, with
                                              point-specific exponents (IZeta= 3).
                        Self-potential: point-specific (ISelfS= 7).
                        Self-field    : sphere-specific E.n sum rule (ISelfD= 2).
 1st derivatives      : Analytical E(r).r(x)/FMM algorithm (CHGder, D1EAlg=3).
                        Cavity 1st derivative terms included.
 2nd derivatives      : Analytical E(r).r(xy)/FMM algorithm (CHGder, D2EAlg=3).
                        Cavity 2nd derivative terms included.
 Solvent              : Toluene, Eps=   2.374100 Eps(inf)=   2.238315
 ------------------------------------------------------------------------------
 One-electron integrals computed using PRISM.
   1 Symmetry operations used in ECPInt.
 ECPInt:  NShTT=    7140 NPrTT=   26096 LenC2=    6946 LenP2D=   19119.
 LDataN:  DoStor=T MaxTD1= 4 Len=   56
 NBasis=   251 RedAO= T EigKep=  5.71D-04  NBF=   251
 NBsUse=   251 1.00D-06 EigRej= -1.00D+00 NBFU=   251
 ExpMin= 1.22D-01 ExpMax= 1.04D+04 ExpMxC= 1.57D+03 IAcc=3 IRadAn=         5 AccDes= 0.00D+00
 Harris functional with IExCor= 4639 and IRadAn=       5 diagonalized for initial guess.
 HarFok:  IExCor= 4639 AccDes= 0.00D+00 IRadAn=         5 IDoV= 1 UseB2=F ITyADJ=14
 ICtDFT=  3500011 ScaDFX=  1.000000  1.000000  1.000000  1.000000
 FoFCou: FMM=F IPFlag=           0 FMFlag=      100000 FMFlg1=           0
         NFxFlg=           0 DoJE=T BraDBF=F KetDBF=T FulRan=T
         wScrn=  0.000000 ICntrl=       500 IOpCl=  0 I1Cent=   200000004 NGrid=           0
         NMat0=    1 NMatS0=      1 NMatT0=    0 NMatD0=    1 NMtDS0=    0 NMtDT0=    0
 Petite list used in FoFCou.
 Requested convergence on RMS density matrix=1.00D-08 within 128 cycles.
 Requested convergence on MAX density matrix=1.00D-06.
 Requested convergence on             energy=1.00D-06.
 No special actions if energy rises.
 Inv3:  Mode=1 IEnd=    12024012.
 Iteration    1 A*A^-1 deviation from unit magnitude is 3.33D-15 for   1661.
 Iteration    1 A*A^-1 deviation from orthogonality  is 1.65D-15 for   1382    657.
 Iteration    1 A^-1*A deviation from unit magnitude is 2.89D-15 for   1270.
 Iteration    1 A^-1*A deviation from orthogonality  is 2.07D-15 for   1558   1264.
 Error on total polarization charges =  0.00625
 SCF Done:  E(RwB97XD) =  -961.702758128     A.U. after   15 cycles
            NFock= 15  Conv=0.48D-08     -V/T= 2.0068
 DoSCS=F DFT=T ScalE2(SS,OS)=  1.000000  1.000000
 Range of M.O.s used for correlation:     1   251
 NBasis=   251 NAE=    52 NBE=    52 NFC=     0 NFV=     0
 NROrb=    251 NOA=    52 NOB=    52 NVA=   199 NVB=   199

 **** Warning!!: The largest alpha MO coefficient is  0.10358505D+02

   1 Symmetry operations used in ECPInt.
 ECPInt:  NShTT=    7140 NPrTT=   26096 LenC2=    6946 LenP2D=   19119.
 LDataN:  DoStor=T MaxTD1= 5 Len=  102
 Symmetrizing basis deriv contribution to polar:
 IMax=3 JMax=2 DiffMx= 0.00D+00
 G2DrvN: will do    27 centers at a time, making    1 passes.
 Calling FoFCou, ICntrl=  3107 FMM=F I1Cent=   0 AccDes= 0.00D+00.
 NEqPCM:  Using equilibrium solvation (IEInf=0, Eps=   2.3741, EpsInf=   2.2383)
 G2PCM: DoFxE=T DoFxN=T DoGrad=T DoDP/DQ/DG/TGxP=FFFF NFrqRd=   0 IEInf=0 SqF1=F DoCFld=F IF1Alg=4.
 End of G2Drv F.D. properties file   721 does not exist.
 End of G2Drv F.D. properties file   722 does not exist.
 End of G2Drv F.D. properties file   788 does not exist.
          IDoAtm=11111111111111111111111111
 NEqPCM:  Using equilibrium solvation (IEInf=0, Eps=   2.3741, EpsInf=   2.2383)
          Differentiating once with respect to electric field.
                with respect to dipole field.
          Differentiating once with respect to nuclear coordinates.
 Keep R1 ints in memory in canonical form, NReq=1021395223.
          There are    81 degrees of freedom in the 1st order CPHF.  IDoFFX=6 NUNeed=     3.
     78 vectors produced by pass  0 Test12= 1.28D-14 1.23D-09 XBig12= 5.86D+01 2.58D+00.
 AX will form    78 AO Fock derivatives at one time.
     78 vectors produced by pass  1 Test12= 1.28D-14 1.23D-09 XBig12= 5.34D+00 4.42D-01.
     78 vectors produced by pass  2 Test12= 1.28D-14 1.23D-09 XBig12= 1.78D-01 5.73D-02.
     78 vectors produced by pass  3 Test12= 1.28D-14 1.23D-09 XBig12= 2.02D-03 5.74D-03.
     78 vectors produced by pass  4 Test12= 1.28D-14 1.23D-09 XBig12= 1.34D-05 4.24D-04.
     78 vectors produced by pass  5 Test12= 1.28D-14 1.23D-09 XBig12= 7.31D-08 3.64D-05.
     65 vectors produced by pass  6 Test12= 1.28D-14 1.23D-09 XBig12= 3.56D-10 1.99D-06.
     20 vectors produced by pass  7 Test12= 1.28D-14 1.23D-09 XBig12= 1.68D-12 1.21D-07.
      3 vectors produced by pass  8 Test12= 1.28D-14 1.23D-09 XBig12= 7.58D-15 7.74D-09.
 InvSVY:  IOpt=1 It=  1 EMax= 7.11D-15
 Solved reduced A of dimension   556 with    81 vectors.
 Isotropic polarizability for W=    0.000000      137.36 Bohr**3.
 End of Minotr F.D. properties file   721 does not exist.
 End of Minotr F.D. properties file   722 does not exist.
 End of Minotr F.D. properties file   788 does not exist.

 **********************************************************************

            Population analysis using the SCF Density.

 **********************************************************************

 Orbital symmetries:
       Occupied  (A) (A) (A) (A) (A) (A) (A) (A) (A) (A) (A) (A)
                 (A) (A) (A) (A) (A) (A) (A) (A) (A) (A) (A) (A)
                 (A) (A) (A) (A) (A) (A) (A) (A) (A) (A) (A) (A)
                 (A) (A) (A) (A) (A) (A) (A) (A) (A) (A) (A) (A)
                 (A) (A) (A) (A)
       Virtual   (A) (A) (A) (A) (A) (A) (A) (A) (A) (A) (A) (A)
                 (A) (A) (A) (A) (A) (A) (A) (A) (A) (A) (A) (A)
                 (A) (A) (A) (A) (A) (A) (A) (A) (A) (A) (A) (A)
                 (A) (A) (A) (A) (A) (A) (A) (A) (A) (A) (A) (A)
                 (A) (A) (A) (A) (A) (A) (A) (A) (A) (A) (A) (A)
                 (A) (A) (A) (A) (A) (A) (A) (A) (A) (A) (A) (A)
                 (A) (A) (A) (A) (A) (A) (A) (A) (A) (A) (A) (A)
                 (A) (A) (A) (A) (A) (A) (A) (A) (A) (A) (A) (A)
                 (A) (A) (A) (A) (A) (A) (A) (A) (A) (A) (A) (A)
                 (A) (A) (A) (A) (A) (A) (A) (A) (A) (A) (A) (A)
                 (A) (A) (A) (A) (A) (A) (A) (A) (A) (A) (A) (A)
                 (A) (A) (A) (A) (A) (A) (A) (A) (A) (A) (A) (A)
                 (A) (A) (A) (A) (A) (A) (A) (A) (A) (A) (A) (A)
                 (A) (A) (A) (A) (A) (A) (A) (A) (A) (A) (A) (A)
                 (A) (A) (A) (A) (A) (A) (A) (A) (A) (A) (A) (A)
                 (A) (A) (A) (A) (A) (A) (A) (A) (A) (A) (A) (A)
                 (A) (A) (A) (A) (A) (A) (A)
 The electronic state is 1-A.
 Alpha  occ. eigenvalues -- -101.68792 -19.25543 -10.40038 -10.36777 -10.32225
 Alpha  occ. eigenvalues --  -10.31258 -10.31231 -10.30185 -10.30079 -10.30049
 Alpha  occ. eigenvalues --  -10.29685 -10.29206 -10.29009  -9.59535  -7.34903
 Alpha  occ. eigenvalues --   -7.33980  -7.33911  -1.14500  -0.97844  -0.96150
 Alpha  occ. eigenvalues --   -0.89929  -0.86025  -0.83820  -0.79555  -0.77587
 Alpha  occ. eigenvalues --   -0.72959  -0.70510  -0.62719  -0.61631  -0.60762
 Alpha  occ. eigenvalues --   -0.59595  -0.57495  -0.55478  -0.54846  -0.53432
 Alpha  occ. eigenvalues --   -0.52541  -0.49932  -0.49800  -0.48956  -0.48601
 Alpha  occ. eigenvalues --   -0.47407  -0.45887  -0.45351  -0.44686  -0.43064
 Alpha  occ. eigenvalues --   -0.42831  -0.41365  -0.40119  -0.38208  -0.34790
 Alpha  occ. eigenvalues --   -0.33873  -0.28291
 Alpha virt. eigenvalues --    0.02932   0.04843   0.07724   0.12607   0.13317
 Alpha virt. eigenvalues --    0.14514   0.15302   0.16454   0.17482   0.18562
 Alpha virt. eigenvalues --    0.19277   0.20641   0.21726   0.22245   0.22714
 Alpha virt. eigenvalues --    0.23747   0.24441   0.24792   0.26456   0.30016
 Alpha virt. eigenvalues --    0.30787   0.31242   0.33810   0.34659   0.36753
 Alpha virt. eigenvalues --    0.38917   0.40362   0.41234   0.42465   0.44769
 Alpha virt. eigenvalues --    0.47611   0.48135   0.50884   0.52178   0.52721
 Alpha virt. eigenvalues --    0.53419   0.54229   0.54924   0.55709   0.56900
 Alpha virt. eigenvalues --    0.58010   0.58532   0.60402   0.62884   0.63486
 Alpha virt. eigenvalues --    0.64850   0.66081   0.68556   0.69051   0.69815
 Alpha virt. eigenvalues --    0.70314   0.70826   0.71230   0.72450   0.73097
 Alpha virt. eigenvalues --    0.73720   0.73898   0.74716   0.75003   0.75888
 Alpha virt. eigenvalues --    0.76328   0.77148   0.77616   0.78330   0.78471
 Alpha virt. eigenvalues --    0.78688   0.79579   0.80029   0.80954   0.82460
 Alpha virt. eigenvalues --    0.83147   0.83341   0.84589   0.86760   0.87079
 Alpha virt. eigenvalues --    0.88573   0.89874   0.91022   0.91880   0.93076
 Alpha virt. eigenvalues --    0.95071   0.97070   0.98643   1.01991   1.04170
 Alpha virt. eigenvalues --    1.06597   1.08203   1.09323   1.10871   1.13705
 Alpha virt. eigenvalues --    1.14768   1.17529   1.18943   1.23662   1.24356
 Alpha virt. eigenvalues --    1.25035   1.26662   1.29886   1.33402   1.34374
 Alpha virt. eigenvalues --    1.34413   1.37719   1.41349   1.43956   1.46063
 Alpha virt. eigenvalues --    1.55223   1.58547   1.59910   1.60850   1.62048
 Alpha virt. eigenvalues --    1.62375   1.65664   1.66109   1.66661   1.69625
 Alpha virt. eigenvalues --    1.70846   1.73597   1.75475   1.77804   1.79287
 Alpha virt. eigenvalues --    1.80790   1.81433   1.82711   1.83050   1.84092
 Alpha virt. eigenvalues --    1.85131   1.85878   1.86650   1.87509   1.88328
 Alpha virt. eigenvalues --    1.89920   1.91040   1.91940   1.94062   1.94484
 Alpha virt. eigenvalues --    1.96325   1.97101   1.99813   2.01381   2.03649
 Alpha virt. eigenvalues --    2.05163   2.06443   2.07713   2.08851   2.10327
 Alpha virt. eigenvalues --    2.14459   2.15606   2.16627   2.17276   2.18747
 Alpha virt. eigenvalues --    2.21563   2.24218   2.25389   2.29172   2.30506
 Alpha virt. eigenvalues --    2.33343   2.34820   2.35789   2.36345   2.39055
 Alpha virt. eigenvalues --    2.41304   2.42958   2.44758   2.48092   2.48561
 Alpha virt. eigenvalues --    2.49448   2.53021   2.56218   2.57715   2.65207
 Alpha virt. eigenvalues --    2.66244   2.68959   2.70764   2.73321   2.74615
 Alpha virt. eigenvalues --    2.76431   2.78438   2.79048   2.79369   2.81908
 Alpha virt. eigenvalues --    2.82215   2.83687   2.87520   2.92061   2.95175
 Alpha virt. eigenvalues --    2.99503   3.01184   3.02050   3.05199   3.08603
 Alpha virt. eigenvalues --    3.11770   3.13244   3.20365   3.21984   3.25886
 Alpha virt. eigenvalues --    3.27062   3.47911   3.48605   3.70743
          Condensed to atoms (all electrons):
               1          2          3          4          5          6
     1  C    5.082961   0.003633  -0.096516  -0.001396   0.590515  -0.002187
     2  C    0.003633   4.721011  -0.007003   0.630787   0.002705  -0.002715
     3  C   -0.096516  -0.007003   5.193533  -0.004930  -0.006469   0.582253
     4  C   -0.001396   0.630787  -0.004930   5.105613  -0.001383  -0.000417
     5  C    0.590515   0.002705  -0.006469  -0.001383   4.963746   0.274170
     6  C   -0.002187  -0.002715   0.582253  -0.000417   0.274170   4.989822
     7  C    0.010391  -0.001944   0.335339   0.013111   0.009894  -0.060839
     8  H   -0.000614   0.000403  -0.015030  -0.002263   0.000692  -0.015232
     9  H    0.000461  -0.000039  -0.000996   0.000002  -0.000653   0.001651
    10  C    0.000508   0.007619  -0.048566  -0.168751  -0.000432   0.002691
    11  H   -0.000012  -0.000303   0.006405   0.011257   0.000012  -0.000149
    12  H   -0.000015  -0.000360  -0.014636   0.002933   0.000074  -0.000151
    13  C    0.000079  -0.031429  -0.006807   0.269393   0.000025   0.001192
    14  O    0.000001   0.000261  -0.000079  -0.080296  -0.000000  -0.000000
    15  H   -0.000017   0.003519   0.004516   0.370425  -0.000883   0.002622
    16  H    0.000306   0.409463  -0.000199  -0.021246   0.001191  -0.000243
    17  C    0.334750  -0.000080   0.333507   0.003591  -0.091785  -0.109235
    18  H    0.003088   0.000154  -0.000975   0.000157   0.000361   0.000604
    19  H   -0.008206  -0.002564   0.001240  -0.009082   0.001286   0.003299
    20  Cl   0.000390   0.286298   0.000374  -0.086064  -0.000122   0.000070
    21  C    0.403555  -0.000142   0.009070   0.000020  -0.063933   0.010143
    22  H   -0.015861  -0.000551   0.000475   0.000053   0.001555  -0.000371
    23  H   -0.010487  -0.000004  -0.000598   0.000001  -0.012165   0.000429
    24  H   -0.015141   0.000026   0.000582  -0.000005   0.002817  -0.000538
    25  H    0.007432   0.000008  -0.065523  -0.000267  -0.053483   0.442425
    26  H   -0.064381  -0.000019   0.007765   0.000006   0.443965  -0.056681
               7          8          9         10         11         12
     1  C    0.010391  -0.000614   0.000461   0.000508  -0.000012  -0.000015
     2  C   -0.001944   0.000403  -0.000039   0.007619  -0.000303  -0.000360
     3  C    0.335339  -0.015030  -0.000996  -0.048566   0.006405  -0.014636
     4  C    0.013111  -0.002263   0.000002  -0.168751   0.011257   0.002933
     5  C    0.009894   0.000692  -0.000653  -0.000432   0.000012   0.000074
     6  C   -0.060839  -0.015232   0.001651   0.002691  -0.000149  -0.000151
     7  C    4.713803   0.380491   0.341879   0.308142  -0.009189  -0.007476
     8  H    0.380491   0.662644  -0.023271  -0.025897  -0.005173   0.006490
     9  H    0.341879  -0.023271   0.648880  -0.006553  -0.005942  -0.008274
    10  C    0.308142  -0.025897  -0.006553   5.091678   0.340904   0.350449
    11  H   -0.009189  -0.005173  -0.005942   0.340904   0.606607  -0.006041
    12  H   -0.007476   0.006490  -0.008274   0.350449  -0.006041   0.592407
    13  C   -0.035941  -0.007871   0.006606   0.295103  -0.008035  -0.004573
    14  O    0.004655   0.000156  -0.000163  -0.088140   0.007672   0.000911
    15  H    0.000332   0.000408   0.000160  -0.002665  -0.000285   0.000101
    16  H    0.000096   0.000004  -0.000003  -0.000400   0.000009   0.000024
    17  C   -0.079843   0.009921  -0.005797  -0.000298   0.000228   0.006703
    18  H    0.004150  -0.000269   0.001157  -0.001972  -0.000048   0.000643
    19  H   -0.010291  -0.000162   0.000149   0.006374  -0.000087   0.001229
    20  Cl   0.000014  -0.000003   0.000001  -0.002289  -0.000003   0.000856
    21  C   -0.000224   0.000006   0.000010   0.000000  -0.000000   0.000011
    22  H    0.000005  -0.000001   0.000003  -0.000011   0.000000  -0.000012
    23  H    0.000007  -0.000000  -0.000000   0.000000   0.000000  -0.000000
    24  H    0.000014   0.000000  -0.000007   0.000002  -0.000000   0.000003
    25  H   -0.012041   0.004818   0.000307   0.000141  -0.000008   0.000001
    26  H   -0.000312   0.000009   0.000006   0.000006  -0.000000  -0.000000
              13         14         15         16         17         18
     1  C    0.000079   0.000001  -0.000017   0.000306   0.334750   0.003088
     2  C   -0.031429   0.000261   0.003519   0.409463  -0.000080   0.000154
     3  C   -0.006807  -0.000079   0.004516  -0.000199   0.333507  -0.000975
     4  C    0.269393  -0.080296   0.370425  -0.021246   0.003591   0.000157
     5  C    0.000025  -0.000000  -0.000883   0.001191  -0.091785   0.000361
     6  C    0.001192  -0.000000   0.002622  -0.000243  -0.109235   0.000604
     7  C   -0.035941   0.004655   0.000332   0.000096  -0.079843   0.004150
     8  H   -0.007871   0.000156   0.000408   0.000004   0.009921  -0.000269
     9  H    0.006606  -0.000163   0.000160  -0.000003  -0.005797   0.001157
    10  C    0.295103  -0.088140  -0.002665  -0.000400  -0.000298  -0.001972
    11  H   -0.008035   0.007672  -0.000285   0.000009   0.000228  -0.000048
    12  H   -0.004573   0.000911   0.000101   0.000024   0.006703   0.000643
    13  C    4.767541   0.695078  -0.022598   0.006805  -0.004663   0.000266
    14  O    0.695078   7.684136   0.001256  -0.000144   0.000017  -0.000001
    15  H   -0.022598   0.001256   0.568541  -0.010880  -0.000280   0.000001
    16  H    0.006805  -0.000144  -0.010880   0.552851  -0.000185   0.000008
    17  C   -0.004663   0.000017  -0.000280  -0.000185   4.857592   0.332994
    18  H    0.000266  -0.000001   0.000001   0.000008   0.332994   0.610558
    19  H    0.000324  -0.000131   0.000043   0.000181   0.331329  -0.015226
    20  Cl   0.008417  -0.000850   0.003677  -0.037238  -0.006502   0.000014
    21  C   -0.000001  -0.000000   0.000001  -0.000001  -0.066860  -0.000775
    22  H    0.000001   0.000000   0.000000  -0.000106  -0.005860  -0.000082
    23  H   -0.000000   0.000000  -0.000000   0.000002   0.008810  -0.000240
    24  H    0.000000   0.000000  -0.000000   0.000002  -0.005650   0.001958
    25  H   -0.000008   0.000000   0.000673  -0.000006   0.014733  -0.000386
    26  H    0.000001  -0.000000  -0.000003   0.000016   0.015157  -0.000379
              19         20         21         22         23         24
     1  C   -0.008206   0.000390   0.403555  -0.015861  -0.010487  -0.015141
     2  C   -0.002564   0.286298  -0.000142  -0.000551  -0.000004   0.000026
     3  C    0.001240   0.000374   0.009070   0.000475  -0.000598   0.000582
     4  C   -0.009082  -0.086064   0.000020   0.000053   0.000001  -0.000005
     5  C    0.001286  -0.000122  -0.063933   0.001555  -0.012165   0.002817
     6  C    0.003299   0.000070   0.010143  -0.000371   0.000429  -0.000538
     7  C   -0.010291   0.000014  -0.000224   0.000005   0.000007   0.000014
     8  H   -0.000162  -0.000003   0.000006  -0.000001  -0.000000   0.000000
     9  H    0.000149   0.000001   0.000010   0.000003  -0.000000  -0.000007
    10  C    0.006374  -0.002289   0.000000  -0.000011   0.000000   0.000002
    11  H   -0.000087  -0.000003  -0.000000   0.000000   0.000000  -0.000000
    12  H    0.001229   0.000856   0.000011  -0.000012  -0.000000   0.000003
    13  C    0.000324   0.008417  -0.000001   0.000001  -0.000000   0.000000
    14  O   -0.000131  -0.000850  -0.000000   0.000000   0.000000   0.000000
    15  H    0.000043   0.003677   0.000001   0.000000  -0.000000  -0.000000
    16  H    0.000181  -0.037238  -0.000001  -0.000106   0.000002   0.000002
    17  C    0.331329  -0.006502  -0.066860  -0.005860   0.008810  -0.005650
    18  H   -0.015226   0.000014  -0.000775  -0.000082  -0.000240   0.001958
    19  H    0.639781   0.020338  -0.000664   0.003123  -0.000240  -0.000294
    20  Cl   0.020338  16.912674  -0.000890   0.003284   0.000003  -0.000001
    21  C   -0.000664  -0.000890   4.520543   0.380040   0.386430   0.383120
    22  H    0.003123   0.003284   0.380040   0.631311  -0.019738  -0.023133
    23  H   -0.000240   0.000003   0.386430  -0.019738   0.628549  -0.020327
    24  H   -0.000294  -0.000001   0.383120  -0.023133  -0.020327   0.631372
    25  H   -0.000337   0.000001  -0.000293   0.000007   0.000006   0.000005
    26  H   -0.000373  -0.000000  -0.010758   0.000136   0.004509   0.000093
              25         26
     1  C    0.007432  -0.064381
     2  C    0.000008  -0.000019
     3  C   -0.065523   0.007765
     4  C   -0.000267   0.000006
     5  C   -0.053483   0.443965
     6  C    0.442425  -0.056681
     7  C   -0.012041  -0.000312
     8  H    0.004818   0.000009
     9  H    0.000307   0.000006
    10  C    0.000141   0.000006
    11  H   -0.000008  -0.000000
    12  H    0.000001  -0.000000
    13  C   -0.000008   0.000001
    14  O    0.000000  -0.000000
    15  H    0.000673  -0.000003
    16  H   -0.000006   0.000016
    17  C    0.014733   0.015157
    18  H   -0.000386  -0.000379
    19  H   -0.000337  -0.000373
    20  Cl   0.000001  -0.000000
    21  C   -0.000293  -0.010758
    22  H    0.000007   0.000136
    23  H    0.000006   0.004509
    24  H    0.000005   0.000093
    25  H    0.659669  -0.003587
    26  H   -0.003587   0.659190
 Mulliken charges:
               1
     1  C   -0.223238
     2  C   -0.018733
     3  C   -0.206732
     4  C   -0.031250
     5  C   -0.061697
     6  C   -0.062614
     7  C    0.095779
     8  H    0.029744
     9  H    0.050425
    10  C   -0.057642
    11  H    0.062183
    12  H    0.078704
    13  C    0.071094
    14  O   -0.224336
    15  H    0.081336
    16  H    0.099691
    17  C    0.127707
    18  H    0.064239
    19  H    0.038959
    20  Cl  -0.102449
    21  C    0.051589
    22  H    0.045734
    23  H    0.035055
    24  H    0.045102
    25  H    0.005713
    26  H    0.005636
 Sum of Mulliken charges =  -0.00000
 Mulliken charges with hydrogens summed into heavy atoms:
               1
     1  C   -0.223238
     2  C    0.080958
     3  C   -0.206732
     4  C    0.050086
     5  C   -0.056062
     6  C   -0.056900
     7  C    0.175948
    10  C    0.083245
    13  C    0.071094
    14  O   -0.224336
    17  C    0.230904
    20  Cl  -0.102449
    21  C    0.177480
 APT charges:
               1
     1  C    0.049342
     2  C    0.328917
     3  C   -0.049332
     4  C   -0.300445
     5  C   -0.072230
     6  C   -0.042885
     7  C    0.143710
     8  H   -0.030432
     9  H   -0.048487
    10  C   -0.092343
    11  H   -0.008254
    12  H    0.027397
    13  C    0.948452
    14  O   -0.758051
    15  H    0.080387
    16  H    0.061586
    17  C   -0.110748
    18  H    0.043920
    19  H    0.054351
    20  Cl  -0.311988
    21  C    0.053362
    22  H   -0.012387
    23  H   -0.010101
    24  H   -0.022630
    25  H    0.041289
    26  H    0.037598
 Sum of APT charges =   0.00000
 APT charges with hydrogens summed into heavy atoms:
               1
     1  C    0.049342
     2  C    0.390503
     3  C   -0.049332
     4  C   -0.220058
     5  C   -0.034632
     6  C   -0.001597
     7  C    0.064792
    10  C   -0.073200
    13  C    0.948452
    14  O   -0.758051
    17  C   -0.012476
    20  Cl  -0.311988
    21  C    0.008245
 Electronic spatial extent (au):  <R**2>=           2794.4487
 Charge=              0.0000 electrons
 Dipole moment (field-independent basis, Debye):
    X=             -3.0662    Y=             -1.3982    Z=              0.4630  Tot=              3.4016
 Quadrupole moment (field-independent basis, Debye-Ang):
   XX=            -98.8798   YY=            -80.9225   ZZ=            -77.0215
   XY=             -5.4603   XZ=              0.9968   YZ=              0.5646
 Traceless Quadrupole moment (field-independent basis, Debye-Ang):
   XX=            -13.2719   YY=              4.6855   ZZ=              8.5864
   XY=             -5.4603   XZ=              0.9968   YZ=              0.5646
 Octapole moment (field-independent basis, Debye-Ang**2):
  XXX=            -40.8157  YYY=              2.0402  ZZZ=              0.2122  XYY=             11.4370
  XXY=              9.4787  XXZ=              2.6685  XZZ=              2.1599  YZZ=              1.2938
  YYZ=             -0.1855  XYZ=              0.4098
 Hexadecapole moment (field-independent basis, Debye-Ang**3):
 XXXX=          -2234.5972 YYYY=          -1237.3916 ZZZZ=           -396.5954 XXXY=            -27.5699
 XXXZ=             -7.6288 YYYX=            -15.8068 YYYZ=             -1.4928 ZZZX=             -5.8412
 ZZZY=             -0.8694 XXYY=           -546.2314 XXZZ=           -388.5042 YYZZ=           -256.5842
 XXYZ=             -6.4892 YYXZ=             -7.6912 ZZXY=              4.6651
 N-N= 8.733785570269D+02 E-N=-4.003737322578D+03  KE= 9.552501435687D+02
  Exact polarizability:     138.388     -15.994     147.003     -14.432     -10.779     126.688
 Approx polarizability:     132.009      -9.321     144.481     -16.255     -15.217     139.026
   1 Symmetry operations used in ECPInt.
 ECPInt:  NShTT=    7140 NPrTT=   26096 LenC2=    6946 LenP2D=   19119.
 LDataN:  DoStor=T MaxTD1= 6 Len=  172
 D2PCM: PCM CHGder 2nd derivatives, FixD1E=F FixD2E=F DoIter=F DoCFld=F I1PDM=0
 Calling FoFJK, ICntrl=    100127 FMM=F ISym2X=0 I1Cent= 0 IOpClX= 0 NMat=1 NMatS=1 NMatT=0.
 Full mass-weighted force constant matrix:
 Low frequencies ---  -28.0323   -2.0827    0.0024    0.0030    0.0039    7.4004
 Low frequencies ---    9.8051   35.0790   63.1767
 ******    1 imaginary frequencies (negative Signs) ****** 
 Diagonal vibrational polarizability:
       46.6633422      59.1596067      67.8222604
 Harmonic frequencies (cm**-1), IR intensities (KM/Mole), Raman scattering
 activities (A**4/AMU), depolarization ratios for plane and unpolarized
 incident light, reduced masses (AMU), force constants (mDyne/A),
 and normal coordinates:
                      1                      2                      3
                      A                      A                      A
 Frequencies --    -27.8372                35.0423                63.1565
 Red. masses --      6.2945                 6.8838                 5.3720
 Frc consts  --      0.0029                 0.0050                 0.0126
 IR Inten    --      3.4170                 0.3915                 0.5871
  Atom  AN      X      Y      Z        X      Y      Z        X      Y      Z
     1   6    -0.06  -0.01   0.07    -0.18  -0.10  -0.03     0.07  -0.03   0.06
     2   6    -0.04   0.04  -0.08     0.14   0.07   0.01    -0.11   0.10  -0.11
     3   6     0.00   0.04  -0.06    -0.04   0.02   0.04    -0.03  -0.12  -0.03
     4   6    -0.03   0.05   0.02     0.04   0.04  -0.02    -0.21   0.07  -0.07
     5   6     0.00  -0.06   0.05    -0.16  -0.10  -0.03     0.02  -0.10   0.01
     6   6     0.04  -0.04  -0.03    -0.07  -0.02   0.02    -0.04  -0.16  -0.05
     7   6     0.02   0.09  -0.16    -0.02   0.04   0.05    -0.01  -0.11  -0.03
     8   1     0.03  -0.01  -0.22     0.01   0.07   0.06    -0.04  -0.13  -0.03
     9   1     0.03   0.17  -0.24    -0.03   0.01   0.08     0.03  -0.09  -0.06
    10   6     0.01   0.17  -0.08    -0.04   0.03  -0.01    -0.00  -0.07   0.04
    11   1    -0.00   0.21  -0.23    -0.06   0.03  -0.05     0.06  -0.04   0.14
    12   1    -0.02   0.35   0.03    -0.09   0.05   0.01     0.04  -0.13  -0.00
    13   6     0.05  -0.01   0.11     0.01   0.02  -0.03    -0.12   0.03   0.02
    14   8     0.14  -0.19   0.34     0.01  -0.01  -0.06    -0.13   0.09   0.05
    15   1    -0.04   0.10   0.05    -0.04   0.03  -0.06    -0.38   0.09  -0.12
    16   1    -0.08   0.10  -0.14     0.15   0.08   0.01    -0.19   0.13  -0.17
    17   6    -0.07   0.07   0.00    -0.08  -0.01   0.02     0.02  -0.07   0.02
    18   1    -0.09   0.10  -0.00     0.02  -0.02  -0.01    -0.05  -0.03   0.02
    19   1    -0.10   0.10   0.01    -0.12   0.06   0.09     0.05  -0.11  -0.01
    20  17     0.02  -0.05  -0.15     0.28   0.09   0.06     0.14   0.11  -0.04
    21   6    -0.13  -0.01   0.15    -0.28  -0.19  -0.08     0.17   0.07   0.16
    22   1    -0.16   0.02   0.14    -0.37  -0.12  -0.10     0.25   0.02   0.23
    23   1    -0.11  -0.06   0.19    -0.33  -0.24  -0.11     0.19   0.07   0.18
    24   1    -0.16   0.01   0.16    -0.25  -0.26  -0.09     0.17   0.19   0.14
    25   1     0.09  -0.07  -0.07    -0.06  -0.02   0.02    -0.08  -0.21  -0.08
    26   1     0.02  -0.12   0.09    -0.21  -0.15  -0.06     0.03  -0.11   0.03
                      4                      5                      6
                      A                      A                      A
 Frequencies --     90.1031               124.8626               162.8615
 Red. masses --      3.2288                10.2954                 1.1092
 Frc consts  --      0.0154                 0.0946                 0.0173
 IR Inten    --      2.6671                 1.0490                 0.0367
  Atom  AN      X      Y      Z        X      Y      Z        X      Y      Z
     1   6     0.03  -0.00  -0.01     0.02  -0.05  -0.02    -0.01  -0.02  -0.01
     2   6    -0.08  -0.02  -0.01     0.05   0.07  -0.07    -0.02  -0.01  -0.00
     3   6     0.00  -0.02  -0.04    -0.01  -0.07   0.07     0.01   0.00   0.01
     4   6    -0.10  -0.02  -0.03     0.07   0.08  -0.19    -0.02  -0.01  -0.00
     5   6     0.18   0.13   0.09    -0.04  -0.03  -0.02     0.02   0.02   0.02
     6   6     0.16   0.11   0.07    -0.05  -0.04   0.04     0.04   0.03   0.03
     7   6    -0.02  -0.04  -0.08    -0.01  -0.06   0.08     0.00   0.00  -0.01
     8   1    -0.03  -0.07  -0.10     0.10   0.03   0.10     0.01   0.00  -0.01
     9   1    -0.02   0.00  -0.11    -0.04  -0.13   0.17    -0.01   0.01  -0.01
    10   6    -0.01  -0.02  -0.04    -0.09  -0.03  -0.09    -0.01   0.01  -0.02
    11   1     0.01  -0.00  -0.02    -0.13  -0.01  -0.25    -0.01   0.02  -0.03
    12   1     0.01  -0.01  -0.04    -0.25   0.02  -0.03    -0.02   0.03  -0.01
    13   6    -0.05  -0.02   0.00     0.04  -0.10  -0.11    -0.01   0.00  -0.00
    14   8    -0.04  -0.02   0.06     0.16  -0.43   0.06    -0.01   0.01   0.01
    15   1    -0.15  -0.04  -0.07     0.10   0.09  -0.16    -0.02  -0.01  -0.01
    16   1    -0.12  -0.04  -0.03     0.11  -0.05   0.04    -0.03  -0.01  -0.01
    17   6    -0.08  -0.09  -0.09     0.03  -0.09   0.04    -0.03  -0.03  -0.02
    18   1    -0.18  -0.15  -0.03     0.04  -0.11   0.04    -0.05  -0.06   0.01
    19   1    -0.08  -0.13  -0.21     0.04  -0.10   0.03    -0.04  -0.03  -0.06
    20  17     0.03   0.04   0.07    -0.13   0.31   0.09     0.01  -0.01   0.00
    21   6    -0.06  -0.08  -0.07     0.13  -0.00  -0.06     0.01  -0.00  -0.01
    22   1    -0.08  -0.11  -0.37     0.19  -0.03   0.09    -0.07   0.16   0.54
    23   1     0.09   0.05   0.04     0.04  -0.01  -0.16    -0.35  -0.31  -0.27
    24   1    -0.27  -0.25   0.06     0.28   0.06  -0.14     0.49   0.19  -0.27
    25   1     0.27   0.21   0.14    -0.10  -0.03   0.06     0.07   0.06   0.05
    26   1     0.29   0.23   0.17    -0.06   0.00  -0.04     0.03   0.03   0.02
                      7                      8                      9
                      A                      A                      A
 Frequencies --    171.0150               196.2615               205.3781
 Red. masses --      2.7050                 3.5439                 3.0032
 Frc consts  --      0.0466                 0.0804                 0.0746
 IR Inten    --      0.8279                 6.6195                 0.2210
  Atom  AN      X      Y      Z        X      Y      Z        X      Y      Z
     1   6     0.02  -0.05  -0.01    -0.05  -0.05  -0.05     0.10   0.04   0.05
     2   6     0.03   0.02   0.06     0.23   0.13   0.13     0.10   0.07   0.07
     3   6    -0.03  -0.07   0.06    -0.07  -0.07  -0.10     0.05   0.01   0.02
     4   6    -0.01   0.01   0.05     0.11   0.09   0.12    -0.06   0.03   0.02
     5   6    -0.01  -0.00   0.01     0.03  -0.00  -0.01     0.06   0.01   0.02
     6   6    -0.03  -0.03   0.05     0.02  -0.02  -0.04     0.03  -0.02   0.00
     7   6     0.03   0.02   0.01    -0.06  -0.06  -0.08    -0.05  -0.06  -0.10
     8   1     0.19   0.07   0.00    -0.15  -0.13  -0.11    -0.05  -0.18  -0.17
     9   1     0.04  -0.03   0.06     0.01   0.01  -0.18    -0.12   0.05  -0.18
    10   6    -0.13   0.20  -0.13    -0.01  -0.03   0.08    -0.05  -0.03  -0.04
    11   1    -0.12   0.31  -0.41     0.02  -0.03   0.17    -0.01   0.00  -0.03
    12   1    -0.36   0.36   0.02     0.10  -0.05   0.05    -0.04  -0.02  -0.04
    13   6    -0.06   0.06  -0.02    -0.03   0.00   0.07    -0.12  -0.03  -0.00
    14   8    -0.04   0.02   0.01    -0.04  -0.00  -0.00    -0.11  -0.03   0.03
    15   1     0.05   0.00   0.06     0.23   0.16   0.22     0.01   0.07   0.08
    16   1     0.08   0.07   0.07     0.46   0.23   0.24     0.28   0.16   0.15
    17   6    -0.01  -0.10   0.02    -0.12  -0.10  -0.12     0.17   0.12   0.10
    18   1    -0.00  -0.12   0.03    -0.18  -0.12  -0.09     0.30   0.26   0.00
    19   1    -0.00  -0.11   0.02    -0.11  -0.12  -0.16     0.20   0.14   0.30
    20  17     0.03  -0.05  -0.00    -0.03   0.02  -0.03    -0.02   0.01  -0.03
    21   6     0.14  -0.01  -0.08     0.02   0.03   0.05    -0.04  -0.10  -0.08
    22   1     0.25  -0.12  -0.19     0.08  -0.00   0.13    -0.19   0.02  -0.07
    23   1     0.22   0.17  -0.09     0.05   0.03   0.09    -0.18  -0.21  -0.19
    24   1     0.08  -0.04  -0.05     0.01   0.16   0.03     0.10  -0.27  -0.12
    25   1    -0.04   0.01   0.08     0.09   0.02  -0.02    -0.04  -0.10  -0.05
    26   1     0.00   0.05   0.01     0.12   0.06   0.06    -0.00  -0.06  -0.02
                     10                     11                     12
                      A                      A                      A
 Frequencies --    276.6069               307.1379               347.7565
 Red. masses --      2.4298                 3.4008                 2.7271
 Frc consts  --      0.1095                 0.1890                 0.1943
 IR Inten    --      0.8058                 3.2108                 5.8739
  Atom  AN      X      Y      Z        X      Y      Z        X      Y      Z
     1   6     0.02  -0.01  -0.08     0.16   0.12   0.04     0.04   0.10   0.13
     2   6     0.05   0.02   0.05    -0.08  -0.00  -0.03     0.12  -0.00   0.03
     3   6     0.05   0.02  -0.04    -0.12  -0.14  -0.10    -0.05  -0.02  -0.05
     4   6    -0.08  -0.01  -0.03     0.09   0.05   0.08    -0.05  -0.05  -0.10
     5   6     0.04   0.00  -0.08     0.12   0.10   0.02     0.00   0.02   0.09
     6   6     0.05   0.04  -0.05    -0.10  -0.09  -0.10    -0.08  -0.08  -0.06
     7   6     0.08  -0.01   0.16    -0.01  -0.06   0.07     0.05   0.04   0.04
     8   1     0.18   0.30   0.33     0.01   0.07   0.14     0.09   0.22   0.15
     9   1     0.11  -0.27   0.41     0.18  -0.18   0.11     0.10  -0.13   0.19
    10   6    -0.04  -0.01  -0.06    -0.07   0.08   0.07     0.07  -0.04  -0.06
    11   1    -0.01   0.04  -0.11    -0.07   0.15  -0.11     0.06  -0.11   0.09
    12   1    -0.18  -0.05  -0.05    -0.20   0.18   0.16     0.13  -0.18  -0.15
    13   6    -0.08  -0.01  -0.05     0.05   0.03   0.06     0.00   0.02  -0.08
    14   8    -0.06  -0.03   0.05     0.04  -0.03  -0.09     0.02   0.07   0.11
    15   1    -0.01  -0.01  -0.00     0.05   0.04   0.06    -0.00  -0.07  -0.10
    16   1     0.20   0.07   0.12    -0.24  -0.04  -0.12     0.29   0.03   0.14
    17   6     0.05   0.00  -0.08     0.03  -0.01  -0.04    -0.10   0.01   0.02
    18   1     0.09  -0.00  -0.09    -0.08   0.12  -0.05    -0.39  -0.03   0.13
    19   1     0.05   0.02  -0.06     0.15  -0.14  -0.03    -0.09  -0.09  -0.24
    20  17    -0.01  -0.02   0.00     0.01   0.01   0.00    -0.01  -0.01  -0.00
    21   6    -0.08   0.03   0.12    -0.09  -0.04   0.02     0.01  -0.00  -0.08
    22   1    -0.15   0.09   0.16    -0.34   0.18   0.03    -0.04   0.03  -0.15
    23   1    -0.00  -0.13   0.28    -0.22  -0.27  -0.01    -0.11   0.05  -0.25
    24   1    -0.20   0.16   0.15    -0.01  -0.19   0.01     0.15  -0.23  -0.10
    25   1     0.08   0.08  -0.02    -0.16  -0.13  -0.12    -0.11  -0.14  -0.11
    26   1     0.04   0.02  -0.09     0.14   0.14   0.03     0.00  -0.04   0.11
                     13                     14                     15
                      A                      A                      A
 Frequencies --    387.1931               404.6472               434.6251
 Red. masses --      2.0284                 2.2888                 3.8587
 Frc consts  --      0.1792                 0.2208                 0.4295
 IR Inten    --     13.8242                 7.5808                 6.3477
  Atom  AN      X      Y      Z        X      Y      Z        X      Y      Z
     1   6     0.10   0.05  -0.05    -0.06  -0.04  -0.07     0.00  -0.02  -0.04
     2   6     0.05  -0.02  -0.01     0.08  -0.05  -0.03    -0.12   0.14   0.13
     3   6     0.04  -0.00   0.14    -0.11  -0.13  -0.01    -0.05  -0.06   0.03
     4   6    -0.00  -0.03  -0.03     0.00  -0.07  -0.07    -0.05   0.18  -0.11
     5   6    -0.03   0.05  -0.08     0.02   0.09   0.02     0.01   0.05  -0.00
     6   6    -0.09   0.01   0.05    -0.06   0.02   0.04    -0.05  -0.00   0.04
     7   6    -0.01  -0.02  -0.06    -0.01  -0.05  -0.01    -0.00   0.02  -0.04
     8   1     0.01  -0.23  -0.20     0.02  -0.05  -0.02     0.01  -0.05  -0.09
     9   1    -0.12   0.18  -0.20     0.06  -0.06  -0.03     0.03   0.08  -0.11
    10   6     0.02   0.00  -0.03     0.02  -0.01  -0.03     0.05   0.01  -0.00
    11   1     0.00  -0.00  -0.07    -0.02  -0.03  -0.09     0.13  -0.08   0.46
    12   1     0.02   0.04  -0.01    -0.01   0.03  -0.00     0.27  -0.36  -0.26
    13   6     0.02  -0.01  -0.01     0.06  -0.01  -0.02    -0.02   0.20  -0.16
    14   8     0.01   0.05   0.04     0.04   0.11   0.09     0.09  -0.11  -0.02
    15   1    -0.00  -0.03  -0.02    -0.05  -0.08  -0.09     0.11  -0.00  -0.18
    16   1     0.08  -0.01   0.02     0.09  -0.07  -0.01    -0.06   0.14   0.18
    17   6     0.05  -0.10   0.01     0.02  -0.03   0.04     0.02  -0.05   0.02
    18   1    -0.16  -0.39   0.19     0.44   0.29  -0.23     0.18   0.04  -0.06
    19   1     0.07  -0.23  -0.36     0.11   0.05   0.58     0.08  -0.05   0.20
    20  17    -0.00   0.01  -0.00    -0.01   0.02  -0.01     0.02  -0.11   0.04
    21   6    -0.06   0.01   0.06    -0.03   0.02   0.02    -0.01  -0.00   0.02
    22   1    -0.22   0.14   0.06     0.00   0.01   0.09    -0.03   0.02   0.05
    23   1    -0.04  -0.18   0.18     0.01  -0.01   0.07     0.01  -0.06   0.07
    24   1    -0.16   0.03   0.10    -0.06   0.14   0.01    -0.05   0.05   0.02
    25   1    -0.27  -0.01   0.05    -0.04   0.12   0.13    -0.08   0.04   0.08
    26   1    -0.13   0.08  -0.19     0.13   0.24   0.08     0.04   0.14  -0.00
                     16                     17                     18
                      A                      A                      A
 Frequencies --    538.1064               544.7570               554.1586
 Red. masses --      2.5211                 2.4975                 3.4650
 Frc consts  --      0.4301                 0.4367                 0.6269
 IR Inten    --      3.5624                14.3109                 4.4723
  Atom  AN      X      Y      Z        X      Y      Z        X      Y      Z
     1   6     0.08   0.09   0.07     0.00   0.06   0.02    -0.13   0.08   0.00
     2   6     0.01   0.02   0.01    -0.08  -0.05  -0.04     0.00   0.07   0.05
     3   6    -0.07  -0.09  -0.07    -0.03  -0.09   0.00     0.11  -0.08   0.04
     4   6    -0.00   0.02  -0.07     0.10  -0.01   0.16    -0.09   0.04  -0.01
     5   6    -0.12  -0.11  -0.08    -0.06  -0.01  -0.02    -0.00   0.03   0.02
     6   6     0.13   0.12   0.07     0.01   0.03   0.05     0.01  -0.02  -0.02
     7   6    -0.04  -0.09   0.00     0.09   0.00  -0.06     0.18  -0.18  -0.02
     8   1    -0.10  -0.11   0.01     0.26   0.17   0.00     0.19  -0.26  -0.07
     9   1     0.04  -0.08  -0.04     0.09  -0.17   0.11     0.18  -0.11  -0.09
    10   6    -0.04  -0.01   0.04     0.06  -0.02  -0.15     0.10  -0.02   0.01
    11   1    -0.04   0.04  -0.13     0.14  -0.08   0.25     0.18   0.18  -0.35
    12   1    -0.16   0.05   0.10     0.30  -0.24  -0.33    -0.15   0.23   0.22
    13   6     0.04   0.03  -0.02    -0.08  -0.01  -0.01     0.02  -0.04   0.05
    14   8     0.05   0.04   0.02    -0.08  -0.03   0.02    -0.00  -0.04  -0.08
    15   1    -0.03  -0.03  -0.11     0.36   0.10   0.34    -0.21   0.04  -0.06
    16   1     0.00  -0.01   0.02    -0.04   0.01  -0.04    -0.02   0.08   0.04
    17   6    -0.00   0.01   0.00    -0.01  -0.04   0.05    -0.04  -0.00   0.08
    18   1    -0.20   0.22  -0.01    -0.01   0.07   0.01    -0.03  -0.05   0.09
    19   1     0.14  -0.16  -0.00     0.08  -0.12   0.11    -0.10   0.05   0.02
    20  17    -0.00  -0.02   0.01     0.02   0.04  -0.01    -0.01  -0.02   0.01
    21   6     0.00   0.03  -0.00    -0.03   0.06  -0.02    -0.11   0.19  -0.08
    22   1    -0.07   0.07  -0.07    -0.06   0.08  -0.03    -0.06   0.14  -0.08
    23   1    -0.03   0.02  -0.03    -0.04   0.05  -0.02    -0.13   0.27  -0.13
    24   1     0.02  -0.10   0.01    -0.03   0.03  -0.01    -0.08   0.19  -0.10
    25   1     0.36   0.33   0.23     0.05   0.15   0.15    -0.13  -0.03  -0.01
    26   1    -0.36  -0.35  -0.24    -0.12  -0.06  -0.06     0.07  -0.05   0.12
                     19                     20                     21
                      A                      A                      A
 Frequencies --    577.1608               667.5405               704.8484
 Red. masses --      3.0052                 3.6214                 1.8181
 Frc consts  --      0.5898                 0.9508                 0.5322
 IR Inten    --      7.4853                 1.3352                20.6526
  Atom  AN      X      Y      Z        X      Y      Z        X      Y      Z
     1   6     0.06   0.01   0.01    -0.04   0.05  -0.03     0.01  -0.00   0.02
     2   6     0.12   0.00   0.03     0.09  -0.11  -0.06    -0.05  -0.06  -0.10
     3   6    -0.08  -0.04  -0.02     0.02  -0.03   0.03     0.00  -0.01  -0.01
     4   6    -0.16  -0.09   0.02     0.05  -0.10  -0.03    -0.03  -0.03  -0.09
     5   6    -0.04   0.00  -0.02     0.13  -0.10  -0.04    -0.04   0.03   0.01
     6   6    -0.02   0.02   0.04     0.10  -0.13   0.04    -0.03   0.04  -0.03
     7   6     0.08   0.18  -0.03    -0.04   0.05   0.05     0.07   0.01   0.02
     8   1     0.14   0.19  -0.04    -0.10  -0.09  -0.03    -0.03  -0.17  -0.07
     9   1     0.18   0.13  -0.02     0.03   0.18  -0.11     0.16   0.17  -0.17
    10   6     0.09   0.11   0.05    -0.10   0.13   0.14     0.05   0.06   0.12
    11   1     0.07   0.03   0.21    -0.03   0.08   0.48     0.10   0.16  -0.01
    12   1     0.34   0.13   0.00     0.02  -0.20  -0.07    -0.05   0.13   0.19
    13   6    -0.00  -0.05   0.10    -0.09   0.14  -0.06    -0.06   0.01  -0.02
    14   8    -0.03  -0.10  -0.13    -0.02  -0.04   0.04    -0.05  -0.03  -0.01
    15   1    -0.60  -0.10  -0.16    -0.04  -0.22  -0.16     0.59   0.06   0.20
    16   1    -0.02   0.00  -0.06    -0.01  -0.17  -0.10     0.50   0.07   0.21
    17   6    -0.00  -0.04   0.00     0.02  -0.03   0.03    -0.01   0.01  -0.01
    18   1     0.03   0.09  -0.06     0.09  -0.13   0.04    -0.02   0.08  -0.04
    19   1     0.11  -0.13   0.13     0.07  -0.10   0.00    -0.03   0.04   0.03
    20  17    -0.02   0.01  -0.02    -0.00   0.02  -0.01     0.01  -0.00   0.02
    21   6     0.02  -0.03   0.02    -0.09   0.17  -0.08     0.02  -0.04   0.02
    22   1    -0.03   0.01   0.01    -0.09   0.17  -0.08     0.01  -0.03   0.01
    23   1     0.02  -0.09   0.04    -0.10   0.21  -0.10     0.02  -0.04   0.02
    24   1     0.01  -0.06   0.03    -0.10   0.19  -0.09     0.03  -0.05   0.02
    25   1     0.10   0.16   0.15     0.12  -0.16   0.02    -0.00   0.08   0.01
    26   1    -0.09   0.02  -0.08     0.16  -0.21   0.03    -0.03   0.06   0.01
                     22                     23                     24
                      A                      A                      A
 Frequencies --    711.6911               729.2947               811.5538
 Red. masses --      2.9192                 4.6431                 1.7933
 Frc consts  --      0.8712                 1.4550                 0.6959
 IR Inten    --     26.6973                42.9144                 1.2584
  Atom  AN      X      Y      Z        X      Y      Z        X      Y      Z
     1   6     0.03   0.04  -0.02     0.01   0.01  -0.00     0.05   0.05   0.04
     2   6    -0.07   0.08  -0.07    -0.17  -0.10   0.31     0.01   0.00   0.05
     3   6    -0.06   0.01   0.03    -0.02   0.01   0.01     0.05   0.05   0.04
     4   6    -0.05   0.08  -0.07    -0.18  -0.15   0.11     0.07   0.02   0.01
     5   6     0.09  -0.08  -0.04     0.03  -0.03  -0.01    -0.05  -0.04  -0.03
     6   6     0.03  -0.13   0.07     0.01  -0.04   0.02    -0.05  -0.05  -0.04
     7   6    -0.06   0.17  -0.00    -0.05   0.01   0.04     0.05   0.04   0.06
     8   1    -0.04   0.22   0.03    -0.13  -0.08  -0.00    -0.05  -0.24  -0.09
     9   1    -0.14   0.11   0.09    -0.08   0.10  -0.04    -0.11   0.30  -0.13
    10   6     0.01  -0.06  -0.03     0.00  -0.03   0.00     0.03  -0.05  -0.01
    11   1    -0.20  -0.21  -0.22    -0.08  -0.07  -0.13     0.04   0.01  -0.15
    12   1     0.09   0.20   0.09    -0.12  -0.02   0.04    -0.17  -0.02   0.06
    13   6     0.06  -0.16   0.06     0.09   0.03  -0.06    -0.04  -0.01  -0.04
    14   8    -0.01   0.04  -0.02     0.12   0.00  -0.05    -0.04  -0.01   0.03
    15   1     0.28   0.31   0.22     0.38  -0.32   0.21    -0.07  -0.06  -0.11
    16   1     0.29   0.17   0.14     0.27   0.19   0.47    -0.27  -0.10  -0.08
    17   6    -0.01  -0.05   0.00    -0.01  -0.01  -0.02    -0.08  -0.06  -0.08
    18   1     0.14  -0.03  -0.06     0.03  -0.00  -0.03     0.16   0.16  -0.25
    19   1     0.12  -0.15   0.14     0.02  -0.02   0.03    -0.05   0.02   0.27
    20  17     0.00  -0.04   0.04     0.04   0.10  -0.12     0.00   0.00  -0.01
    21   6    -0.04   0.09  -0.05    -0.01   0.03  -0.01     0.02   0.02   0.02
    22   1    -0.10   0.14  -0.06    -0.03   0.04  -0.02    -0.14   0.13  -0.12
    23   1    -0.06   0.06  -0.05    -0.02   0.02  -0.02    -0.08  -0.05  -0.06
    24   1    -0.05   0.07  -0.04    -0.01   0.01  -0.01     0.06  -0.23   0.05
    25   1     0.18  -0.04   0.13     0.07  -0.01   0.03     0.25   0.23   0.16
    26   1     0.13  -0.07  -0.01     0.05  -0.03   0.00     0.23   0.21   0.17
                     25                     26                     27
                      A                      A                      A
 Frequencies --    854.5237               884.7615               895.6174
 Red. masses --      2.6851                 2.4898                 1.9608
 Frc consts  --      1.1552                 1.1483                 0.9267
 IR Inten    --     36.5529                 4.7689                 5.0885
  Atom  AN      X      Y      Z        X      Y      Z        X      Y      Z
     1   6    -0.02  -0.02  -0.04     0.01  -0.00  -0.05    -0.03  -0.02   0.04
     2   6    -0.04  -0.02   0.17     0.03   0.02  -0.07     0.01   0.02  -0.02
     3   6    -0.07  -0.03  -0.03    -0.07  -0.02   0.05     0.01  -0.01  -0.05
     4   6     0.15   0.05  -0.13    -0.04  -0.01   0.09    -0.02   0.00   0.05
     5   6     0.07   0.04   0.01     0.13   0.02  -0.04     0.00   0.08   0.14
     6   6     0.01  -0.01   0.04    -0.03  -0.11   0.12    -0.03   0.02  -0.11
     7   6     0.04   0.09  -0.02     0.05  -0.01   0.08     0.03   0.07   0.07
     8   1    -0.01   0.08  -0.00    -0.03  -0.29  -0.08    -0.09  -0.21  -0.08
     9   1     0.14   0.06  -0.03    -0.03   0.22  -0.13    -0.05   0.32  -0.15
    10   6     0.06  -0.04   0.06     0.06  -0.04  -0.05    -0.01  -0.03  -0.03
    11   1     0.02   0.01  -0.19     0.10   0.03  -0.12    -0.09  -0.09  -0.07
    12   1    -0.00   0.23   0.21    -0.18  -0.13  -0.04    -0.14  -0.12  -0.05
    13   6    -0.07  -0.09  -0.02    -0.01   0.04  -0.05     0.01  -0.01  -0.04
    14   8    -0.11  -0.00   0.04     0.02  -0.01  -0.01     0.01   0.00   0.00
    15   1     0.16  -0.18  -0.29    -0.13   0.08   0.12    -0.08   0.06   0.07
    16   1    -0.39  -0.28   0.07     0.02   0.11  -0.12    -0.01   0.06  -0.06
    17   6     0.01   0.04   0.05    -0.08   0.16  -0.08     0.11  -0.09  -0.03
    18   1    -0.15  -0.01   0.12    -0.27   0.31  -0.07     0.11  -0.10  -0.02
    19   1     0.04  -0.04  -0.10    -0.10   0.18  -0.11     0.22  -0.22  -0.02
    20  17     0.01   0.02  -0.04    -0.01  -0.01   0.02    -0.00  -0.00   0.01
    21   6    -0.01  -0.02  -0.02     0.01  -0.05  -0.01    -0.06   0.02  -0.01
    22   1     0.10  -0.10   0.10     0.12  -0.13   0.09     0.11  -0.11   0.07
    23   1     0.08   0.01   0.07     0.08   0.00   0.05    -0.00   0.18  -0.03
    24   1    -0.06   0.19  -0.04    -0.00   0.12  -0.03    -0.02   0.17  -0.06
    25   1    -0.09  -0.09  -0.01    -0.02   0.04   0.24     0.26   0.13  -0.06
    26   1    -0.26  -0.20  -0.23    -0.25  -0.13  -0.37    -0.39  -0.43  -0.08
                     28                     29                     30
                      A                      A                      A
 Frequencies --    912.6399               923.2396               943.6265
 Red. masses --      1.4356                 2.8769                 1.8194
 Frc consts  --      0.7045                 1.4448                 0.9545
 IR Inten    --     28.1618                 4.0920                 5.2385
  Atom  AN      X      Y      Z        X      Y      Z        X      Y      Z
     1   6    -0.03  -0.02  -0.03     0.02   0.04  -0.04     0.01   0.01   0.01
     2   6    -0.00   0.00   0.00     0.01   0.00  -0.02    -0.01  -0.02   0.03
     3   6    -0.01  -0.03  -0.02     0.07   0.01  -0.03     0.08   0.05   0.07
     4   6     0.00   0.00   0.00    -0.02  -0.01   0.03     0.01   0.00  -0.07
     5   6    -0.00  -0.01  -0.04     0.10   0.04  -0.08     0.06   0.06   0.04
     6   6    -0.06  -0.05  -0.07     0.03   0.05  -0.13    -0.08  -0.08  -0.04
     7   6     0.00   0.01  -0.00    -0.00   0.04   0.01    -0.02  -0.08  -0.06
     8   1    -0.02  -0.02  -0.01    -0.12   0.02   0.02     0.20   0.13   0.02
     9   1     0.01   0.02  -0.02    -0.03   0.09  -0.02    -0.11  -0.25   0.14
    10   6    -0.02  -0.00   0.00    -0.03  -0.03   0.01    -0.06   0.05   0.01
    11   1    -0.04  -0.03   0.01    -0.08  -0.06  -0.02     0.01   0.05   0.22
    12   1    -0.02  -0.03  -0.01    -0.12  -0.08   0.01     0.23   0.07  -0.05
    13   6     0.00  -0.01  -0.00     0.00   0.02  -0.02     0.02  -0.01   0.07
    14   8     0.00   0.00   0.00     0.02   0.00   0.00     0.00   0.01  -0.01
    15   1    -0.01   0.00   0.00    -0.04   0.02   0.04     0.08  -0.04  -0.08
    16   1    -0.00   0.01  -0.00     0.01   0.04  -0.04     0.06  -0.07   0.10
    17   6     0.06   0.07   0.12    -0.19  -0.10   0.24    -0.05  -0.01  -0.06
    18   1    -0.23  -0.10   0.28    -0.09   0.12   0.13     0.10   0.06  -0.14
    19   1     0.02  -0.01  -0.24    -0.23  -0.00   0.44    -0.09   0.10   0.10
    20  17     0.00   0.00  -0.00    -0.00  -0.00   0.00     0.00   0.00  -0.01
    21   6    -0.00  -0.03  -0.02     0.07  -0.04  -0.03    -0.00  -0.00   0.01
    22   1     0.05  -0.06   0.07    -0.11   0.12   0.08     0.03  -0.03  -0.00
    23   1     0.05  -0.05   0.06     0.16  -0.36   0.23    -0.01   0.05  -0.02
    24   1    -0.05   0.11  -0.02    -0.14   0.07   0.05     0.04  -0.03  -0.00
    25   1     0.46   0.49   0.32    -0.13   0.06  -0.12     0.30   0.36   0.28
    26   1     0.29   0.23   0.18    -0.14  -0.34  -0.21    -0.35  -0.28  -0.26
                     31                     32                     33
                      A                      A                      A
 Frequencies --    956.4539               960.4925               991.7097
 Red. masses --      1.8317                 1.3628                 1.5680
 Frc consts  --      0.9873                 0.7407                 0.9086
 IR Inten    --      8.5913                 7.9344                 0.8019
  Atom  AN      X      Y      Z        X      Y      Z        X      Y      Z
     1   6     0.02  -0.01  -0.00     0.01  -0.00  -0.00    -0.04   0.04   0.00
     2   6     0.07   0.00  -0.03    -0.09  -0.04  -0.04     0.00  -0.00  -0.01
     3   6    -0.03   0.08  -0.01    -0.01   0.02  -0.01    -0.01  -0.01   0.01
     4   6    -0.05  -0.03   0.03     0.10   0.02   0.05     0.00  -0.00   0.01
     5   6    -0.01   0.01   0.04    -0.01   0.00   0.01     0.10  -0.04  -0.09
     6   6    -0.02  -0.05   0.01    -0.00  -0.02   0.01    -0.03   0.06  -0.03
     7   6    -0.08  -0.02  -0.06    -0.02   0.00  -0.02    -0.03   0.01  -0.01
     8   1    -0.27   0.25   0.16    -0.09   0.07   0.05    -0.09   0.07   0.04
     9   1    -0.13  -0.23   0.17    -0.05  -0.06   0.06    -0.05  -0.03   0.04
    10   6     0.14  -0.05   0.02     0.05  -0.02   0.00     0.04  -0.02   0.00
    11   1     0.30   0.23  -0.30     0.10   0.07  -0.12     0.06   0.04  -0.09
    12   1    -0.08   0.19   0.20    -0.04   0.06   0.07    -0.01   0.06   0.06
    13   6    -0.04   0.11  -0.03    -0.02   0.03  -0.01    -0.01   0.03  -0.01
    14   8     0.00  -0.03  -0.00    -0.01  -0.01   0.01    -0.00  -0.01   0.00
    15   1     0.24  -0.04   0.13    -0.56  -0.15  -0.33    -0.01  -0.03  -0.01
    16   1    -0.24  -0.04  -0.23     0.56   0.17   0.30     0.01   0.01  -0.02
    17   6     0.01  -0.04   0.02     0.00  -0.01   0.01    -0.00  -0.01   0.02
    18   1     0.14  -0.16   0.03     0.04  -0.05   0.01     0.11  -0.14   0.03
    19   1     0.06  -0.09   0.04     0.02  -0.03   0.02     0.10  -0.12   0.03
    20  17    -0.00  -0.00   0.01     0.00   0.00  -0.00    -0.00   0.00   0.00
    21   6     0.01   0.02  -0.02     0.00   0.01  -0.01    -0.05  -0.03   0.11
    22   1    -0.07   0.08   0.00    -0.02   0.03   0.01     0.24  -0.31  -0.08
    23   1     0.03  -0.07   0.04     0.01  -0.03   0.02    -0.17   0.39  -0.25
    24   1    -0.07   0.05   0.00    -0.03   0.02   0.00     0.32  -0.26  -0.02
    25   1     0.25  -0.00   0.03     0.09  -0.01   0.01    -0.34   0.26   0.14
    26   1    -0.11   0.01  -0.06    -0.04   0.01  -0.02     0.16  -0.21   0.01
                     34                     35                     36
                      A                      A                      A
 Frequencies --   1033.8312              1043.7807              1067.3381
 Red. masses --      1.4227                 1.4050                 2.1306
 Frc consts  --      0.8959                 0.9019                 1.4301
 IR Inten    --     12.0259                 4.4831                 4.3005
  Atom  AN      X      Y      Z        X      Y      Z        X      Y      Z
     1   6    -0.02   0.01  -0.02     0.06   0.06   0.04    -0.04  -0.02  -0.03
     2   6     0.00   0.00  -0.00     0.00  -0.00   0.00    -0.01  -0.01   0.02
     3   6     0.01  -0.00  -0.02     0.04   0.03   0.02    -0.05  -0.00  -0.03
     4   6    -0.01  -0.00   0.01    -0.00   0.00  -0.02     0.01   0.01  -0.06
     5   6    -0.04   0.09  -0.04    -0.04  -0.00  -0.04     0.02   0.02  -0.02
     6   6     0.06  -0.07   0.01     0.02  -0.02  -0.01     0.03   0.01  -0.03
     7   6     0.04   0.02  -0.03    -0.02  -0.02   0.01    -0.08  -0.07   0.16
     8   1     0.01   0.05  -0.01     0.01  -0.02   0.01    -0.20  -0.32   0.03
     9   1     0.16  -0.02  -0.04    -0.17   0.01   0.05    -0.36   0.19   0.02
    10   6    -0.04  -0.02   0.03     0.01   0.02  -0.01     0.09   0.11  -0.12
    11   1    -0.12  -0.09  -0.01     0.07   0.06   0.03     0.34   0.27   0.15
    12   1    -0.11  -0.07   0.02     0.06   0.03  -0.02     0.22   0.01  -0.21
    13   6     0.00  -0.00  -0.02     0.00   0.01   0.03     0.01  -0.05   0.09
    14   8     0.01   0.01   0.01    -0.00  -0.00  -0.00    -0.03  -0.00  -0.02
    15   1    -0.02   0.01   0.02     0.03  -0.01  -0.02     0.03   0.08  -0.01
    16   1    -0.00   0.03  -0.02     0.01  -0.03   0.02     0.01  -0.13   0.11
    17   6    -0.02  -0.01   0.05    -0.03  -0.04   0.01    -0.00   0.01   0.06
    18   1     0.08  -0.14   0.07    -0.15   0.27  -0.07    -0.02  -0.08   0.09
    19   1    -0.03  -0.00   0.04     0.17  -0.23   0.13     0.03  -0.05  -0.00
    20  17    -0.00  -0.00   0.00     0.00   0.00  -0.00     0.00   0.00  -0.01
    21   6    -0.01   0.00   0.08    -0.09  -0.07  -0.03     0.03   0.02   0.04
    22   1     0.06  -0.10  -0.11     0.32  -0.36   0.27    -0.07   0.08  -0.12
    23   1    -0.14   0.19  -0.16     0.13   0.23   0.07    -0.08  -0.04  -0.07
    24   1     0.20  -0.26   0.03    -0.03   0.42  -0.16     0.07  -0.22   0.07
    25   1     0.36  -0.23  -0.13     0.07  -0.16  -0.13     0.24  -0.16  -0.19
    26   1    -0.26   0.47  -0.39     0.09   0.29  -0.00    -0.05   0.05  -0.11
                     37                     38                     39
                      A                      A                      A
 Frequencies --   1129.9497              1160.9734              1170.5407
 Red. masses --      1.3089                 1.2498                 1.5612
 Frc consts  --      0.9847                 0.9925                 1.2603
 IR Inten    --     12.2867                 7.2625                14.2270
  Atom  AN      X      Y      Z        X      Y      Z        X      Y      Z
     1   6    -0.04  -0.07  -0.04     0.05   0.02   0.03     0.08  -0.08   0.01
     2   6     0.01   0.00  -0.02     0.01   0.01  -0.02    -0.01  -0.01   0.02
     3   6     0.05  -0.03   0.02    -0.01  -0.09  -0.01     0.06  -0.04  -0.00
     4   6    -0.00  -0.00   0.01    -0.00  -0.00   0.02     0.01   0.00   0.01
     5   6     0.00   0.02   0.01    -0.01   0.00  -0.01     0.00  -0.01   0.02
     6   6     0.01   0.00  -0.02     0.02   0.02  -0.02    -0.01   0.01  -0.01
     7   6    -0.01   0.03  -0.01    -0.02   0.02   0.04    -0.06   0.02  -0.00
     8   1     0.19   0.04  -0.05     0.20  -0.08  -0.08    -0.32   0.11   0.12
     9   1    -0.33   0.04   0.11    -0.26   0.08   0.08     0.08  -0.03  -0.02
    10   6    -0.01  -0.04   0.01     0.02  -0.02  -0.02     0.04   0.05   0.02
    11   1    -0.09  -0.10  -0.07    -0.14  -0.18  -0.05     0.08   0.09   0.04
    12   1     0.11   0.17   0.09     0.24   0.27   0.08     0.03   0.01  -0.01
    13   6    -0.01   0.06   0.02    -0.01   0.05   0.01     0.00  -0.06  -0.09
    14   8     0.00  -0.01  -0.00    -0.01  -0.01  -0.00     0.00   0.01   0.01
    15   1     0.10  -0.19  -0.09     0.14  -0.29  -0.14    -0.20   0.33   0.18
    16   1     0.02   0.05  -0.04     0.00   0.16  -0.10    -0.03  -0.09   0.05
    17   6     0.04  -0.02   0.01     0.01  -0.01  -0.00     0.05  -0.07   0.01
    18   1    -0.49   0.54  -0.04     0.16  -0.20   0.03    -0.27   0.27  -0.01
    19   1     0.17  -0.18  -0.02    -0.41   0.47  -0.05    -0.36   0.40   0.00
    20  17    -0.00   0.00   0.00    -0.00  -0.00   0.00     0.00   0.00  -0.00
    21   6     0.02   0.04   0.03    -0.03  -0.01  -0.01    -0.05   0.04   0.00
    22   1    -0.08   0.10  -0.14     0.04  -0.05   0.05    -0.03   0.02  -0.05
    23   1    -0.11  -0.00  -0.10     0.03   0.08   0.01    -0.08   0.21  -0.11
    24   1     0.03  -0.15   0.06     0.01   0.09  -0.04     0.01   0.08  -0.04
    25   1    -0.04  -0.03  -0.05     0.07  -0.01  -0.05    -0.14   0.12   0.09
    26   1    -0.01   0.05  -0.02    -0.02   0.02  -0.03    -0.08   0.17  -0.13
                     40                     41                     42
                      A                      A                      A
 Frequencies --   1181.9179              1202.2814              1239.2882
 Red. masses --      1.9558                 1.1955                 2.1235
 Frc consts  --      1.6097                 1.0181                 1.9215
 IR Inten    --     72.0594                 6.3250                 2.5897
  Atom  AN      X      Y      Z        X      Y      Z        X      Y      Z
     1   6     0.03  -0.03   0.02     0.02  -0.03   0.00     0.12  -0.09  -0.05
     2   6     0.01  -0.02  -0.01    -0.01   0.05  -0.01     0.00  -0.00  -0.01
     3   6     0.01  -0.03  -0.04     0.01   0.04  -0.01    -0.12   0.12   0.03
     4   6    -0.01   0.02  -0.05     0.01  -0.01   0.01    -0.00   0.00  -0.00
     5   6    -0.01  -0.01   0.02     0.01  -0.02   0.01     0.07  -0.08  -0.00
     6   6     0.00  -0.01   0.02    -0.01  -0.00   0.01    -0.12   0.11   0.01
     7   6     0.05   0.06  -0.03    -0.00  -0.02   0.01     0.03  -0.03  -0.01
     8   1    -0.30   0.08   0.06    -0.26  -0.00   0.08     0.39  -0.10  -0.14
     9   1    -0.08   0.05   0.02     0.25  -0.03  -0.08     0.29  -0.07  -0.08
    10   6    -0.02  -0.06  -0.07     0.00   0.04  -0.02    -0.01  -0.03  -0.00
    11   1     0.06   0.00  -0.03     0.05   0.06   0.07     0.02   0.00  -0.03
    12   1    -0.52  -0.41  -0.13    -0.04  -0.11  -0.09    -0.11  -0.09  -0.01
    13   6     0.01   0.10   0.22     0.02  -0.08   0.01    -0.00   0.02   0.04
    14   8    -0.00  -0.01  -0.03    -0.02   0.01   0.00     0.00  -0.00  -0.00
    15   1     0.16  -0.13  -0.11     0.24  -0.51  -0.27     0.02  -0.02  -0.02
    16   1     0.07  -0.30   0.18    -0.02   0.54  -0.29     0.01  -0.08   0.04
    17   6     0.02  -0.02   0.00     0.00  -0.01   0.01    -0.00  -0.04   0.04
    18   1     0.01  -0.01   0.00    -0.06   0.06   0.00    -0.16   0.06   0.07
    19   1    -0.15   0.17  -0.02     0.03  -0.04   0.03    -0.13   0.12   0.12
    20  17     0.00   0.00  -0.01    -0.01  -0.00   0.01     0.00   0.00  -0.00
    21   6    -0.02   0.01  -0.01    -0.01   0.01  -0.00    -0.04   0.04   0.02
    22   1    -0.02   0.02  -0.01    -0.02   0.02  -0.02    -0.04   0.02  -0.11
    23   1    -0.02   0.08  -0.03    -0.02   0.04  -0.03    -0.10   0.23  -0.14
    24   1    -0.01   0.06  -0.02    -0.01   0.03  -0.01     0.05   0.09  -0.04
    25   1    -0.21   0.11   0.13    -0.08   0.06   0.06     0.46  -0.22  -0.32
    26   1    -0.06   0.13  -0.08    -0.03   0.08  -0.06     0.11  -0.16   0.04
                     43                     44                     45
                      A                      A                      A
 Frequencies --   1254.3372              1261.6032              1347.9965
 Red. masses --      1.5245                 1.2903                 1.5336
 Frc consts  --      1.4133                 1.2100                 1.6419
 IR Inten    --      0.8798                 8.6093                 9.4666
  Atom  AN      X      Y      Z        X      Y      Z        X      Y      Z
     1   6     0.03  -0.08   0.07    -0.01   0.02  -0.01     0.01  -0.02   0.01
     2   6     0.00  -0.01  -0.00     0.01  -0.00  -0.02    -0.01  -0.07   0.06
     3   6    -0.01   0.06  -0.08     0.04   0.01   0.03     0.01  -0.04   0.03
     4   6    -0.00   0.00   0.01    -0.01   0.01   0.01     0.04  -0.02  -0.07
     5   6     0.05  -0.09   0.05    -0.01   0.01  -0.01     0.02  -0.03   0.01
     6   6    -0.00   0.03  -0.03    -0.00  -0.01   0.00    -0.02   0.04  -0.02
     7   6     0.02  -0.04   0.04    -0.05  -0.04   0.04    -0.01  -0.02  -0.03
     8   1     0.17  -0.13  -0.06    -0.27  -0.06   0.09     0.03   0.05   0.01
     9   1    -0.03   0.04  -0.02     0.52  -0.08  -0.15    -0.25  -0.05   0.10
    10   6    -0.01  -0.01  -0.01     0.07   0.04  -0.06     0.10   0.08   0.03
[...]
 208347,-0.00009550,-0.00029223,0.00021273,-0.00004303,-0.00023833,-0.0
 0009244,0.00007638,-0.00012372,-0.00002518,-0.00072117,0.00058763,0.00
 031561,0.00001585,-0.00005542,-0.00005440,-0.00048889,0.00076501,0.000
 04964,-0.00036577,0.00011795,-0.00049839,0.00004119,-0.00001178,0.0000
 5910,0.00003462,-0.00000866,0.00003900,0.00003058,-0.00000034,0.000073
 36,-0.19093395,-0.12827041,0.03851977,-0.00657322,-0.00562557,0.002488
 87,0.20808631,0.01169620,0.01153538,-0.00239548,-0.00064356,0.00049093
 ,-0.00152230,-0.01741284,-0.01217350,0.00296066,-0.00014062,-0.0006860
 1,0.00006932,0.00126317,-0.00215577,-0.00264709,0.00236817,-0.00219447
 ,0.00235883,-0.00008307,0.00041553,0.00089636,0.00021685,0.00020346,0.
 00003483,-0.00017071,0.00022913,0.00001863,0.00010099,-0.00019566,0.00
 008870,-0.00015685,0.00022983,-0.00030466,0.00072246,-0.00036587,-0.00
 069807,0.00073808,0.00059609,0.00082214,-0.00020482,-0.00026250,-0.000
 20176,-0.00002162,-0.00006612,-0.00006204,0.00002166,-0.00007656,0.000
 08331,-0.12810897,-0.15379862,0.03513665,-0.00782334,-0.00643124,0.002
 63748,0.13866110,0.16446476,0.00991716,0.00924382,-0.00431945,-0.00061
 075,-0.00039445,-0.00144211,0.01398534,0.00923247,-0.00414502,-0.00027
 816,0.00009824,-0.00060442,0.00138221,-0.00006968,-0.00095113,-0.00028
 003,0.00149230,-0.00155775,0.00012749,-0.00060603,-0.00023069,-0.00007
 133,-0.00002962,-0.00005969,0.00007200,-0.00014803,0.00011624,-0.00009
 949,-0.00011514,0.00018687,-0.00001736,-0.00008762,-0.00002046,0.00017
 311,-0.00031307,0.00013707,-0.00077561,0.00060305,0.00055162,0.0002309
 5,-0.00012735,-0.00032405,-0.00001354,-0.00001739,0.00001103,-0.000024
 95,-0.00002073,-0.00006620,0.04154694,0.03832172,-0.04501274,-0.020703
 53,-0.01767002,0.00552945,-0.04244091,-0.03769180,0.05412403,0.0000600
 4,-0.00007373,-0.00033265,-0.03478029,-0.01024564,0.02868275,0.0000162
 7,-0.00006472,0.00030216,0.00813812,0.00092438,-0.00509458,0.00014018,
 -0.00006010,0.00005411,-0.00013831,-0.00011028,0.00011531,0.00001076,0
 .00004373,-0.00002228,0.00000149,-0.00002302,-0.00000397,-0.00001316,-
 0.00000189,-0.00000476,0.00112966,-0.00066006,-0.00004459,-0.00012706,
 -0.00023563,-0.00021561,-0.00002824,0.00006617,-0.00000622,-0.00637339
 ,-0.00112215,-0.00222743,0.00029890,0.00200611,0.00016427,0.00556621,0
 .00229302,0.00315822,0.00211255,-0.01038973,0.00909921,-0.00027294,-0.
 00019495,0.00013049,-0.00001799,0.00000206,-0.00002134,-0.00038719,-0.
 00013363,-0.00012620,0.02439656,0.00001876,-0.00014757,-0.00011147,-0.
 01276337,-0.09203624,0.06848498,-0.00015598,-0.00041059,0.00059728,-0.
 00665767,-0.02717830,0.03247345,0.00034543,-0.00021916,-0.00010690,-0.
 00045645,-0.00045274,-0.00025397,0.00013976,0.00017410,-0.00002601,-0.
 00003940,0.00017700,-0.00001071,-0.00017970,-0.00002565,-0.00005766,0.
 00090710,-0.00076043,0.00002279,-0.00007677,-0.00025299,-0.00028048,-0
 .00002712,0.00012739,-0.00003522,-0.00626224,0.00139787,0.00422096,0.0
 0334204,-0.00119634,-0.00114355,0.00395130,-0.00365810,-0.00035023,0.0
 0028574,-0.00039686,0.00253176,-0.00044497,0.00005193,0.00039045,0.000
 05224,0.00005968,-0.00005818,-0.00002783,-0.00034800,-0.00033374,0.018
 11529,0.12477047,0.00054690,-0.00015249,-0.00064588,0.02896191,0.06437
 126,-0.12262231,0.00042915,0.00067821,-0.00079994,0.00084248,0.0203523
 3,-0.00791460,-0.00017082,-0.00017296,0.00058876,0.00004292,0.00054425
 ,0.00083809,-0.00011033,-0.00023518,0.00007533,0.00003128,-0.00023193,
 0.00000735,0.00016802,0.00004079,0.00004260,-0.00082628,0.00063927,0.0
 0019819,0.00011696,0.00028164,0.00028500,0.00008819,0.00024137,0.00025
 415,0.00437462,-0.00366774,-0.00756474,-0.00493926,-0.00096836,0.00418
 295,0.00226148,0.00161819,0.00398564,0.00217184,0.02294490,-0.01622867
 ,0.00007290,-0.00017579,-0.00027440,-0.00011890,-0.00010877,0.00004691
 ,-0.00020697,0.00020389,0.00025542,-0.03378141,-0.10581426,0.14507574,
 -0.11943780,0.07302391,-0.02122327,0.00001451,0.00004517,0.00007083,-0
 .00311459,0.00070877,0.00265397,0.00001147,-0.00007491,-0.00002446,0.0
 0811933,-0.00080006,0.00233962,0.00381402,0.00276627,0.00337974,0.0005
 5304,0.00093332,-0.00070031,-0.00012049,0.00023560,-0.00000117,0.00005
 862,0.00001695,-0.00008320,0.00019144,-0.00018257,0.00003663,0.0000239
 4,0.00002262,-0.00004032,0.00003557,-0.00001849,-0.00001671,-0.0000559
 0,0.00007820,0.00014209,0.00005650,-0.00002020,-0.00006052,-0.00001973
 ,-0.00000961,-0.00002377,-0.00000072,-0.00001505,-0.00004882,-0.008396
 62,0.01683089,-0.00981679,0.00040282,0.00005678,-0.00003517,0.00079171
 ,-0.00042778,-0.00050117,-0.00005205,-0.00003691,-0.00002982,0.5612955
 0,0.07103532,-0.19060998,0.05159216,0.00015356,0.00031163,-0.00030920,
 0.00043788,-0.00073532,-0.00048050,-0.00000493,-0.00021324,0.00004867,
 0.01088944,-0.00942244,0.00762949,0.00190242,0.00342797,0.00364392,0.0
 0039768,0.00045635,0.00082874,0.00012560,-0.00003585,-0.00007529,-0.00
 015698,0.00015952,-0.00010737,0.00004393,-0.00004463,-0.00005622,-0.00
 002925,0.,-0.00000806,-0.00000501,0.00001893,-0.00001405,0.00006276,0.
 00008703,0.00010915,-0.00004278,-0.00005475,-0.00004016,-0.00000139,-0
 .00003075,0.00000201,-0.00000268,0.00000633,0.00003776,0.00527026,-0.0
 0784798,0.00215904,-0.00056482,0.00044304,0.00063339,-0.00027829,0.000
 20263,0.00030167,-0.00008399,-0.00024749,0.00026988,0.00490530,0.52498
 831,-0.01841721,0.04824220,-0.10547397,-0.00002624,-0.00006716,0.00000
 199,0.00251339,-0.00041460,-0.00440860,0.00003547,0.00007946,0.0000303
 4,-0.01277619,0.02454058,-0.00397685,0.00362109,0.00323844,-0.00091346
 ,0.00063172,-0.00053221,0.00170608,0.00046225,-0.00033397,-0.00004938,
 -0.00027731,0.00027420,0.00004888,-0.00011262,-0.00003458,-0.00000013,
 -0.00000321,-0.00001333,0.00004074,-0.00008397,0.00001651,0.00005728,-
 0.00002379,-0.00003879,-0.00007414,-0.00000856,0.00001587,0.00001678,0
 .00001550,-0.00000255,0.00001208,0.00001500,-0.00001416,0.00000415,0.0
 0561951,-0.01445984,0.01136214,-0.00039657,0.00004547,-0.00008662,0.00
 015619,0.00021767,0.00002276,-0.00001841,0.00002489,0.00003236,-0.0271
 0245,0.01464826,0.56810319,0.01340774,0.01379375,-0.00185228,-0.000008
 05,0.00015195,-0.00021446,0.00001194,0.00043671,-0.00070970,0.00001293
 ,-0.00002228,0.00006700,-0.00076620,0.00060567,-0.00090189,-0.00056056
 ,-0.00010505,-0.00027663,-0.00003103,-0.00017270,0.00000506,0.00000617
 ,-0.00001170,0.00000522,-0.00002519,0.00001564,0.00003344,-0.00002125,
 0.00004031,-0.00004172,-0.00001516,-0.00001661,0.00001135,-0.00000582,
 -0.00000515,0.00001518,-0.00000998,0.00008599,0.00007844,0.00000813,-0
 .00004659,-0.00003342,0.00000359,-0.00001833,-0.00000370,-0.00000781,-
 0.00003358,0.00001131,0.00036614,-0.00077466,0.00060753,0.00008316,-0.
 00004080,-0.00003743,-0.00011122,0.00018600,0.00003614,0.00029708,-0.0
 0005869,0.00015237,-0.16119564,-0.13026768,0.02256442,0.16893906,-0.01
 543978,-0.01978958,0.00647663,-0.00008978,-0.00032070,0.00036191,0.000
 02841,-0.00064957,0.00090767,-0.00003915,0.00009592,-0.00003120,0.0013
 7143,-0.00071004,-0.00121293,0.00132793,0.00027864,0.00029927,-0.00000
 309,0.00013992,-0.00015589,0.00004277,0.00000628,-0.00000001,0.0001296
 4,-0.00008278,-0.00006516,0.00001717,-0.00012330,0.00014253,0.00006665
 ,0.00003732,-0.00002622,-0.00000865,0.00000863,-0.00001591,-0.00009231
 ,-0.00016682,-0.00015556,0.00009096,0.00010062,0.00006371,-0.00001663,
 0.00002061,-0.00002329,0.00002900,0.00000716,0.00000339,-0.00030287,0.
 00082398,-0.00015998,-0.00012052,0.00014433,0.00012282,0.00060658,-0.0
 0022295,-0.00022208,-0.00011174,0.00020715,-0.00032567,-0.13280518,-0.
 19638666,0.02290634,0.14066323,0.21286153,0.00767551,0.01109162,-0.004
 12930,-0.00007105,0.00019963,-0.00012683,0.00005431,-0.00014827,0.0000
 4382,0.00002791,-0.00010450,-0.00004548,-0.00135811,0.00103582,0.00047
 837,-0.00073309,-0.00041731,-0.00073906,0.00001818,0.00006761,0.000070
 33,-0.00001995,0.00000515,-0.00000348,-0.00004216,0.00001453,0.0000173
 9,0.00001559,0.00000698,-0.00004360,-0.00002216,-0.00001257,-0.0000054
 9,0.00000588,-0.00000206,-0.00000654,-0.00001229,0.00010926,0.00014689
 ,0.00000676,-0.00005315,-0.00006876,0.00000771,-0.00000058,0.00000958,
 -0.00004200,0.00002347,-0.00005489,0.00023839,-0.00027325,-0.00013318,
 -0.00004175,-0.00010784,0.00010585,-0.00007459,-0.00007078,0.00027221,
 0.00015566,-0.00013544,0.00001611,0.02340032,0.02284977,-0.04723913,-0
 .02227884,-0.02891465,0.04865253,-0.01109896,0.00285428,0.00984923,-0.
 00002878,-0.00000447,0.00007244,-0.00040161,0.00027759,0.00063810,0.00
 001653,-0.00002005,-0.00004477,0.00099462,-0.00133052,-0.00006951,-0.0
 0024109,-0.00004793,-0.00005620,0.00012938,0.00015777,-0.00023981,-0.0
 0009262,0.00007594,0.00000261,-0.00002280,0.00001795,0.00002750,0.0000
 3328,0.00000866,-0.00003183,-0.00002916,-0.00000139,-0.00000500,0.0000
 2557,-0.00001610,-0.00002168,0.00010413,0.00006331,0.00007319,-0.00007
 914,-0.00003899,-0.00002427,0.00000753,0.00000811,0.00001761,-0.000015
 01,0.00002195,-0.00001037,0.00055927,0.00208976,-0.00183321,-0.0000939
 5,0.00013665,0.00019191,0.00036953,-0.00024794,-0.00015781,-0.00001384
 ,-0.00001311,-0.00004881,-0.18907165,0.05863881,0.12655323,-0.01219020
 ,0.00767111,0.01132823,0.19997101,0.01950580,-0.00794787,-0.01939557,-
 0.00000457,-0.00009256,0.00008190,0.00112617,-0.00032407,-0.00086101,0
 .00000611,0.00004462,-0.00000678,-0.00082320,0.00119998,-0.00084537,-0
 .00004767,-0.00003746,-0.00022041,-0.00000387,-0.00016223,0.00045686,0
 .00014002,-0.00012040,-0.00000539,-0.00000375,0.00000385,-0.00001851,-
 0.00003924,-0.00002700,0.00004017,0.00002844,0.00000460,0.00000327,-0.
 00003184,0.00001655,0.00002007,-0.00009981,-0.00007816,-0.00007126,0.0
 0007520,0.00004442,0.00001965,-0.00000756,0.00000555,-0.00000972,-0.00
 000110,0.00000794,-0.00001120,0.00135007,-0.00278721,0.00339782,-0.000
 33529,0.00018875,0.00011184,0.00017304,0.00001262,-0.00005287,0.000003
 22,0.00006020,-0.00005326,0.05745627,-0.07011224,-0.05039388,-0.016022
 41,0.00832493,0.01594749,-0.06625561,0.07442597,-0.01064090,0.00373494
 ,0.00869001,0.00001112,0.00002018,-0.00001021,-0.00040219,0.00040039,0
 .00031180,0.00000689,-0.00000738,0.00000106,-0.00081344,0.00001468,0.0
 0084071,-0.00003709,-0.00023275,0.00005784,0.00000573,0.00012481,-0.00
 009110,-0.00002456,0.00002303,0.00000155,0.00001062,-0.00000099,-0.000
 00212,0.00001795,-0.00000869,-0.00000632,0.00000471,-0.00000096,-0.000
 00178,-0.00000011,0.00000149,0.00000174,-0.00003144,0.00000183,0.00000
 775,0.00002359,-0.00000069,-0.00000434,-0.00000623,-0.00000084,-0.0000
 0433,-0.00000710,-0.00000621,-0.00000413,-0.00066759,0.00198187,-0.000
 25247,-0.00015732,0.00022969,0.00012044,0.00011451,-0.00005688,-0.0001
 4107,0.00000660,-0.00000867,0.00001432,0.12796452,-0.05200481,-0.16026
 468,0.00015564,-0.00099421,-0.00189127,-0.13634684,0.05373048,0.166919
 51,-0.00493681,-0.00251656,-0.01252048,-0.00001111,0.00005047,-0.00007
 920,-0.00014938,0.00057961,-0.00091273,0.00000073,-0.00000413,0.000024
 98,-0.00031709,-0.00001196,0.00050463,-0.00028814,0.00035722,0.0004756
 6,0.00022527,0.00001437,0.00026955,0.00001423,-0.00002109,-0.00000843,
 -0.00013009,0.00012025,0.00005085,-0.00001271,0.00005439,-0.00006325,-
 0.00003730,-0.00001055,0.00001743,-0.00000097,-0.00000856,0.00000502,0
 .00012228,0.00002204,-0.00001260,-0.00010095,-0.00003204,0.00001377,0.
 00001968,-0.00000473,0.00002398,0.00001004,-0.00000014,0.00003092,0.00
 039719,-0.00033958,0.00052899,-0.00016056,0.00031070,0.00011105,0.0000
 7875,-0.00003975,-0.00015239,0.00000068,-0.00002935,0.00005441,-0.0926
 0535,-0.02035624,-0.10012608,-0.00818933,-0.00295959,-0.01854825,0.011
 07713,0.00413524,0.02039034,0.09504064,0.01126304,0.00491947,0.0281024
 7,-0.00002046,-0.00010610,0.00009167,-0.00003878,-0.00048316,0.0008643
 6,-0.00003461,0.00002655,0.00000313,0.00127816,-0.00184696,-0.00041061
 ,-0.00041440,-0.00128790,-0.00048984,-0.00017980,-0.00000301,-0.000280
 65,-0.00003213,0.00001724,0.00002433,0.00012522,-0.00010626,-0.0000338
 4,0.00000788,-0.00003777,0.00005301,0.00003580,0.00001355,-0.00001132,
 0.00000047,0.00001102,-0.00000243,-0.00006937,-0.00006247,-0.00006863,
 0.00006133,0.00004001,0.00002925,-0.00001234,0.00000605,-0.00001841,0.
 00001778,-0.00001717,0.00001315,-0.00064464,0.00095763,-0.00060187,0.0
 0021138,-0.00011397,-0.00020044,-0.00009135,0.00007929,-0.00002203,0.0
 0001092,0.00010245,-0.00008748,-0.01949181,-0.05358573,-0.04684137,-0.
 00858291,-0.00422089,-0.02150597,-0.00441939,-0.00261137,-0.00659873,0
 .02050594,0.05816763,-0.00271487,0.00150634,-0.00986583,0.00000073,0.0
 0005221,-0.00008183,-0.00000510,0.00010004,0.00000031,-0.00000342,-0.0
 0002432,0.00002408,-0.00164184,0.00021968,0.00111698,0.00039385,0.0007
 2432,0.00037717,0.00000493,-0.00003423,0.00011289,-0.00001232,0.000007
 39,-0.00001496,-0.00007183,0.00006343,-0.00000025,-0.00001333,0.000066
 25,-0.00004182,-0.00004033,-0.00001098,0.00001338,0.00001414,-0.000014
 02,-0.00000500,0.00012993,0.00003247,0.00001158,-0.00010115,-0.0000298
 7,0.00000464,0.00002070,-0.00000522,0.00001820,0.00001359,0.00000432,0
 .00002119,0.00022097,0.00000682,-0.00019823,-0.00016492,0.00017867,0.0
 0038235,0.00006087,0.00001307,0.00004511,-0.00001486,-0.00003795,0.000
 04609,-0.09884973,-0.04901012,-0.25912077,0.00261179,0.00122331,0.0043
 1931,-0.00936377,-0.00252727,-0.01427190,0.10992900,0.04774095,0.27721
 993,-0.00210632,0.00391315,0.00034209,0.00002565,-0.00010407,0.0000405
 8,0.00689020,-0.01100340,0.01281195,0.00016327,0.00011269,0.00008974,0
 .00407450,0.00735854,-0.01578642,-0.05155213,0.02126469,-0.00837623,-0
 .00095119,-0.00339467,-0.00160921,-0.00015543,0.00048672,-0.00054560,0
 .00047469,-0.00026664,-0.00036584,-0.00018199,0.00024161,0.00004802,-0
 .00005176,-0.00004642,0.00004356,0.00003724,0.00004192,-0.00002307,-0.
 00011215,0.00009851,0.00010008,0.00008863,-0.00002535,-0.00004932,-0.0
 0005567,-0.00001940,-0.00006268,0.00000440,-0.00000398,-0.00001052,0.0
 0265938,0.00463637,0.00578055,0.00034606,-0.00166198,0.00104786,-0.000
 33122,0.00048890,-0.00060745,0.00003065,0.00012207,-0.00009631,0.00074
 971,0.00035595,-0.00063431,-0.00014424,0.00029891,-0.00012434,0.000026
 02,-0.00007618,0.00004473,-0.00004655,0.00010933,-0.00010787,0.0400593
 6,0.00292756,-0.00198956,0.00072308,0.00003227,-0.00017089,0.00006955,
 0.00241902,0.00489638,-0.00320142,0.00023078,0.00007531,0.00007752,-0.
 00475285,-0.00483034,0.01417780,0.01976013,-0.16299966,0.14666568,-0.0
 0234970,-0.00206885,-0.00186722,-0.00029271,0.00029992,0.00011691,0.00
 042173,-0.00019313,-0.00032102,-0.00017990,0.00028893,0.00018892,-0.00
 009661,-0.00007237,0.00005167,0.00001158,-0.00001236,-0.00000434,-0.00
 006233,0.00024127,0.00018926,0.00004049,-0.00008580,-0.00008703,-0.000
 18958,-0.00001272,-0.00005429,0.00001636,-0.00002580,0.00002451,0.0048
 6522,0.00403356,0.00281151,0.00005587,-0.00114692,0.00088719,-0.000645
 83,0.00092386,-0.00078915,0.00003668,0.00016430,-0.00015336,-0.0001898
 6,0.00018577,0.00081260,0.00003095,-0.00012146,0.00010141,-0.00000276,
 0.00003737,-0.00005034,0.00015924,-0.00027442,0.00013776,-0.02189296,0
 .16261983,0.00146138,-0.00046533,0.00013389,0.00004092,0.00005140,-0.0
 0003867,-0.00602136,0.01631683,-0.00913412,0.00006479,0.00003266,-0.00
 000629,0.00150347,-0.00389044,0.00370445,-0.00761770,0.14571458,-0.228
 33285,-0.00256630,-0.00140578,-0.00035123,0.00058266,-0.00040319,-0.00
 004136,0.00036698,-0.00018315,-0.00020930,0.00000397,0.00010044,0.0002
 6039,-0.00001428,-0.00004043,0.00004133,-0.00013312,-0.00003714,0.0000
 9259,-0.00007704,0.00009449,0.00005167,0.00001068,-0.00004151,-0.00003
 816,0.00007850,0.00009576,-0.00001865,-0.00001149,-0.00001714,-0.00000
 869,0.00556442,0.00301714,-0.00033806,0.00011314,-0.00041873,0.0000893
 0,-0.00060777,0.00100836,-0.00129090,0.00003026,-0.00000961,0.00007391
 ,0.00010212,-0.00001439,0.00039824,-0.00004478,0.00004676,-0.00002344,
 -0.00004698,0.00004891,0.00000277,0.00005527,-0.00004338,0.00000627,0.
 00769071,-0.15985289,0.23519515,0.00208190,0.00381143,-0.00062227,-0.0
 0003721,0.00007024,0.00002801,-0.00110277,0.00265358,0.00042730,0.0000
 3647,-0.00007762,-0.00010161,-0.18635960,0.05460584,0.14403824,-0.0050
 6105,-0.00257745,0.01089016,0.00021854,-0.00004856,0.00073463,0.000010
 78,-0.00001029,-0.00004923,-0.00021226,0.00016787,0.00006941,0.0000690
 3,0.00012490,-0.00010864,-0.00007028,-0.00006375,0.00001703,0.00002316
 ,-0.00002936,0.00002760,0.00009878,0.00017896,0.00017993,-0.00009345,-
 0.00009236,-0.00008327,0.00000033,0.00002431,0.00004649,-0.00004397,-0
 .00003177,-0.00001288,0.00476450,0.00435990,0.00344452,-0.00135804,0.0
 0039206,0.00085354,0.00087287,-0.00084810,-0.00061068,0.00000530,-0.00
 005018,0.00001348,-0.00204763,-0.00242485,-0.00218083,0.00014575,-0.00
 035450,0.00043414,0.00006480,-0.00024746,0.00037786,-0.00000026,0.0004
 0473,-0.00029517,0.00005889,-0.00035279,-0.00052844,0.18793543,-0.0100
 5291,0.00843065,0.01022474,0.00002185,-0.00003851,0.00007680,0.0035673
 3,-0.00284547,0.00112299,0.00001722,0.00003816,-0.00000402,0.05548955,
 -0.06679497,-0.04042600,0.01007497,0.00145293,-0.01651778,0.00047506,0
 .00078467,-0.00072072,-0.00004863,0.00004455,0.00003042,0.00007221,-0.
 00006415,-0.00008142,0.00027731,-0.00038014,-0.00004076,0.00015159,0.0
 0005940,-0.00004136,-0.00000086,0.00001111,0.00000786,-0.00015514,-0.0
 0008925,-0.00007605,0.00012222,0.00005611,0.00002615,-0.00002027,-0.00
 000107,-0.00003309,-0.00002331,0.00000018,-0.00002708,0.00410183,0.002
 60993,0.00532057,-0.00152338,0.00066172,0.00071704,0.00050029,-0.00040
 624,-0.00058246,0.00000970,0.00003793,-0.00003872,-0.00300763,-0.00096
 046,-0.00191605,0.00016892,-0.00026228,0.00029363,0.00037636,-0.000076
 78,-0.00029124,0.00002480,0.00041628,-0.00038306,-0.00103431,0.0002377
 6,0.00029578,-0.05958479,0.05707792,0.01771547,-0.00978089,-0.00781508
 ,0.00000407,-0.00002490,-0.00001458,-0.00080932,0.00216465,-0.00010118
 ,0.00000904,0.00001267,-0.00000367,0.14296527,-0.03926417,-0.19048058,
 -0.00582185,0.00186671,0.00602272,-0.00009629,0.00016833,0.00054085,0.
 00005510,-0.00006472,-0.00000839,-0.00006661,0.00007600,0.00000229,0.0
 0010049,-0.00003507,-0.00003645,0.00002413,-0.00002687,0.00003215,-0.0
 0003882,-0.00000091,0.00007583,-0.00012828,-0.00001303,-0.00004187,0.0
 0007140,0.00001588,-0.00000430,-0.00001358,0.00000391,-0.00000444,-0.0
 0000590,-0.00001678,-0.00000628,0.00391654,0.00520291,-0.00093464,-0.0
 0036152,0.00015494,0.00004447,0.00110323,-0.00089905,-0.00108612,0.000
 01529,0.00002750,0.00003164,-0.00153218,-0.00263376,-0.00022927,0.0000
 3997,-0.00025157,0.00037808,-0.00045318,0.00061404,-0.00002377,-0.0000
 6243,0.00029467,-0.00011890,0.00035929,-0.00065430,-0.00021823,-0.1569
 8934,0.04306382,0.19399972\\0.00000308,-0.00000741,0.00000182,0.000001
 89,-0.00000773,-0.00000320,0.00001052,-0.00000657,-0.00000191,-0.00000
 194,0.00000767,0.00000209,0.00000060,-0.00000494,0.00000049,-0.0000030
 4,0.00000050,0.00000029,-0.00000105,0.00000352,0.00000157,0.00000430,0
 .00000267,-0.00000315,0.00000364,0.00000071,-0.00000211,-0.00000067,0.
 00000121,0.00000057,0.00000426,0.00000387,-0.00000222,0.00000078,0.000
 00352,0.00000020,0.00001184,0.00001092,-0.00000585,-0.00000971,0.00000
 185,0.00000204,-0.00000013,0.00000078,0.00000040,-0.00000446,0.0000019
 1,0.00000370,-0.00000374,0.00000623,-0.00000312,0.00000112,-0.00000032
 ,0.00000167,-0.00000213,-0.00000177,0.00000054,-0.00000460,0.00000409,
 0.00000017,-0.00000673,0.00000011,0.00000050,-0.00000457,-0.00000300,0
 .00000190,-0.00000082,-0.00000579,-0.00000016,-0.00000205,-0.00000364,
 0.00000260,0.00000354,-0.00000367,0.00000055,0.00000006,-0.00000472,0.
 00000063\\\@
 The archive entry for this job was punched.


 SILVERMAN'S PARADOX - IF MURPHY'S LAW CAN GO WRONG, IT WILL.
 Job cpu time:       0 days  0 hours 33 minutes 46.0 seconds.
 Elapsed time:       0 days  0 hours  2 minutes 50.8 seconds.
 File lengths (MBytes):  RWF=    268 Int=      0 D2E=      0 Chk=     12 Scr=      1
 Normal termination of Gaussian 16 at Sat Dec 30 20:56:20 2023.
