Unloading slurm/anatra/current
  ERROR: No such file or directory on
    '/cm/local/modulefiles/slurm/anatra/current'
environment: line 0: unalias: gv: not found
environment: line 0: unalias: sl: not found
 Entering Gaussian System, Link 0=g16
 Initial command:
 /apps/gaussian/g16/C.01/g16/l1.exe "/local/jobs/1151613/Gau-1934757.inp" -scrdir="/local/jobs/1151613/"
 Entering Link 1 = /apps/gaussian/g16/C.01/g16/l1.exe PID=   1934760.
  
 Copyright (c) 1988-2019, Gaussian, Inc.  All Rights Reserved.
  
 This is part of the Gaussian(R) 16 program.  It is based on
 the Gaussian(R) 09 system (copyright 2009, Gaussian, Inc.),
 the Gaussian(R) 03 system (copyright 2003, Gaussian, Inc.),
 the Gaussian(R) 98 system (copyright 1998, Gaussian, Inc.),
 the Gaussian(R) 94 system (copyright 1995, Gaussian, Inc.),
 the Gaussian 92(TM) system (copyright 1992, Gaussian, Inc.),
 the Gaussian 90(TM) system (copyright 1990, Gaussian, Inc.),
 the Gaussian 88(TM) system (copyright 1988, Gaussian, Inc.),
 the Gaussian 86(TM) system (copyright 1986, Carnegie Mellon
 University), and the Gaussian 82(TM) system (copyright 1983,
 Carnegie Mellon University). Gaussian is a federally registered
 trademark of Gaussian, Inc.
  
 This software contains proprietary and confidential information,
 including trade secrets, belonging to Gaussian, Inc.
  
 This software is provided under written license and may be
 used, copied, transmitted, or stored only in accord with that
 written license.
  
 The following legend is applicable only to US Government
 contracts under FAR:
  
                    RESTRICTED RIGHTS LEGEND
  
 Use, reproduction and disclosure by the US Government is
 subject to restrictions as set forth in subparagraphs (a)
 and (c) of the Commercial Computer Software - Restricted
 Rights clause in FAR 52.227-19.
  
 Gaussian, Inc.
 340 Quinnipiac St., Bldg. 40, Wallingford CT 06492
  
  
 ---------------------------------------------------------------
 Warning -- This program may not be used in any manner that
 competes with the business of Gaussian, Inc. or will provide
 assistance to any competitor of Gaussian, Inc.  The licensee
 of this program is prohibited from giving any competitor of
 Gaussian, Inc. access to this program.  By using this program,
 the user acknowledges that Gaussian, Inc. is engaged in the
 business of creating and licensing software in the field of
 computational chemistry and represents and warrants to the
 licensee that it is not a competitor of Gaussian, Inc. and that
 it will not use this program in any manner prohibited above.
 ---------------------------------------------------------------
  

 Cite this work as:
 Gaussian 16, Revision C.01,
 M. J. Frisch, G. W. Trucks, H. B. Schlegel, G. E. Scuseria, 
 M. A. Robb, J. R. Cheeseman, G. Scalmani, V. Barone, 
 G. A. Petersson, H. Nakatsuji, X. Li, M. Caricato, A. V. Marenich, 
 J. Bloino, B. G. Janesko, R. Gomperts, B. Mennucci, H. P. Hratchian, 
 J. V. Ortiz, A. F. Izmaylov, J. L. Sonnenberg, D. Williams-Young, 
 F. Ding, F. Lipparini, F. Egidi, J. Goings, B. Peng, A. Petrone, 
 T. Henderson, D. Ranasinghe, V. G. Zakrzewski, J. Gao, N. Rega, 
 G. Zheng, W. Liang, M. Hada, M. Ehara, K. Toyota, R. Fukuda, 
 J. Hasegawa, M. Ishida, T. Nakajima, Y. Honda, O. Kitao, H. Nakai, 
 T. Vreven, K. Throssell, J. A. Montgomery, Jr., J. E. Peralta, 
 F. Ogliaro, M. J. Bearpark, J. J. Heyd, E. N. Brothers, K. N. Kudin, 
 V. N. Staroverov, T. A. Keith, R. Kobayashi, J. Normand, 
 K. Raghavachari, A. P. Rendell, J. C. Burant, S. S. Iyengar, 
 J. Tomasi, M. Cossi, J. M. Millam, M. Klene, C. Adamo, R. Cammi, 
 J. W. Ochterski, R. L. Martin, K. Morokuma, O. Farkas, 
 J. B. Foresman, and D. J. Fox, Gaussian, Inc., Wallingford CT, 2019.
 
 ******************************************
 Gaussian 16:  ES64L-G16RevC.01  3-Jul-2019
                21-Dec-2023 
 ******************************************
 %chk=imda-1_1_opt_dft.chk
 %nprocshared=12
 Will use up to   12 processors via shared memory.
 %mem=48GB
 ----------------------------------------------------------------------
 # wb97xd def2svp scrf=(iefpcm,solvent=toluene) opt=(calcfc,ts,noeigen,
 maxcycles=50,maxstep=10)
 ----------------------------------------------------------------------
 1/5=1,6=50,8=10,10=4,11=1,18=20,26=3,38=1/1,3;
 2/9=110,12=2,17=6,18=5,40=1/2;
 3/5=43,7=101,11=2,25=1,30=1,70=2201,71=2,72=13,74=-58,140=1/1,2,3;
 4//1;
 5/5=2,38=5,53=13/2;
 8/6=4,10=90,11=11/1;
 11/6=1,8=1,9=11,15=111,16=1/1,2,10;
 10/6=1,13=1/2;
 6/7=2,8=2,9=2,10=2,28=1/1;
 7/10=1,25=1/1,2,3,16;
 1/5=1,6=50,8=10,10=4,11=1,18=20,26=3/3(2);
 2/9=110/2;
 99//99;
 2/9=110/2;
 3/5=43,7=101,11=2,25=1,30=1,70=2205,71=1,72=13,74=-58/1,2,3;
 4/5=5,16=3,69=1/1;
 5/5=2,38=5,53=13/2;
 7//1,2,3,16;
 1/5=1,6=50,8=10,11=1,18=20,26=3/3(-5);
 2/9=110/2;
 6/7=2,8=2,9=2,10=2,19=2,28=1/1;
 99/9=1/99;
 -----------------------
 3a_exo_ts_26_reopt2.out
 -----------------------
 Symbolic Z-matrix:
 Charge =  0 Multiplicity = 1
 C                    -1.5168   -0.7224    3.598 
 C                     1.5685   -1.0675    3.4212 
 C                    -0.908    -1.0381    1.3438 
 C                     1.6679   -1.8393    2.3178 
 C                    -1.7277   -1.9981    3.2409 
 C                    -1.3715   -2.19      1.853 
 C                    -0.1868   -0.7508    0.0408 
 H                    -0.2414   -1.6362   -0.5959 
 H                    -0.7224    0.0377   -0.4893 
 C                     1.2977   -0.3472    0.254 
 H                     1.7779   -0.1741   -0.7089 
 H                     1.3648    0.5914    0.8013 
 C                     2.1214   -1.3991    1.0106 
 O                     3.0693   -1.9358    0.4469 
 H                     1.3892   -2.8795    2.3615 
 H                     1.1796   -1.4551    4.3521 
 C                    -1.1762    0.0513    2.3521 
 H                    -2.0058    0.6865    2.039 
 H                    -0.3268    0.7135    2.4899 
 Cl                    2.1016    0.6202    3.5214 
 C                    -1.6817   -0.0403    4.938 
 H                    -0.7302    0.3711    5.2753 
 H                    -2.0334   -0.7456    5.6915 
 H                    -2.4079    0.7696    4.8662 
 H                    -1.3611   -3.144     1.345 
 H                    -2.0563   -2.7828    3.9077 
 

 GradGradGradGradGradGradGradGradGradGradGradGradGradGradGradGradGradGrad
 Berny optimization.
 Initialization pass.
                           ----------------------------
                           !    Initial Parameters    !
                           ! (Angstroms and Degrees)  !
 --------------------------                            --------------------------
 ! Name  Definition              Value          Derivative Info.                !
 --------------------------------------------------------------------------------
 ! R1    R(1,5)                  1.3414         calculate D2E/DX2 analytically  !
 ! R2    R(1,17)                 1.5056         calculate D2E/DX2 analytically  !
 ! R3    R(1,21)                 1.5126         calculate D2E/DX2 analytically  !
 ! R4    R(2,4)                  1.3502         calculate D2E/DX2 analytically  !
 ! R5    R(2,16)                 1.0808         calculate D2E/DX2 analytically  !
 ! R6    R(2,20)                 1.7727         calculate D2E/DX2 analytically  !
 ! R7    R(3,6)                  1.342          calculate D2E/DX2 analytically  !
 ! R8    R(3,7)                  1.5167         calculate D2E/DX2 analytically  !
 ! R9    R(3,17)                 1.5084         calculate D2E/DX2 analytically  !
 ! R10   R(4,13)                 1.452          calculate D2E/DX2 analytically  !
 ! R11   R(4,15)                 1.0778         calculate D2E/DX2 analytically  !
 ! R12   R(5,6)                  1.4457         calculate D2E/DX2 analytically  !
 ! R13   R(5,26)                 1.0809         calculate D2E/DX2 analytically  !
 ! R14   R(6,25)                 1.0809         calculate D2E/DX2 analytically  !
 ! R15   R(7,8)                  1.0919         calculate D2E/DX2 analytically  !
 ! R16   R(7,9)                  1.0907         calculate D2E/DX2 analytically  !
 ! R17   R(7,10)                 1.5531         calculate D2E/DX2 analytically  !
 ! R18   R(10,11)                1.0898         calculate D2E/DX2 analytically  !
 ! R19   R(10,12)                1.0886         calculate D2E/DX2 analytically  !
 ! R20   R(10,13)                1.5354         calculate D2E/DX2 analytically  !
 ! R21   R(13,14)                1.2265         calculate D2E/DX2 analytically  !
 ! R22   R(17,18)                1.0908         calculate D2E/DX2 analytically  !
 ! R23   R(17,19)                1.0858         calculate D2E/DX2 analytically  !
 ! R24   R(21,22)                1.0901         calculate D2E/DX2 analytically  !
 ! R25   R(21,23)                1.0904         calculate D2E/DX2 analytically  !
 ! R26   R(21,24)                1.0902         calculate D2E/DX2 analytically  !
 ! A1    A(5,1,17)             107.6966         calculate D2E/DX2 analytically  !
 ! A2    A(5,1,21)             130.3558         calculate D2E/DX2 analytically  !
 ! A3    A(17,1,21)            121.7354         calculate D2E/DX2 analytically  !
 ! A4    A(4,2,16)             121.6939         calculate D2E/DX2 analytically  !
 ! A5    A(4,2,20)             124.6285         calculate D2E/DX2 analytically  !
 ! A6    A(16,2,20)            113.6382         calculate D2E/DX2 analytically  !
 ! A7    A(6,3,7)              130.7512         calculate D2E/DX2 analytically  !
 ! A8    A(6,3,17)             107.7498         calculate D2E/DX2 analytically  !
 ! A9    A(7,3,17)             121.4657         calculate D2E/DX2 analytically  !
 ! A10   A(2,4,13)             125.833          calculate D2E/DX2 analytically  !
 ! A11   A(2,4,15)             119.9681         calculate D2E/DX2 analytically  !
 ! A12   A(13,4,15)            114.197          calculate D2E/DX2 analytically  !
 ! A13   A(1,5,6)              110.0641         calculate D2E/DX2 analytically  !
 ! A14   A(1,5,26)             125.0277         calculate D2E/DX2 analytically  !
 ! A15   A(6,5,26)             124.8044         calculate D2E/DX2 analytically  !
 ! A16   A(3,6,5)              109.5986         calculate D2E/DX2 analytically  !
 ! A17   A(3,6,25)             125.1651         calculate D2E/DX2 analytically  !
 ! A18   A(5,6,25)             124.8017         calculate D2E/DX2 analytically  !
 ! A19   A(3,7,8)              108.8784         calculate D2E/DX2 analytically  !
 ! A20   A(3,7,9)              108.7218         calculate D2E/DX2 analytically  !
 ! A21   A(3,7,10)             112.6928         calculate D2E/DX2 analytically  !
 ! A22   A(8,7,9)              106.1556         calculate D2E/DX2 analytically  !
 ! A23   A(8,7,10)             109.789          calculate D2E/DX2 analytically  !
 ! A24   A(9,7,10)             110.379          calculate D2E/DX2 analytically  !
 ! A25   A(7,10,11)            109.9469         calculate D2E/DX2 analytically  !
 ! A26   A(7,10,12)            110.6097         calculate D2E/DX2 analytically  !
 ! A27   A(7,10,13)            113.7278         calculate D2E/DX2 analytically  !
 ! A28   A(11,10,12)           106.2662         calculate D2E/DX2 analytically  !
 ! A29   A(11,10,13)           107.9277         calculate D2E/DX2 analytically  !
 ! A30   A(12,10,13)           108.0529         calculate D2E/DX2 analytically  !
 ! A31   A(4,13,10)            118.9331         calculate D2E/DX2 analytically  !
 ! A32   A(4,13,14)            121.4998         calculate D2E/DX2 analytically  !
 ! A33   A(10,13,14)           119.2043         calculate D2E/DX2 analytically  !
 ! A34   A(1,17,3)             102.8402         calculate D2E/DX2 analytically  !
 ! A35   A(1,17,18)            111.391          calculate D2E/DX2 analytically  !
 ! A36   A(1,17,19)            112.6651         calculate D2E/DX2 analytically  !
 ! A37   A(3,17,18)            111.3417         calculate D2E/DX2 analytically  !
 ! A38   A(3,17,19)            112.7178         calculate D2E/DX2 analytically  !
 ! A39   A(18,17,19)           106.0366         calculate D2E/DX2 analytically  !
 ! A40   A(1,21,22)            110.4339         calculate D2E/DX2 analytically  !
 ! A41   A(1,21,23)            110.8339         calculate D2E/DX2 analytically  !
 ! A42   A(1,21,24)            110.4434         calculate D2E/DX2 analytically  !
 ! A43   A(22,21,23)           108.1693         calculate D2E/DX2 analytically  !
 ! A44   A(22,21,24)           108.75           calculate D2E/DX2 analytically  !
 ! A45   A(23,21,24)           108.1316         calculate D2E/DX2 analytically  !
 ! D1    D(17,1,5,6)             7.9582         calculate D2E/DX2 analytically  !
 ! D2    D(17,1,5,26)         -175.605          calculate D2E/DX2 analytically  !
 ! D3    D(21,1,5,6)          -177.378          calculate D2E/DX2 analytically  !
 ! D4    D(21,1,5,26)           -0.9411         calculate D2E/DX2 analytically  !
 ! D5    D(5,1,17,3)           -13.1867         calculate D2E/DX2 analytically  !
 ! D6    D(5,1,17,18)          106.1647         calculate D2E/DX2 analytically  !
 ! D7    D(5,1,17,19)         -134.8165         calculate D2E/DX2 analytically  !
 ! D8    D(21,1,17,3)          171.5932         calculate D2E/DX2 analytically  !
 ! D9    D(21,1,17,18)         -69.0555         calculate D2E/DX2 analytically  !
 ! D10   D(21,1,17,19)          49.9633         calculate D2E/DX2 analytically  !
 ! D11   D(5,1,21,22)          119.573          calculate D2E/DX2 analytically  !
 ! D12   D(5,1,21,23)           -0.2831         calculate D2E/DX2 analytically  !
 ! D13   D(5,1,21,24)         -120.0983         calculate D2E/DX2 analytically  !
 ! D14   D(17,1,21,22)         -66.4066         calculate D2E/DX2 analytically  !
 ! D15   D(17,1,21,23)         173.7373         calculate D2E/DX2 analytically  !
 ! D16   D(17,1,21,24)          53.9221         calculate D2E/DX2 analytically  !
 ! D17   D(16,2,4,13)          177.2114         calculate D2E/DX2 analytically  !
 ! D18   D(16,2,4,15)           -2.2484         calculate D2E/DX2 analytically  !
 ! D19   D(20,2,4,13)           -5.2221         calculate D2E/DX2 analytically  !
 ! D20   D(20,2,4,15)          175.3182         calculate D2E/DX2 analytically  !
 ! D21   D(7,3,6,5)            167.8992         calculate D2E/DX2 analytically  !
 ! D22   D(7,3,6,25)            -4.8193         calculate D2E/DX2 analytically  !
 ! D23   D(17,3,6,5)            -9.9743         calculate D2E/DX2 analytically  !
 ! D24   D(17,3,6,25)          177.3071         calculate D2E/DX2 analytically  !
 ! D25   D(6,3,7,8)             11.1667         calculate D2E/DX2 analytically  !
 ! D26   D(6,3,7,9)            126.4051         calculate D2E/DX2 analytically  !
 ! D27   D(6,3,7,10)          -110.8941         calculate D2E/DX2 analytically  !
 ! D28   D(17,3,7,8)          -171.2078         calculate D2E/DX2 analytically  !
 ! D29   D(17,3,7,9)           -55.9694         calculate D2E/DX2 analytically  !
 ! D30   D(17,3,7,10)           66.7314         calculate D2E/DX2 analytically  !
 ! D31   D(6,3,17,1)            14.0148         calculate D2E/DX2 analytically  !
 ! D32   D(6,3,17,18)         -105.3708         calculate D2E/DX2 analytically  !
 ! D33   D(6,3,17,19)          135.6089         calculate D2E/DX2 analytically  !
 ! D34   D(7,3,17,1)          -164.0966         calculate D2E/DX2 analytically  !
 ! D35   D(7,3,17,18)           76.5178         calculate D2E/DX2 analytically  !
 ! D36   D(7,3,17,19)          -42.5026         calculate D2E/DX2 analytically  !
 ! D37   D(2,4,13,10)          -63.9467         calculate D2E/DX2 analytically  !
 ! D38   D(2,4,13,14)          123.0243         calculate D2E/DX2 analytically  !
 ! D39   D(15,4,13,10)         115.5402         calculate D2E/DX2 analytically  !
 ! D40   D(15,4,13,14)         -57.4888         calculate D2E/DX2 analytically  !
 ! D41   D(1,5,6,3)              1.3238         calculate D2E/DX2 analytically  !
 ! D42   D(1,5,6,25)           174.0747         calculate D2E/DX2 analytically  !
 ! D43   D(26,5,6,3)          -175.1228         calculate D2E/DX2 analytically  !
 ! D44   D(26,5,6,25)           -2.3719         calculate D2E/DX2 analytically  !
 ! D45   D(3,7,10,11)          178.69           calculate D2E/DX2 analytically  !
 ! D46   D(3,7,10,12)          -64.2558         calculate D2E/DX2 analytically  !
 ! D47   D(3,7,10,13)           57.5441         calculate D2E/DX2 analytically  !
 ! D48   D(8,7,10,11)           57.1444         calculate D2E/DX2 analytically  !
 ! D49   D(8,7,10,12)          174.1986         calculate D2E/DX2 analytically  !
 ! D50   D(8,7,10,13)          -64.0015         calculate D2E/DX2 analytically  !
 ! D51   D(9,7,10,11)          -59.5425         calculate D2E/DX2 analytically  !
 ! D52   D(9,7,10,12)           57.5117         calculate D2E/DX2 analytically  !
 ! D53   D(9,7,10,13)          179.3116         calculate D2E/DX2 analytically  !
 ! D54   D(7,10,13,4)          -55.9668         calculate D2E/DX2 analytically  !
 ! D55   D(7,10,13,14)         117.2246         calculate D2E/DX2 analytically  !
 ! D56   D(11,10,13,4)        -178.2342         calculate D2E/DX2 analytically  !
 ! D57   D(11,10,13,14)         -5.0428         calculate D2E/DX2 analytically  !
 ! D58   D(12,10,13,4)          67.241          calculate D2E/DX2 analytically  !
 ! D59   D(12,10,13,14)       -119.5676         calculate D2E/DX2 analytically  !
 --------------------------------------------------------------------------------
 Trust Radius=1.00D-01 FncErr=1.00D-07 GrdErr=1.00D-06 EigMax=2.50D+02 EigMin=1.00D-04
 Number of steps in this run=     50 maximum allowed number of steps=    156.
 Search for a saddle point of order  1.
 GradGradGradGradGradGradGradGradGradGradGradGradGradGradGradGradGradGrad

                          Input orientation:                          
 ---------------------------------------------------------------------
 Center     Atomic      Atomic             Coordinates (Angstroms)
 Number     Number       Type             X           Y           Z
 ---------------------------------------------------------------------
      1          6           0       -1.516800   -0.722400    3.598000
      2          6           0        1.568500   -1.067500    3.421200
      3          6           0       -0.908000   -1.038100    1.343800
      4          6           0        1.667900   -1.839300    2.317800
      5          6           0       -1.727700   -1.998100    3.240900
      6          6           0       -1.371500   -2.190000    1.853000
      7          6           0       -0.186800   -0.750800    0.040800
      8          1           0       -0.241400   -1.636200   -0.595900
      9          1           0       -0.722400    0.037700   -0.489300
     10          6           0        1.297700   -0.347200    0.254000
     11          1           0        1.777900   -0.174100   -0.708900
     12          1           0        1.364800    0.591400    0.801300
     13          6           0        2.121400   -1.399100    1.010600
     14          8           0        3.069300   -1.935800    0.446900
     15          1           0        1.389200   -2.879500    2.361500
     16          1           0        1.179600   -1.455100    4.352100
     17          6           0       -1.176200    0.051300    2.352100
     18          1           0       -2.005800    0.686500    2.039000
     19          1           0       -0.326800    0.713500    2.489900
     20         17           0        2.101600    0.620200    3.521400
     21          6           0       -1.681700   -0.040300    4.938000
     22          1           0       -0.730200    0.371100    5.275300
     23          1           0       -2.033400   -0.745600    5.691500
     24          1           0       -2.407900    0.769600    4.866200
     25          1           0       -1.361100   -3.144000    1.345000
     26          1           0       -2.056300   -2.782800    3.907700
 ---------------------------------------------------------------------
                    Distance matrix (angstroms):
                    1          2          3          4          5
     1  C    0.000000
     2  C    3.109570   0.000000
     3  C    2.356209   3.232570   0.000000
     4  C    3.609528   1.350203   2.868076   0.000000
     5  C    1.341421   3.429790   2.278705   3.522418   0.000000
     6  C    2.284729   3.516086   1.342010   3.094670   1.445673
     7  C    3.797812   3.822104   1.516733   3.132008   3.764408
     8  H    4.477775   4.442550   2.136473   3.489459   4.130508
     9  H    4.232593   4.664944   2.133553   4.137206   4.366864
    10  C    4.386858   3.259344   2.555410   2.573457   4.560711
    11  H    5.450236   4.230808   3.489145   3.456285   5.587229
    12  H    4.225070   3.107623   2.848718   2.880962   4.713885
    13  C    4.515425   2.495325   3.068975   1.451968   4.488720
    14  O    5.695093   3.442790   4.174831   2.339551   5.551714
    15  H    3.824506   2.106764   3.115059   1.077775   3.356378
    16  H    2.894147   1.080764   3.685354   2.127069   3.159432
    17  C    1.505618   3.150883   1.508440   3.415326   2.300904
    18  H    2.157452   4.214572   2.159332   4.466930   2.954485
    19  H    2.169284   2.762507   2.172427   3.244262   3.143135
    20  Cl   3.860215   1.772729   4.068119   2.772344   4.647334
    21  C    1.512631   3.730901   3.809526   4.617539   2.591379
    22  H    2.151236   3.285008   4.180209   4.402676   3.278246
    23  H    2.156422   4.269844   4.500508   5.126173   2.769052
    24  H    2.151384   4.612453   4.233767   5.469264   3.280920
    25  H    3.311253   4.147893   2.154093   3.438520   2.245422
    26  H    2.152260   4.039568   3.306986   4.157841   1.080904
                    6          7          8          9         10
     6  C    0.000000
     7  C    2.599785   0.000000
     8  H    2.753349   1.091925   0.000000
     9  H    3.297021   1.090690   1.744897   0.000000
    10  C    3.616261   1.553090   2.180064   2.186652   0.000000
    11  H    4.532759   2.180523   2.495612   2.518846   1.089831
    12  H    4.040990   2.187995   3.081274   2.515678   1.088581
    13  C    3.679064   2.586231   2.867034   3.521547   1.535389
    14  O    4.665023   3.488743   3.483953   4.375861   2.387347
    15  H    2.890579   3.521475   3.598731   4.593035   3.295826
    16  H    3.646051   4.577160   5.151188   5.411581   4.246859
    17  C    2.304489   2.639012   3.523097   2.877442   3.268181
    18  H    2.951472   3.060620   3.930743   2.908669   3.894595
    19  H    3.150770   2.856898   3.879503   3.080396   2.960293
    20  Cl   4.768984   4.385315   5.247204   4.939635   3.501146
    21  C    3.772885   5.169343   5.936784   5.511980   5.559754
    22  H    4.322342   5.380886   6.224080   5.774238   5.462764
    23  H    4.154333   5.944777   6.598169   6.366676   6.389159
    24  H    4.348877   5.525340   6.349499   5.661976   6.020889
    25  H    1.080874   2.967714   2.700793   3.727708   4.010186
    26  H    2.245474   4.751523   4.989085   5.391486   5.525485
                   11         12         13         14         15
    11  H    0.000000
    12  H    1.742798   0.000000
    13  C    2.138995   2.139706   0.000000
    14  O    2.471270   3.068821   1.226507   0.000000
    15  H    4.110673   3.805518   2.133690   2.716431   0.000000
    16  H    5.254774   4.102517   3.472138   4.364931   2.456692
    17  C    4.259957   3.025454   3.844145   5.059904   3.894991
    18  H    4.754784   3.591920   4.737205   5.930251   4.934206
    19  H    3.930638   2.393280   3.555994   4.767194   3.983816
    20  Cl   4.316380   2.818270   3.222124   4.113652   3.755101
    21  C    6.623761   5.176147   5.633327   6.806974   4.912213
    22  H    6.511410   4.945122   5.427052   6.562883   4.852678
    23  H    7.471127   6.103228   6.292873   7.413498   5.230356
    24  H    7.035143   5.548733   6.331151   7.539836   5.831588
    25  H    4.784572   4.656109   3.909515   4.679185   2.944042
    26  H    6.543653   5.721789   5.268870   6.242301   3.777771
                   16         17         18         19         20
    16  H    0.000000
    17  C    3.437882   0.000000
    18  H    4.481479   1.090755   0.000000
    19  H    3.231077   1.085808   1.738701   0.000000
    20  Cl   2.418060   3.526313   4.367223   2.640042   0.000000
    21  C    3.245301   2.636437   3.006240   2.897786   4.093455
    22  H    2.799043   2.974271   3.492889   2.835211   3.340256
    23  H    3.552570   3.538564   3.923319   3.910460   4.865488
    24  H    4.252499   2.890283   2.856860   3.159260   4.708120
    25  H    4.283712   3.355351   3.945884   4.154621   5.558436
    26  H    3.525809   3.350610   3.940892   4.150354   5.386814
                   21         22         23         24         25
    21  C    0.000000
    22  H    1.090125   0.000000
    23  H    1.090368   1.765948   0.000000
    24  H    1.090165   1.772242   1.765560   0.000000
    25  H    4.758717   5.310482   5.009628   5.367579   0.000000
    26  H    2.953498   3.684556   2.707887   3.696199   2.679776
                   26
    26  H    0.000000
 Stoichiometry    C11H13ClO
 Framework group  C1[X(C11H13ClO)]
 Deg. of freedom    72
 Full point group                 C1      NOp   1
 Largest Abelian subgroup         C1      NOp   1
 Largest concise Abelian subgroup C1      NOp   1
                         Standard orientation:                         
 ---------------------------------------------------------------------
 Center     Atomic      Atomic             Coordinates (Angstroms)
 Number     Number       Type             X           Y           Z
 ---------------------------------------------------------------------
      1          6           0       -2.305621   -0.198257    0.049390
      2          6           0        0.269216    1.321745    0.903344
      3          6           0       -0.429153   -1.543894   -0.419495
      4          6           0        1.084703    0.284547    1.190133
      5          6           0       -2.144181   -1.112578    1.017566
      6          6           0       -1.003787   -1.950835    0.722952
      7          6           0        0.906248   -1.907075   -1.040208
      8          1           0        1.326773   -2.758238   -0.500780
      9          1           0        0.735983   -2.249268   -2.061736
     10          6           0        1.914413   -0.725762   -1.026518
     11          1           0        2.863000   -1.041481   -1.460380
     12          1           0        1.553371    0.093313   -1.646013
     13          6           0        2.197821   -0.171628    0.377061
     14          8           0        3.335598   -0.241803    0.829673
     15          1           0        0.928801   -0.290539    2.088225
     16          1           0       -0.569101    1.576725    1.536005
     17          6           0       -1.348005   -0.535131   -1.062535
     18          1           0       -1.868838   -0.962705   -1.920241
     19          1           0       -0.818391    0.335733   -1.436813
     20         17           0        0.482256    2.420476   -0.471419
     21          6           0       -3.308604    0.926851   -0.077923
     22          1           0       -2.797505    1.888391   -0.128843
     23          1           0       -3.982148    0.944794    0.779352
     24          1           0       -3.909431    0.801220   -0.978858
     25          1           0       -0.604024   -2.704249    1.386914
     26          1           0       -2.739932   -1.175263    1.917291
 ---------------------------------------------------------------------
 Rotational constants (GHZ):           0.9222436           0.6302988           0.4691974
 Standard basis: def2SVP (5D, 7F)
 There are   264 symmetry adapted cartesian basis functions of A   symmetry.
 There are   251 symmetry adapted basis functions of A   symmetry.
   251 basis functions,   428 primitive gaussians,   264 cartesian basis functions
    52 alpha electrons       52 beta electrons
       nuclear repulsion energy       894.7781075342 Hartrees.
 NAtoms=   26 NActive=   26 NUniq=   26 SFac= 1.00D+00 NAtFMM=   60 NAOKFM=F Big=F
 Integral buffers will be    131072 words long.
 Raffenetti 2 integral format.
 Two-electron integral symmetry is turned on.
 Nuclear repulsion after empirical dispersion term =      894.7555973802 Hartrees.
 Force inversion solution in PCM.
 ------------------------------------------------------------------------------
 Polarizable Continuum Model (PCM)
 =================================
 Model                : PCM.
 Atomic radii         : UFF (Universal Force Field).
 Polarization charges : Total charges.
 Charge compensation  : None.
 Solution method      : Matrix inversion.
 Cavity type          : Scaled VdW (van der Waals Surface) (Alpha=1.100).
 Cavity algorithm     : GePol (No added spheres)
                        Default sphere list used, NSphG=   26.
                        Lebedev-Laikov grids with approx.  5.0 points / Ang**2.
                        Smoothing algorithm: York/Karplus (Gamma=1.0000).
                        Polarization charges: spherical gaussians, with
                                              point-specific exponents (IZeta= 3).
                        Self-potential: point-specific (ISelfS= 7).
                        Self-field    : sphere-specific E.n sum rule (ISelfD= 2).
 1st derivatives      : Analytical E(r).r(x)/FMM algorithm (CHGder, D1EAlg=3).
                        Cavity 1st derivative terms included.
 2nd derivatives      : Analytical E(r).r(xy)/FMM algorithm (CHGder, D2EAlg=3).
                        Cavity 2nd derivative terms included.
 Solvent              : Toluene, Eps=   2.374100 Eps(inf)=   2.238315
 ------------------------------------------------------------------------------
 One-electron integrals computed using PRISM.
   1 Symmetry operations used in ECPInt.
 ECPInt:  NShTT=    7140 NPrTT=   26096 LenC2=    6971 LenP2D=   19379.
 LDataN:  DoStor=T MaxTD1= 4 Len=   56
 NBasis=   251 RedAO= T EigKep=  5.35D-04  NBF=   251
 NBsUse=   251 1.00D-06 EigRej= -1.00D+00 NBFU=   251
 ExpMin= 1.22D-01 ExpMax= 1.04D+04 ExpMxC= 1.57D+03 IAcc=3 IRadAn=         5 AccDes= 0.00D+00
 Harris functional with IExCor= 4639 and IRadAn=       5 diagonalized for initial guess.
 HarFok:  IExCor= 4639 AccDes= 0.00D+00 IRadAn=         5 IDoV= 1 UseB2=F ITyADJ=14
 ICtDFT=  3500011 ScaDFX=  1.000000  1.000000  1.000000  1.000000
 FoFCou: FMM=F IPFlag=           0 FMFlag=      100000 FMFlg1=           0
         NFxFlg=           0 DoJE=T BraDBF=F KetDBF=T FulRan=T
         wScrn=  0.000000 ICntrl=       500 IOpCl=  0 I1Cent=   200000004 NGrid=           0
         NMat0=    1 NMatS0=      1 NMatT0=    0 NMatD0=    1 NMtDS0=    0 NMtDT0=    0
 Petite list used in FoFCou.
 Requested convergence on RMS density matrix=1.00D-08 within 128 cycles.
 Requested convergence on MAX density matrix=1.00D-06.
 Requested convergence on             energy=1.00D-06.
 No special actions if energy rises.
 Inv3:  Mode=1 IEnd=    11070723.
 Iteration    1 A*A^-1 deviation from unit magnitude is 3.11D-15 for   1638.
 Iteration    1 A*A^-1 deviation from orthogonality  is 2.00D-15 for   1693    116.
 Iteration    1 A^-1*A deviation from unit magnitude is 3.11D-15 for   1638.
 Iteration    1 A^-1*A deviation from orthogonality  is 2.28D-15 for   1282    361.
 Error on total polarization charges =  0.00698
 SCF Done:  E(RwB97XD) =  -961.692604425     A.U. after   14 cycles
            NFock= 14  Conv=0.76D-08     -V/T= 2.0066
 DoSCS=F DFT=T ScalE2(SS,OS)=  1.000000  1.000000
 Range of M.O.s used for correlation:     1   251
 NBasis=   251 NAE=    52 NBE=    52 NFC=     0 NFV=     0
 NROrb=    251 NOA=    52 NOB=    52 NVA=   199 NVB=   199
   1 Symmetry operations used in ECPInt.
 ECPInt:  NShTT=    7140 NPrTT=   26096 LenC2=    6971 LenP2D=   19379.
 LDataN:  DoStor=T MaxTD1= 5 Len=  102
 Symmetrizing basis deriv contribution to polar:
 IMax=3 JMax=2 DiffMx= 0.00D+00
 G2DrvN: will do    27 centers at a time, making    1 passes.
 Calling FoFCou, ICntrl=  3107 FMM=F I1Cent=   0 AccDes= 0.00D+00.
 NEqPCM:  Using equilibrium solvation (IEInf=0, Eps=   2.3741, EpsInf=   2.2383)
 G2PCM: DoFxE=T DoFxN=T DoGrad=T DoDP/DQ/DG/TGxP=FFFF NFrqRd=   0 IEInf=0 SqF1=F DoCFld=F IF1Alg=4.
 End of G2Drv F.D. properties file   721 does not exist.
 End of G2Drv F.D. properties file   722 does not exist.
 End of G2Drv F.D. properties file   788 does not exist.
          IDoAtm=11111111111111111111111111
 NEqPCM:  Using equilibrium solvation (IEInf=0, Eps=   2.3741, EpsInf=   2.2383)
          Differentiating once with respect to nuclear coordinates.
 Keep R1 ints in memory in canonical form, NReq=1021395209.
          There are    81 degrees of freedom in the 1st order CPHF.  IDoFFX=6 NUNeed=     0.
     75 vectors produced by pass  0 Test12= 1.28D-14 1.23D-09 XBig12= 8.32D-02 5.63D-02.
 AX will form    75 AO Fock derivatives at one time.
     75 vectors produced by pass  1 Test12= 1.28D-14 1.23D-09 XBig12= 9.93D-03 2.13D-02.
     75 vectors produced by pass  2 Test12= 1.28D-14 1.23D-09 XBig12= 2.55D-04 4.00D-03.
     75 vectors produced by pass  3 Test12= 1.28D-14 1.23D-09 XBig12= 3.09D-06 2.85D-04.
     75 vectors produced by pass  4 Test12= 1.28D-14 1.23D-09 XBig12= 2.78D-08 2.46D-05.
     75 vectors produced by pass  5 Test12= 1.28D-14 1.23D-09 XBig12= 1.66D-10 1.47D-06.
     67 vectors produced by pass  6 Test12= 1.28D-14 1.23D-09 XBig12= 8.33D-13 1.04D-07.
     23 vectors produced by pass  7 Test12= 1.28D-14 1.23D-09 XBig12= 4.02D-15 7.14D-09.
 InvSVY:  IOpt=1 It=  1 EMax= 3.05D-16
 Solved reduced A of dimension   540 with    81 vectors.
 End of Minotr F.D. properties file   721 does not exist.
 End of Minotr F.D. properties file   722 does not exist.
 End of Minotr F.D. properties file   788 does not exist.

 **********************************************************************

            Population analysis using the SCF Density.

 **********************************************************************

 Orbital symmetries:
       Occupied  (A) (A) (A) (A) (A) (A) (A) (A) (A) (A) (A) (A)
                 (A) (A) (A) (A) (A) (A) (A) (A) (A) (A) (A) (A)
                 (A) (A) (A) (A) (A) (A) (A) (A) (A) (A) (A) (A)
                 (A) (A) (A) (A) (A) (A) (A) (A) (A) (A) (A) (A)
                 (A) (A) (A) (A)
       Virtual   (A) (A) (A) (A) (A) (A) (A) (A) (A) (A) (A) (A)
                 (A) (A) (A) (A) (A) (A) (A) (A) (A) (A) (A) (A)
                 (A) (A) (A) (A) (A) (A) (A) (A) (A) (A) (A) (A)
                 (A) (A) (A) (A) (A) (A) (A) (A) (A) (A) (A) (A)
                 (A) (A) (A) (A) (A) (A) (A) (A) (A) (A) (A) (A)
                 (A) (A) (A) (A) (A) (A) (A) (A) (A) (A) (A) (A)
                 (A) (A) (A) (A) (A) (A) (A) (A) (A) (A) (A) (A)
                 (A) (A) (A) (A) (A) (A) (A) (A) (A) (A) (A) (A)
                 (A) (A) (A) (A) (A) (A) (A) (A) (A) (A) (A) (A)
                 (A) (A) (A) (A) (A) (A) (A) (A) (A) (A) (A) (A)
                 (A) (A) (A) (A) (A) (A) (A) (A) (A) (A) (A) (A)
                 (A) (A) (A) (A) (A) (A) (A) (A) (A) (A) (A) (A)
                 (A) (A) (A) (A) (A) (A) (A) (A) (A) (A) (A) (A)
                 (A) (A) (A) (A) (A) (A) (A) (A) (A) (A) (A) (A)
                 (A) (A) (A) (A) (A) (A) (A) (A) (A) (A) (A) (A)
                 (A) (A) (A) (A) (A) (A) (A) (A) (A) (A) (A) (A)
                 (A) (A) (A) (A) (A) (A) (A)
 The electronic state is 1-A.
 Alpha  occ. eigenvalues -- -101.69618 -19.25419 -10.39716 -10.37455 -10.32545
 Alpha  occ. eigenvalues --  -10.31258 -10.30715 -10.30148 -10.30131 -10.29667
 Alpha  occ. eigenvalues --  -10.29578 -10.28940 -10.28782  -9.60277  -7.35654
 Alpha  occ. eigenvalues --   -7.34716  -7.34666  -1.13427  -0.97931  -0.96443
 Alpha  occ. eigenvalues --   -0.89694  -0.86615  -0.83749  -0.79830  -0.77277
 Alpha  occ. eigenvalues --   -0.73670  -0.71047  -0.63261  -0.61719  -0.60859
 Alpha  occ. eigenvalues --   -0.59197  -0.57421  -0.56399  -0.55140  -0.53446
 Alpha  occ. eigenvalues --   -0.51747  -0.50273  -0.49817  -0.49230  -0.48538
 Alpha  occ. eigenvalues --   -0.47363  -0.46299  -0.45363  -0.43733  -0.43438
 Alpha  occ. eigenvalues --   -0.43121  -0.41264  -0.40307  -0.39238  -0.34542
 Alpha  occ. eigenvalues --   -0.33753  -0.28501
 Alpha virt. eigenvalues --    0.01561   0.04796   0.08157   0.11077   0.13690
 Alpha virt. eigenvalues --    0.15110   0.15497   0.16985   0.18261   0.18866
 Alpha virt. eigenvalues --    0.19650   0.20666   0.21750   0.22329   0.22848
 Alpha virt. eigenvalues --    0.23460   0.24560   0.26210   0.27830   0.28848
 Alpha virt. eigenvalues --    0.30419   0.31297   0.33508   0.33902   0.37301
 Alpha virt. eigenvalues --    0.39053   0.40229   0.41435   0.41864   0.45176
 Alpha virt. eigenvalues --    0.46214   0.49040   0.50866   0.51842   0.53235
 Alpha virt. eigenvalues --    0.53690   0.54212   0.55490   0.55528   0.57084
 Alpha virt. eigenvalues --    0.57999   0.59085   0.61771   0.63856   0.65147
 Alpha virt. eigenvalues --    0.66486   0.67921   0.68565   0.69392   0.69810
 Alpha virt. eigenvalues --    0.70315   0.71465   0.72471   0.73285   0.73487
 Alpha virt. eigenvalues --    0.74092   0.74388   0.75369   0.75971   0.76667
 Alpha virt. eigenvalues --    0.77017   0.77545   0.78174   0.78775   0.79058
 Alpha virt. eigenvalues --    0.79353   0.80196   0.80600   0.81892   0.83289
 Alpha virt. eigenvalues --    0.83501   0.85196   0.86031   0.87211   0.89031
 Alpha virt. eigenvalues --    0.90307   0.90567   0.91632   0.93196   0.94525
 Alpha virt. eigenvalues --    0.97057   0.99877   1.01882   1.02901   1.04089
 Alpha virt. eigenvalues --    1.05594   1.08277   1.09430   1.11021   1.15581
 Alpha virt. eigenvalues --    1.15755   1.19549   1.20990   1.22717   1.25896
 Alpha virt. eigenvalues --    1.26989   1.28762   1.30169   1.31739   1.35168
 Alpha virt. eigenvalues --    1.37830   1.39250   1.42451   1.46982   1.50679
 Alpha virt. eigenvalues --    1.52538   1.58271   1.59595   1.60602   1.62015
 Alpha virt. eigenvalues --    1.62361   1.64138   1.66844   1.68659   1.70802
 Alpha virt. eigenvalues --    1.71548   1.76199   1.77681   1.79386   1.80980
 Alpha virt. eigenvalues --    1.81218   1.82655   1.83118   1.84641   1.85300
 Alpha virt. eigenvalues --    1.85478   1.86877   1.87593   1.88478   1.89328
 Alpha virt. eigenvalues --    1.90179   1.91416   1.91783   1.94960   1.96907
 Alpha virt. eigenvalues --    1.97934   2.00030   2.00202   2.01744   2.03417
 Alpha virt. eigenvalues --    2.05629   2.07613   2.08849   2.10942   2.12018
 Alpha virt. eigenvalues --    2.15447   2.17295   2.17787   2.18494   2.20060
 Alpha virt. eigenvalues --    2.23723   2.25162   2.26876   2.29038   2.29885
 Alpha virt. eigenvalues --    2.34180   2.36302   2.38916   2.39505   2.41279
 Alpha virt. eigenvalues --    2.44937   2.45253   2.47315   2.50056   2.51305
 Alpha virt. eigenvalues --    2.52313   2.55521   2.56233   2.58102   2.63867
 Alpha virt. eigenvalues --    2.65548   2.68322   2.71801   2.74441   2.75491
 Alpha virt. eigenvalues --    2.77496   2.79265   2.82355   2.83531   2.84450
 Alpha virt. eigenvalues --    2.85094   2.89153   2.90981   2.93066   2.95778
 Alpha virt. eigenvalues --    2.98220   3.02046   3.03150   3.06864   3.10703
 Alpha virt. eigenvalues --    3.11054   3.13331   3.19275   3.22292   3.26872
 Alpha virt. eigenvalues --    3.32310   3.45230   3.51566   3.68551
          Condensed to atoms (all electrons):
               1          2          3          4          5          6
     1  C    5.154614   0.002484  -0.095510  -0.008202   0.557454   0.000126
     2  C    0.002484   4.805493  -0.011354   0.587864   0.003998  -0.011582
     3  C   -0.095510  -0.011354   5.235061   0.009110  -0.000713   0.535181
     4  C   -0.008202   0.587864   0.009110   5.118574  -0.002661  -0.002467
     5  C    0.557454   0.003998  -0.000713  -0.002661   5.008928   0.250245
     6  C    0.000126  -0.011582   0.535181  -0.002467   0.250245   5.038902
     7  C    0.009051  -0.005719   0.373555   0.001809   0.011170  -0.062678
     8  H   -0.000690   0.000205  -0.012609  -0.003769   0.000406  -0.013039
     9  H    0.000959  -0.000070  -0.001039   0.000265  -0.001046   0.007411
    10  C    0.000133   0.005798  -0.078633  -0.156596   0.000741  -0.008692
    11  H   -0.000004  -0.000378   0.007448   0.014668  -0.000002  -0.000008
    12  H   -0.000731   0.001028  -0.008478  -0.009430   0.000103  -0.000276
    13  C    0.000782  -0.027325  -0.001920   0.229686   0.000449  -0.000713
    14  O   -0.000002   0.000735  -0.000222  -0.076503   0.000000   0.000016
    15  H   -0.000053  -0.006555  -0.002955   0.386665  -0.001248   0.007108
    16  H    0.007138   0.399547   0.000471  -0.014833   0.001928  -0.001798
    17  C    0.322019   0.004713   0.329733  -0.002598  -0.093198  -0.101738
    18  H    0.011181   0.000158   0.011783   0.000280  -0.003751  -0.002598
    19  H   -0.022468  -0.004811  -0.017536  -0.006094   0.005973   0.007862
    20  Cl  -0.001076   0.276730   0.000232  -0.078434  -0.000165   0.000516
    21  C    0.401777  -0.001739   0.008923   0.000121  -0.065038   0.010677
    22  H   -0.018232  -0.001999   0.000128   0.000672   0.001599  -0.000030
    23  H   -0.011217  -0.000037  -0.000571  -0.000002  -0.011523   0.000229
    24  H   -0.012163   0.000149   0.000884  -0.000020   0.003239  -0.000813
    25  H    0.009604   0.000149  -0.068775  -0.001003  -0.061493   0.453986
    26  H   -0.067383  -0.000178   0.009663   0.000154   0.450969  -0.061819
               7          8          9         10         11         12
     1  C    0.009051  -0.000690   0.000959   0.000133  -0.000004  -0.000731
     2  C   -0.005719   0.000205  -0.000070   0.005798  -0.000378   0.001028
     3  C    0.373555  -0.012609  -0.001039  -0.078633   0.007448  -0.008478
     4  C    0.001809  -0.003769   0.000265  -0.156596   0.014668  -0.009430
     5  C    0.011170   0.000406  -0.001046   0.000741  -0.000002   0.000103
     6  C   -0.062678  -0.013039   0.007411  -0.008692  -0.000008  -0.000276
     7  C    4.603834   0.370717   0.359605   0.399423  -0.008862  -0.014710
     8  H    0.370717   0.668263  -0.026662  -0.027340  -0.006653   0.007880
     9  H    0.359605  -0.026662   0.649074  -0.017705  -0.004152  -0.009390
    10  C    0.399423  -0.027340  -0.017705   4.938511   0.336405   0.350126
    11  H   -0.008862  -0.006653  -0.004152   0.336405   0.628316  -0.012538
    12  H   -0.014710   0.007880  -0.009390   0.350126  -0.012538   0.631120
    13  C   -0.048386  -0.001296   0.006627   0.350711  -0.008099  -0.004764
    14  O    0.001182   0.001464  -0.000169  -0.091026   0.010142   0.002842
    15  H   -0.000779   0.000003   0.000040   0.005289  -0.000311  -0.000025
    16  H    0.000046   0.000009  -0.000008  -0.000553   0.000014   0.000368
    17  C   -0.073947   0.010114  -0.009270   0.000474   0.000047   0.004208
    18  H    0.001717  -0.000309   0.001278  -0.000575  -0.000012   0.000042
    19  H   -0.004279  -0.000112   0.000349   0.002745  -0.000146   0.001489
    20  Cl  -0.000371  -0.000020   0.000008  -0.009157   0.000148   0.014519
    21  C   -0.000249   0.000006   0.000017  -0.000029   0.000000   0.000017
    22  H    0.000001   0.000000   0.000004  -0.000017   0.000000  -0.000025
    23  H    0.000007  -0.000000  -0.000000   0.000001   0.000000  -0.000000
    24  H    0.000015  -0.000000  -0.000006   0.000004  -0.000000   0.000000
    25  H   -0.011379   0.004671   0.000118   0.000076  -0.000010   0.000017
    26  H   -0.000265   0.000007   0.000005   0.000002  -0.000000   0.000001
              13         14         15         16         17         18
     1  C    0.000782  -0.000002  -0.000053   0.007138   0.322019   0.011181
     2  C   -0.027325   0.000735  -0.006555   0.399547   0.004713   0.000158
     3  C   -0.001920  -0.000222  -0.002955   0.000471   0.329733   0.011783
     4  C    0.229686  -0.076503   0.386665  -0.014833  -0.002598   0.000280
     5  C    0.000449   0.000000  -0.001248   0.001928  -0.093198  -0.003751
     6  C   -0.000713   0.000016   0.007108  -0.001798  -0.101738  -0.002598
     7  C   -0.048386   0.001182  -0.000779   0.000046  -0.073947   0.001717
     8  H   -0.001296   0.001464   0.000003   0.000009   0.010114  -0.000309
     9  H    0.006627  -0.000169   0.000040  -0.000008  -0.009270   0.001278
    10  C    0.350711  -0.091026   0.005289  -0.000553   0.000474  -0.000575
    11  H   -0.008099   0.010142  -0.000311   0.000014   0.000047  -0.000012
    12  H   -0.004764   0.002842  -0.000025   0.000368   0.004208   0.000042
    13  C    4.779564   0.677687  -0.023532   0.007328  -0.003290   0.000076
    14  O    0.677687   7.721990   0.000439  -0.000145   0.000001   0.000000
    15  H   -0.023532   0.000439   0.556329  -0.009913   0.000697   0.000000
    16  H    0.007328  -0.000145  -0.009913   0.555241  -0.002128   0.000029
    17  C   -0.003290   0.000001   0.000697  -0.002128   4.845675   0.326374
    18  H    0.000076   0.000000   0.000000   0.000029   0.326374   0.596260
    19  H    0.000211  -0.000008  -0.000074  -0.000063   0.358561  -0.013092
    20  Cl   0.009080  -0.000057   0.002913  -0.037557  -0.010570   0.000129
    21  C   -0.000000  -0.000000   0.000005   0.000013  -0.065832  -0.001112
    22  H   -0.000015   0.000000  -0.000017  -0.000825  -0.004491  -0.000158
    23  H    0.000000  -0.000000  -0.000002   0.000113   0.008606  -0.000211
    24  H    0.000000   0.000000   0.000000   0.000023  -0.006359   0.001782
    25  H    0.000016  -0.000002   0.001132   0.000001   0.014228  -0.000377
    26  H    0.000004  -0.000000   0.000010   0.000095   0.014848  -0.000366
              19         20         21         22         23         24
     1  C   -0.022468  -0.001076   0.401777  -0.018232  -0.011217  -0.012163
     2  C   -0.004811   0.276730  -0.001739  -0.001999  -0.000037   0.000149
     3  C   -0.017536   0.000232   0.008923   0.000128  -0.000571   0.000884
     4  C   -0.006094  -0.078434   0.000121   0.000672  -0.000002  -0.000020
     5  C    0.005973  -0.000165  -0.065038   0.001599  -0.011523   0.003239
     6  C    0.007862   0.000516   0.010677  -0.000030   0.000229  -0.000813
     7  C   -0.004279  -0.000371  -0.000249   0.000001   0.000007   0.000015
     8  H   -0.000112  -0.000020   0.000006   0.000000  -0.000000  -0.000000
     9  H    0.000349   0.000008   0.000017   0.000004  -0.000000  -0.000006
    10  C    0.002745  -0.009157  -0.000029  -0.000017   0.000001   0.000004
    11  H   -0.000146   0.000148   0.000000   0.000000   0.000000  -0.000000
    12  H    0.001489   0.014519   0.000017  -0.000025  -0.000000   0.000000
    13  C    0.000211   0.009080  -0.000000  -0.000015   0.000000   0.000000
    14  O   -0.000008  -0.000057  -0.000000   0.000000  -0.000000   0.000000
    15  H   -0.000074   0.002913   0.000005  -0.000017  -0.000002   0.000000
    16  H   -0.000063  -0.037557   0.000013  -0.000825   0.000113   0.000023
    17  C    0.358561  -0.010570  -0.065832  -0.004491   0.008606  -0.006359
    18  H   -0.013092   0.000129  -0.001112  -0.000158  -0.000211   0.001782
    19  H    0.649673   0.021046  -0.000907   0.003398  -0.000203  -0.000290
    20  Cl   0.021046  16.903305  -0.001940   0.007456   0.000017  -0.000005
    21  C   -0.000907  -0.001940   4.497857   0.380776   0.387343   0.385325
    22  H    0.003398   0.007456   0.380776   0.638562  -0.021004  -0.021473
    23  H   -0.000203   0.000017   0.387343  -0.021004   0.632013  -0.019059
    24  H   -0.000290  -0.000005   0.385325  -0.021473  -0.019059   0.624004
    25  H   -0.000369   0.000002  -0.000257   0.000011   0.000004   0.000003
    26  H   -0.000394  -0.000001  -0.010452   0.000139   0.004454   0.000059
              25         26
     1  C    0.009604  -0.067383
     2  C    0.000149  -0.000178
     3  C   -0.068775   0.009663
     4  C   -0.001003   0.000154
     5  C   -0.061493   0.450969
     6  C    0.453986  -0.061819
     7  C   -0.011379  -0.000265
     8  H    0.004671   0.000007
     9  H    0.000118   0.000005
    10  C    0.000076   0.000002
    11  H   -0.000010  -0.000000
    12  H    0.000017   0.000001
    13  C    0.000016   0.000004
    14  O   -0.000002  -0.000000
    15  H    0.001132   0.000010
    16  H    0.000001   0.000095
    17  C    0.014228   0.014848
    18  H   -0.000377  -0.000366
    19  H   -0.000369  -0.000394
    20  Cl   0.000002  -0.000001
    21  C   -0.000257  -0.010452
    22  H    0.000011   0.000139
    23  H    0.000004   0.004454
    24  H    0.000003   0.000059
    25  H    0.662203  -0.004459
    26  H   -0.004459   0.665322
 Mulliken charges:
               1
     1  C   -0.239592
     2  C   -0.017303
     3  C   -0.221855
     4  C    0.012742
     5  C   -0.056365
     6  C   -0.044011
     7  C    0.099492
     8  H    0.028753
     9  H    0.043758
    10  C   -0.000116
    11  H    0.043989
    12  H    0.046607
    13  C    0.057120
    14  O   -0.248364
    15  H    0.084835
    16  H    0.095458
    17  C    0.133124
    18  H    0.071471
    19  H    0.019540
    20  Cl  -0.096751
    21  C    0.074698
    22  H    0.035542
    23  H    0.031044
    24  H    0.044701
    25  H    0.001902
    26  H   -0.000416
 Sum of Mulliken charges =  -0.00000
 Mulliken charges with hydrogens summed into heavy atoms:
               1
     1  C   -0.239592
     2  C    0.078155
     3  C   -0.221855
     4  C    0.097577
     5  C   -0.056782
     6  C   -0.042109
     7  C    0.172004
    10  C    0.090479
    13  C    0.057120
    14  O   -0.248364
    17  C    0.224135
    20  Cl  -0.096751
    21  C    0.185984
 APT charges:
               1
     1  C   -0.481803
     2  C   -0.442870
     3  C   -0.474673
     4  C   -0.238367
     5  C   -0.591946
     6  C   -0.373486
     7  C   -0.630747
     8  H    0.424305
     9  H    0.465537
    10  C   -0.521830
    11  H    0.599364
    12  H    0.111963
    13  C   -1.074183
    14  O    0.734300
    15  H    0.381453
    16  H    0.396717
    17  C   -0.356734
    18  H    0.539398
    19  H    0.042832
    20  Cl   0.044345
    21  C   -0.743389
    22  H    0.077018
    23  H    0.548206
    24  H    0.520914
    25  H    0.463754
    26  H    0.579923
 Sum of APT charges =  -0.00000
 APT charges with hydrogens summed into heavy atoms:
               1
     1  C   -0.481803
     2  C   -0.046153
     3  C   -0.474673
     4  C    0.143085
     5  C   -0.012023
     6  C    0.090267
     7  C    0.259095
    10  C    0.189498
    13  C   -1.074183
    14  O    0.734300
    17  C    0.225496
    20  Cl   0.044345
    21  C    0.402748
 Electronic spatial extent (au):  <R**2>=           2572.0320
 Charge=             -0.0000 electrons
 Dipole moment (field-independent basis, Debye):
    X=             -3.3721    Y=             -0.4854    Z=             -0.7949  Tot=              3.4983
 Quadrupole moment (field-independent basis, Debye-Ang):
   XX=            -96.2579   YY=            -84.4210   ZZ=            -78.5359
   XY=             -3.6582   XZ=             -5.4583   YZ=              0.3322
 Traceless Quadrupole moment (field-independent basis, Debye-Ang):
   XX=             -9.8530   YY=              1.9839   ZZ=              7.8691
   XY=             -3.6582   XZ=             -5.4583   YZ=              0.3322
 Octapole moment (field-independent basis, Debye-Ang**2):
  XXX=            -48.4371  YYY=              8.6700  ZZZ=             -0.4137  XYY=              9.7607
  XXY=             10.9159  XXZ=            -18.9022  XZZ=             -3.3142  YZZ=             -0.6796
  YYZ=              1.7841  XYZ=              0.1016
 Hexadecapole moment (field-independent basis, Debye-Ang**3):
 XXXX=          -2002.6324 YYYY=          -1115.3574 ZZZZ=           -451.0286 XXXY=             -9.1354
 XXXZ=            -62.7064 YYYX=            -22.9325 YYYZ=            -19.7660 ZZZX=             -0.3449
 ZZZY=             -9.1722 XXYY=           -493.9123 XXZZ=           -373.7429 YYZZ=           -246.7949
 XXYZ=              1.1243 YYXZ=             -5.5741 ZZXY=              0.2505
 N-N= 8.947555973802D+02 E-N=-4.046326695959D+03  KE= 9.553683673382D+02
  Exact polarizability:       0.000       0.000       0.000       0.000       0.000       0.000
 Approx polarizability:     141.746     -16.863     138.559      -3.233     -21.096     139.425
   1 Symmetry operations used in ECPInt.
 ECPInt:  NShTT=    7140 NPrTT=   26096 LenC2=    6971 LenP2D=   19379.
 LDataN:  DoStor=T MaxTD1= 6 Len=  172
 D2PCM: PCM CHGder 2nd derivatives, FixD1E=F FixD2E=F DoIter=F DoCFld=F I1PDM=0
 Calling FoFJK, ICntrl=    100127 FMM=F ISym2X=0 I1Cent= 0 IOpClX= 0 NMat=1 NMatS=1 NMatT=0.
 ***** Axes restored to original set *****
 -------------------------------------------------------------------
 Center     Atomic                   Forces (Hartrees/Bohr)
 Number     Number              X              Y              Z
 -------------------------------------------------------------------
      1        6          -0.011519058    0.023390379    0.008796333
      2        6           0.009905953   -0.005980015   -0.016642937
      3        6          -0.003799077    0.019952521   -0.016958902
      4        6          -0.002235387    0.024889553    0.035526520
      5        6          -0.002603923   -0.005766123    0.007911368
      6        6           0.004494634   -0.006325838   -0.006098282
      7        6          -0.002576465   -0.008807548    0.017431032
      8        1           0.001655087   -0.005243192   -0.003894304
      9        1           0.000709305    0.007949147   -0.004147546
     10        6          -0.005387529   -0.007178012    0.003918439
     11        1           0.004038411   -0.001857234   -0.004991681
     12        1          -0.002256544    0.007502881    0.006127169
     13        6           0.019128784    0.001385130   -0.052356864
     14        8          -0.015199095    0.007027665    0.015734103
     15        1          -0.003669745   -0.009982266    0.005979872
     16        1           0.000148398   -0.000321030    0.007411860
     17        6           0.017964154   -0.015924419    0.005207836
     18        1          -0.008602566    0.003338970   -0.002904654
     19        1           0.007133343    0.007724357    0.001526845
     20       17          -0.004436330   -0.014837337   -0.001239828
     21        6          -0.001756634   -0.015052547   -0.014625791
     22        1           0.006091824    0.004934842    0.001859927
     23        1          -0.001933949   -0.003722302    0.004657182
     24        1          -0.003440291    0.006829822    0.000510807
     25        1           0.000343264   -0.007560177   -0.003327040
     26        1          -0.002196564   -0.006367227    0.004588536
 -------------------------------------------------------------------
 Cartesian Forces:  Max     0.052356864 RMS     0.011514872
 FormGI is forming the generalized inverse of G from B-inverse, IUseBI=4.

 GradGradGradGradGradGradGradGradGradGradGradGradGradGradGradGradGradGrad
 Berny optimization.
 Internal  Forces:  Max     0.029912865 RMS     0.007175794
 Search for a saddle point.
 Step number   1 out of a maximum of   50
 All quantities printed in internal units (Hartrees-Bohrs-Radians)
 Swapping is turned off.
 Second derivative matrix not updated -- analytic derivatives used.
 ITU=  0
     Eigenvalues ---   -0.00186   0.00172   0.00176   0.00717   0.00987
     Eigenvalues ---    0.01289   0.01445   0.01753   0.02085   0.02283
     Eigenvalues ---    0.02386   0.03287   0.03870   0.04100   0.04255
     Eigenvalues ---    0.04408   0.04658   0.04823   0.05133   0.05578
     Eigenvalues ---    0.05655   0.06042   0.06365   0.07213   0.07573
     Eigenvalues ---    0.08026   0.08810   0.09949   0.10308   0.10593
     Eigenvalues ---    0.10906   0.11478   0.11828   0.12327   0.13531
     Eigenvalues ---    0.14344   0.15189   0.16442   0.17344   0.18475
     Eigenvalues ---    0.19242   0.19952   0.22024   0.22840   0.23020
     Eigenvalues ---    0.25477   0.26138   0.27199   0.28785   0.29426
     Eigenvalues ---    0.30981   0.31242   0.35863   0.36252   0.36350
     Eigenvalues ---    0.36462   0.36516   0.36583   0.36641   0.36953
     Eigenvalues ---    0.37509   0.38505   0.38964   0.39005   0.39348
     Eigenvalues ---    0.39403   0.39849   0.54238   0.58740   0.60492
     Eigenvalues ---    0.82300   1.17921
 Eigenvectors required to have negative eigenvalues:
                          D38       D40       D37       D55       D39
   1                    0.32301   0.32223   0.30267  -0.30215   0.30189
                          D59       D54       D58       D57       D56
   1                   -0.29997  -0.28148  -0.27930  -0.25809  -0.23742
 RFO step:  Lambda0=8.134141710D-04 Lambda=-1.85961312D-02.
 Linear search not attempted -- option 19 set.
 Maximum step size (   0.100) exceeded in Quadratic search.
    -- Step size scaled by   0.434
 Iteration  1 RMS(Cart)=  0.04910362 RMS(Int)=  0.00070713
 Iteration  2 RMS(Cart)=  0.00182090 RMS(Int)=  0.00006884
 Iteration  3 RMS(Cart)=  0.00000171 RMS(Int)=  0.00006883
 Iteration  4 RMS(Cart)=  0.00000000 RMS(Int)=  0.00006883
 Variable       Old X    -DE/DX   Delta X   Delta X   Delta X     New X
                                 (Linear)    (Quad)   (Total)
    R1        2.53492   0.01271   0.00000   0.00844   0.00846   2.54338
    R2        2.84521   0.00283   0.00000  -0.00053  -0.00054   2.84467
    R3        2.85846  -0.00978   0.00000  -0.01555  -0.01555   2.84291
    R4        2.55151  -0.02106   0.00000  -0.01802  -0.01802   2.53349
    R5        2.04235   0.00644   0.00000   0.00782   0.00782   2.05017
    R6        3.34997  -0.01553   0.00000  -0.02347  -0.02347   3.32651
    R7        2.53603   0.01176   0.00000   0.00733   0.00733   2.54336
    R8        2.86621  -0.00872   0.00000  -0.01658  -0.01658   2.84963
    R9        2.85054   0.00141   0.00000  -0.00313  -0.00316   2.84738
   R10        2.74382   0.02991   0.00000   0.03816   0.03816   2.78198
   R11        2.03670   0.01083   0.00000   0.01182   0.01182   2.04852
   R12        2.73193   0.01294   0.00000   0.01347   0.01350   2.74543
   R13        2.04261   0.00812   0.00000   0.00832   0.00832   2.05094
   R14        2.04256   0.00824   0.00000   0.00855   0.00855   2.05111
   R15        2.06344   0.00644   0.00000   0.00712   0.00712   2.07056
   R16        2.06111   0.00742   0.00000   0.00921   0.00921   2.07032
   R17        2.93491   0.00013   0.00000  -0.00869  -0.00869   2.92623
   R18        2.05948   0.00589   0.00000   0.00696   0.00696   2.06644
   R19        2.05712   0.00941   0.00000   0.01160   0.01160   2.06872
   R20        2.90146  -0.00230   0.00000  -0.01317  -0.01317   2.88829
   R21        2.31776  -0.02205   0.00000  -0.01476  -0.01476   2.30300
   R22        2.06123   0.00932   0.00000   0.01194   0.01194   2.07317
   R23        2.05188   0.01049   0.00000   0.01155   0.01155   2.06343
   R24        2.06004   0.00776   0.00000   0.00930   0.00930   2.06934
   R25        2.06050   0.00625   0.00000   0.00674   0.00674   2.06724
   R26        2.06011   0.00733   0.00000   0.00900   0.00900   2.06911
    A1        1.87966   0.00023   0.00000   0.00262   0.00245   1.88211
    A2        2.27514  -0.00410   0.00000  -0.01074  -0.01073   2.26441
    A3        2.12468   0.00399   0.00000   0.00951   0.00953   2.13422
    A4        2.12396   0.00441   0.00000   0.01246   0.01243   2.13638
    A5        2.17518  -0.00294   0.00000  -0.01060  -0.01064   2.16454
    A6        1.98336  -0.00154   0.00000  -0.00130  -0.00134   1.98202
    A7        2.28204  -0.00635   0.00000  -0.01910  -0.01901   2.26303
    A8        1.88059   0.00007   0.00000   0.00260   0.00242   1.88301
    A9        2.11998   0.00630   0.00000   0.01627   0.01635   2.13632
   A10        2.19620   0.00725   0.00000   0.00600   0.00598   2.20218
   A11        2.09384  -0.00930   0.00000  -0.01619  -0.01622   2.07762
   A12        1.99311   0.00209   0.00000   0.01029   0.01027   2.00338
   A13        1.92098  -0.00271   0.00000  -0.00281  -0.00292   1.91806
   A14        2.18214   0.00197   0.00000   0.00321   0.00324   2.18539
   A15        2.17825   0.00085   0.00000   0.00022   0.00025   2.17849
   A16        1.91286  -0.00092   0.00000   0.00040   0.00023   1.91308
   A17        2.18454   0.00082   0.00000   0.00175   0.00176   2.18630
   A18        2.17820   0.00049   0.00000  -0.00004  -0.00002   2.17818
   A19        1.90029  -0.00586   0.00000   0.00330   0.00328   1.90356
   A20        1.89755  -0.00687   0.00000   0.00980   0.00987   1.90742
   A21        1.96686   0.02611   0.00000   0.01067   0.01068   1.97754
   A22        1.85277   0.00470   0.00000   0.00251   0.00239   1.85515
   A23        1.91618  -0.00828   0.00000  -0.00154  -0.00162   1.91456
   A24        1.92648  -0.01101   0.00000  -0.02484  -0.02487   1.90161
   A25        1.91893  -0.00802   0.00000   0.00172   0.00176   1.92069
   A26        1.93050  -0.00249   0.00000  -0.00651  -0.00648   1.92402
   A27        1.98492   0.01793   0.00000   0.01677   0.01679   2.00172
   A28        1.85469   0.00383   0.00000   0.00527   0.00524   1.85993
   A29        1.88369  -0.00902   0.00000  -0.01161  -0.01165   1.87204
   A30        1.88588  -0.00316   0.00000  -0.00655  -0.00654   1.87934
   A31        2.07577   0.01699   0.00000  -0.00003  -0.00014   2.07564
   A32        2.12057  -0.01478   0.00000  -0.01494  -0.01506   2.10551
   A33        2.08051  -0.00171   0.00000   0.01781   0.01772   2.09823
   A34        1.79490   0.00521   0.00000   0.00891   0.00858   1.80348
   A35        1.94414  -0.00537   0.00000  -0.01645  -0.01641   1.92773
   A36        1.96638   0.00176   0.00000   0.00727   0.00715   1.97352
   A37        1.94328  -0.00461   0.00000  -0.01510  -0.01505   1.92823
   A38        1.96730   0.00168   0.00000   0.01384   0.01379   1.98108
   A39        1.85069   0.00103   0.00000   0.00073   0.00079   1.85148
   A40        1.92744  -0.00002   0.00000   0.00195   0.00195   1.92938
   A41        1.93442   0.00087   0.00000   0.00376   0.00374   1.93816
   A42        1.92760   0.00157   0.00000   0.00704   0.00703   1.93463
   A43        1.88791   0.00017   0.00000  -0.00018  -0.00019   1.88772
   A44        1.89805  -0.00233   0.00000  -0.01264  -0.01264   1.88541
   A45        1.88725  -0.00035   0.00000  -0.00045  -0.00048   1.88677
    D1        0.13890  -0.00380   0.00000  -0.02246  -0.02241   0.11649
    D2       -3.06488  -0.00203   0.00000  -0.01191  -0.01185  -3.07673
    D3       -3.09583  -0.00211   0.00000  -0.00439  -0.00444  -3.10027
    D4       -0.01643  -0.00035   0.00000   0.00616   0.00612  -0.01031
    D5       -0.23015   0.00545   0.00000   0.03664   0.03675  -0.19340
    D6        1.85292   0.00045   0.00000   0.01609   0.01616   1.86909
    D7       -2.35299  -0.00077   0.00000   0.01054   0.01059  -2.34240
    D8        2.99487   0.00444   0.00000   0.02171   0.02168   3.01655
    D9       -1.20525  -0.00056   0.00000   0.00116   0.00110  -1.20415
   D10        0.87202  -0.00178   0.00000  -0.00439  -0.00448   0.86755
   D11        2.08694   0.00023   0.00000  -0.00346  -0.00344   2.08350
   D12       -0.00494  -0.00053   0.00000  -0.00694  -0.00692  -0.01186
   D13       -2.09611  -0.00168   0.00000  -0.01341  -0.01340  -2.10952
   D14       -1.15901   0.00186   0.00000   0.01628   0.01627  -1.14275
   D15        3.03229   0.00111   0.00000   0.01280   0.01279   3.04508
   D16        0.94112  -0.00004   0.00000   0.00633   0.00630   0.94742
   D17        3.09292   0.00454   0.00000   0.01288   0.01284   3.10576
   D18       -0.03924  -0.00069   0.00000  -0.00033  -0.00029  -0.03953
   D19       -0.09114   0.00247   0.00000   0.03018   0.03014  -0.06101
   D20        3.05988  -0.00276   0.00000   0.01696   0.01701   3.07689
   D21        2.93039   0.00577   0.00000   0.02233   0.02239   2.95279
   D22       -0.08411   0.00248   0.00000   0.00476   0.00481  -0.07931
   D23       -0.17409   0.00488   0.00000   0.02905   0.02902  -0.14506
   D24        3.09459   0.00159   0.00000   0.01148   0.01144   3.10603
   D25        0.19490   0.00143   0.00000  -0.03114  -0.03114   0.16376
   D26        2.20619   0.00016   0.00000  -0.02112  -0.02113   2.18506
   D27       -1.93547  -0.00127   0.00000  -0.03862  -0.03863  -1.97409
   D28       -2.98814   0.00226   0.00000  -0.03902  -0.03901  -3.02715
   D29       -0.97685   0.00100   0.00000  -0.02900  -0.02900  -1.00585
   D30        1.16468  -0.00043   0.00000  -0.04650  -0.04650   1.11819
   D31        0.24461  -0.00598   0.00000  -0.03948  -0.03958   0.20502
   D32       -1.83907  -0.00044   0.00000  -0.01800  -0.01805  -1.85712
   D33        2.36682   0.00031   0.00000  -0.01783  -0.01781   2.34901
   D34       -2.86403  -0.00646   0.00000  -0.03265  -0.03266  -2.89668
   D35        1.33549  -0.00092   0.00000  -0.01116  -0.01113   1.32436
   D36       -0.74181  -0.00017   0.00000  -0.01100  -0.01089  -0.75270
   D37       -1.11608  -0.00395   0.00000  -0.07898  -0.07918  -1.19526
   D38        2.14718  -0.00864   0.00000  -0.10748  -0.10737   2.03981
   D39        2.01656   0.00096   0.00000  -0.06655  -0.06666   1.94990
   D40       -1.00337  -0.00373   0.00000  -0.09505  -0.09486  -1.09822
   D41        0.02310  -0.00079   0.00000  -0.00444  -0.00444   0.01867
   D42        3.03818   0.00251   0.00000   0.01322   0.01321   3.05139
   D43       -3.05647  -0.00259   0.00000  -0.01509  -0.01507  -3.07154
   D44       -0.04140   0.00071   0.00000   0.00256   0.00257  -0.03883
   D45        3.11873   0.00103   0.00000   0.01957   0.01961   3.13834
   D46       -1.12148  -0.00064   0.00000   0.02317   0.02320  -1.09828
   D47        1.00433   0.00619   0.00000   0.02173   0.02174   1.02607
   D48        0.99736  -0.00331   0.00000   0.00919   0.00924   1.00660
   D49        3.04034  -0.00498   0.00000   0.01280   0.01283   3.05317
   D50       -1.11704   0.00186   0.00000   0.01136   0.01137  -1.10566
   D51       -1.03921   0.00239   0.00000   0.02169   0.02165  -1.01756
   D52        1.00377   0.00072   0.00000   0.02529   0.02524   1.02900
   D53        3.12958   0.00755   0.00000   0.02385   0.02378  -3.12983
   D54       -0.97681  -0.01037   0.00000   0.04256   0.04243  -0.93437
   D55        2.04595  -0.00676   0.00000   0.06811   0.06820   2.11415
   D56       -3.11077  -0.00544   0.00000   0.03769   0.03763  -3.07315
   D57       -0.08801  -0.00183   0.00000   0.06324   0.06339  -0.02462
   D58        1.17358  -0.00375   0.00000   0.04072   0.04059   1.21416
   D59       -2.08685  -0.00014   0.00000   0.06627   0.06635  -2.02050
         Item               Value     Threshold  Converged?
 Maximum Force            0.029913     0.000450     NO 
 RMS     Force            0.007176     0.000300     NO 
 Maximum Displacement     0.199832     0.001800     NO 
 RMS     Displacement     0.050020     0.001200     NO 
 Predicted change in Energy=-6.225985D-03
 GradGradGradGradGradGradGradGradGradGradGradGradGradGradGradGradGradGrad

                          Input orientation:                          
 ---------------------------------------------------------------------
 Center     Atomic      Atomic             Coordinates (Angstroms)
 Number     Number       Type             X           Y           Z
 ---------------------------------------------------------------------
      1          6           0       -1.546119   -0.705699    3.605748
      2          6           0        1.643507   -1.107628    3.424880
      3          6           0       -0.910972   -1.033703    1.353765
      4          6           0        1.706868   -1.835751    2.300955
      5          6           0       -1.763417   -1.985833    3.251516
      6          6           0       -1.386694   -2.185287    1.862641
      7          6           0       -0.199304   -0.779478    0.048835
      8          1           0       -0.248133   -1.683994   -0.567617
      9          1           0       -0.730881    0.000536   -0.507283
     10          6           0        1.277497   -0.350400    0.229893
     11          1           0        1.741794   -0.183783   -0.746035
     12          1           0        1.332071    0.601332    0.768079
     13          6           0        2.147811   -1.358346    0.980001
     14          8           0        3.137468   -1.830053    0.447746
     15          1           0        1.416119   -2.879564    2.333124
     16          1           0        1.277149   -1.514637    4.361437
     17          6           0       -1.150672    0.054447    2.368076
     18          1           0       -1.968607    0.709141    2.042614
     19          1           0       -0.286593    0.703904    2.522532
     20         17           0        2.170672    0.567661    3.544037
     21          6           0       -1.732736   -0.031343    4.937531
     22          1           0       -0.781568    0.371616    5.300896
     23          1           0       -2.112509   -0.734756    5.684307
     24          1           0       -2.443719    0.797569    4.858326
     25          1           0       -1.387226   -3.143101    1.352071
     26          1           0       -2.117906   -2.767448    3.915827
 ---------------------------------------------------------------------
                    Distance matrix (angstroms):
                    1          2          3          4          5
     1  C    0.000000
     2  C    3.219934   0.000000
     3  C    2.362716   3.289429   0.000000
     4  C    3.682585   1.340666   2.897160   0.000000
     5  C    1.345898   3.522560   2.287940   3.601245   0.000000
     6  C    2.291946   3.575480   1.345887   3.143950   1.452817
     7  C    3.804074   3.860221   1.507960   3.133886   3.762832
     8  H    4.478705   4.455393   2.133997   3.474732   4.119826
     9  H    4.252105   4.725214   2.136722   4.147380   4.374970
    10  C    4.415364   3.303830   2.553309   2.584554   4.588246
    11  H    5.479122   4.273135   3.488365   3.466175   5.613760
    12  H    4.247902   3.174291   2.836831   2.903369   4.737396
    13  C    4.578822   2.508907   3.098587   1.472163   4.566313
    14  O    5.759612   3.408393   4.224323   2.341160   5.648368
    15  H    3.888459   2.093656   3.127570   1.084028   3.428067
    16  H    3.032539   1.084903   3.750368   2.129168   3.270931
    17  C    1.505334   3.205415   1.506769   3.426790   2.306223
    18  H    2.150269   4.273017   2.151885   4.477983   2.960816
    19  H    2.178702   2.796634   2.185210   3.236175   3.153904
    20  Cl   3.929350   1.760311   4.105872   2.745315   4.699250
    21  C    1.504404   3.852988   3.810958   4.694497   2.581399
    22  H    2.149110   3.404201   4.191838   4.479333   3.274378
    23  H    2.154542   4.399056   4.504071   5.219856   2.757813
    24  H    2.152778   4.731803   4.240851   5.540929   3.285114
    25  H    3.323438   4.198218   2.162494   3.490410   2.255811
    26  H    2.161920   4.140563   3.320651   4.254970   1.085308
                    6          7          8          9         10
     6  C    0.000000
     7  C    2.583813   0.000000
     8  H    2.730159   1.095695   0.000000
     9  H    3.290054   1.095565   1.753376   0.000000
    10  C    3.623615   1.548492   2.177623   2.167986   0.000000
    11  H    4.538573   2.180489   2.498454   2.491003   1.093513
    12  H    4.044131   2.183817   3.082830   2.498654   1.094722
    13  C    3.735721   2.590580   2.870838   3.513608   1.528419
    14  O    4.753542   3.520921   3.537596   4.384890   2.386698
    15  H    2.925600   3.498275   3.551537   4.579573   3.292334
    16  H    3.713464   4.617240   5.162435   5.480179   4.292447
    17  C    2.308155   2.641857   3.529171   2.906341   3.260633
    18  H    2.957825   3.053125   3.937059   2.921654   3.865976
    19  H    3.161187   2.885691   3.905452   3.141957   2.968859
    20  Cl   4.802153   4.432607   5.275061   5.015359   3.553048
    21  C    3.770169   5.177883   5.936494   5.536310   5.596888
    22  H    4.327300   5.408160   6.240955   5.820241   5.520518
    23  H    4.151624   5.951546   6.592686   6.386340   6.433544
    24  H    4.357621   5.536757   6.357642   5.688483   6.048774
    25  H    1.085399   2.948949   2.666782   3.710854   4.019852
    26  H    2.255916   4.752545   4.977067   5.399025   5.563900
                   11         12         13         14         15
    11  H    0.000000
    12  H    1.754086   0.000000
    13  C    2.126888   2.133232   0.000000
    14  O    2.466420   3.045276   1.218698   0.000000
    15  H    4.105426   3.817469   2.163427   2.760284   0.000000
    16  H    5.298428   4.170439   3.495223   4.344795   2.448753
    17  C    4.256853   3.003846   3.847431   5.062327   3.898469
    18  H    4.726621   3.539850   4.727425   5.921411   4.941616
    19  H    3.947894   2.389288   3.543811   4.738129   3.971945
    20  Cl   4.376451   2.900056   3.206916   4.033701   3.730821
    21  C    6.663222   5.213219   5.699265   6.863848   4.981023
    22  H    6.575804   5.006662   5.499469   6.615077   4.920129
    23  H    7.517215   6.149761   6.377278   7.495565   5.318068
    24  H    7.063316   5.570029   6.385258   7.583354   5.898839
    25  H    4.790655   4.664376   3.977470   4.797369   2.981721
    26  H    6.580697   5.758415   5.366655   6.365944   3.873868
                   16         17         18         19         20
    16  H    0.000000
    17  C    3.511386   0.000000
    18  H    4.566953   1.097072   0.000000
    19  H    3.278534   1.091918   1.749148   0.000000
    20  Cl   2.408836   3.560562   4.405442   2.664617   0.000000
    21  C    3.404623   2.635955   2.997416   2.909319   4.187747
    22  H    2.945989   2.972922   3.484162   2.841606   3.441032
    23  H    3.721288   3.541943   3.920137   3.924351   4.962124
    24  H    4.408861   2.902679   2.856884   3.180865   4.803417
    25  H    4.336712   3.363412   3.956593   4.169031   5.588659
    26  H    3.646163   3.360679   3.951948   4.164764   5.445464
                   21         22         23         24         25
    21  C    0.000000
    22  H    1.095048   0.000000
    23  H    1.093934   1.772700   0.000000
    24  H    1.094927   1.772019   1.771994   0.000000
    25  H    4.760037   5.321022   5.009435   5.379488   0.000000
    26  H    2.945931   3.682110   2.694325   3.701865   2.692184
                   26
    26  H    0.000000
 Stoichiometry    C11H13ClO
 Framework group  C1[X(C11H13ClO)]
 Deg. of freedom    72
 Full point group                 C1      NOp   1
 Largest Abelian subgroup         C1      NOp   1
 Largest concise Abelian subgroup C1      NOp   1
                         Standard orientation:                         
 ---------------------------------------------------------------------
 Center     Atomic      Atomic             Coordinates (Angstroms)
 Number     Number       Type             X           Y           Z
 ---------------------------------------------------------------------
      1          6           0       -2.351405   -0.124300    0.026885
      2          6           0        0.368605    1.352051    0.915652
      3          6           0       -0.505476   -1.540902   -0.383250
      4          6           0        1.123443    0.275770    1.178756
      5          6           0       -2.232826   -1.020554    1.023936
      6          6           0       -1.106738   -1.901395    0.765637
      7          6           0        0.811949   -1.991161   -0.962562
      8          1           0        1.193326   -2.832378   -0.373112
      9          1           0        0.649521   -2.374548   -1.975920
     10          6           0        1.874711   -0.866154   -1.014763
     11          1           0        2.806514   -1.250126   -1.439121
     12          1           0        1.540166   -0.059504   -1.674923
     13          6           0        2.215068   -0.246056    0.340117
     14          8           0        3.359704   -0.274438    0.757522
     15          1           0        0.941579   -0.284813    2.088586
     16          1           0       -0.444166    1.664460    1.562813
     17          6           0       -1.364725   -0.496401   -1.047375
     18          1           0       -1.884652   -0.921869   -1.914681
     19          1           0       -0.798804    0.358384   -1.423352
     20         17           0        0.610383    2.409464   -0.470752
     21          6           0       -3.323194    1.012837   -0.133667
     22          1           0       -2.790819    1.967973   -0.192165
     23          1           0       -4.015994    1.059903    0.711616
     24          1           0       -3.911526    0.896203   -1.049705
     25          1           0       -0.743976   -2.660444    1.451451
     26          1           0       -2.851783   -1.051034    1.914923
 ---------------------------------------------------------------------
 Rotational constants (GHZ):           0.9216513           0.6188589           0.4591437
 Standard basis: def2SVP (5D, 7F)
 There are   264 symmetry adapted cartesian basis functions of A   symmetry.
 There are   251 symmetry adapted basis functions of A   symmetry.
   251 basis functions,   428 primitive gaussians,   264 cartesian basis functions
    52 alpha electrons       52 beta electrons
       nuclear repulsion energy       890.8615572603 Hartrees.
 NAtoms=   26 NActive=   26 NUniq=   26 SFac= 1.00D+00 NAtFMM=   60 NAOKFM=F Big=F
 Integral buffers will be    131072 words long.
 Raffenetti 2 integral format.
 Two-electron integral symmetry is turned on.
 Nuclear repulsion after empirical dispersion term =      890.8393866977 Hartrees.
 ------------------------------------------------------------------------------
 Polarizable Continuum Model (PCM)
 =================================
 Model                : PCM.
 Atomic radii         : UFF (Universal Force Field).
 Polarization charges : Total charges.
 Charge compensation  : None.
 Solution method      : Matrix inversion.
 Cavity type          : Scaled VdW (van der Waals Surface) (Alpha=1.100).
 Cavity algorithm     : GePol (No added spheres)
                        Default sphere list used, NSphG=   26.
                        Lebedev-Laikov grids with approx.  5.0 points / Ang**2.
                        Smoothing algorithm: York/Karplus (Gamma=1.0000).
                        Polarization charges: spherical gaussians, with
                                              point-specific exponents (IZeta= 3).
                        Self-potential: point-specific (ISelfS= 7).
                        Self-field    : sphere-specific E.n sum rule (ISelfD= 2).
 1st derivatives      : Analytical E(r).r(x)/FMM algorithm (CHGder, D1EAlg=3).
                        Cavity 1st derivative terms included.
 Solvent              : Toluene, Eps=   2.374100 Eps(inf)=   2.238315
 ------------------------------------------------------------------------------
 One-electron integrals computed using PRISM.
   1 Symmetry operations used in ECPInt.
 ECPInt:  NShTT=    7140 NPrTT=   26096 LenC2=    6968 LenP2D=   19325.
 LDataN:  DoStor=T MaxTD1= 4 Len=   56
 NBasis=   251 RedAO= T EigKep=  5.51D-04  NBF=   251
 NBsUse=   251 1.00D-06 EigRej= -1.00D+00 NBFU=   251
 Initial guess from the checkpoint file:  "imda-1_1_opt_dft.chk"
 B after Tr=     0.000000   -0.000000   -0.000000
         Rot=    0.999777    0.009400   -0.000440    0.018908 Ang=   2.42 deg.
 ExpMin= 1.22D-01 ExpMax= 1.04D+04 ExpMxC= 1.57D+03 IAcc=3 IRadAn=         5 AccDes= 0.00D+00
 Harris functional with IExCor= 4639 and IRadAn=       5 diagonalized for initial guess.
[...]
     23          1           0       -3.956437    1.861627   -0.055526
     24          1           0       -3.625269    1.337022   -1.726143
     25          1           0       -1.658072   -2.136969    1.897753
     26          1           0       -3.424669   -0.091830    1.688040
 ---------------------------------------------------------------------
 Rotational constants (GHZ):           0.8858152           0.5798464           0.4151006

 **********************************************************************

            Population analysis using the SCF Density.

 **********************************************************************

 Orbital symmetries:
       Occupied  (A) (A) (A) (A) (A) (A) (A) (A) (A) (A) (A) (A)
                 (A) (A) (A) (A) (A) (A) (A) (A) (A) (A) (A) (A)
                 (A) (A) (A) (A) (A) (A) (A) (A) (A) (A) (A) (A)
                 (A) (A) (A) (A) (A) (A) (A) (A) (A) (A) (A) (A)
                 (A) (A) (A) (A)
       Virtual   (A) (A) (A) (A) (A) (A) (A) (A) (A) (A) (A) (A)
                 (A) (A) (A) (A) (A) (A) (A) (A) (A) (A) (A) (A)
                 (A) (A) (A) (A) (A) (A) (A) (A) (A) (A) (A) (A)
                 (A) (A) (A) (A) (A) (A) (A) (A) (A) (A) (A) (A)
                 (A) (A) (A) (A) (A) (A) (A) (A) (A) (A) (A) (A)
                 (A) (A) (A) (A) (A) (A) (A) (A) (A) (A) (A) (A)
                 (A) (A) (A) (A) (A) (A) (A) (A) (A) (A) (A) (A)
                 (A) (A) (A) (A) (A) (A) (A) (A) (A) (A) (A) (A)
                 (A) (A) (A) (A) (A) (A) (A) (A) (A) (A) (A) (A)
                 (A) (A) (A) (A) (A) (A) (A) (A) (A) (A) (A) (A)
                 (A) (A) (A) (A) (A) (A) (A) (A) (A) (A) (A) (A)
                 (A) (A) (A) (A) (A) (A) (A) (A) (A) (A) (A) (A)
                 (A) (A) (A) (A) (A) (A) (A) (A) (A) (A) (A) (A)
                 (A) (A) (A) (A) (A) (A) (A) (A) (A) (A) (A) (A)
                 (A) (A) (A) (A) (A) (A) (A) (A) (A) (A) (A) (A)
                 (A) (A) (A) (A) (A) (A) (A) (A) (A) (A) (A) (A)
                 (A) (A) (A) (A) (A) (A) (A)
 The electronic state is 1-A.
 Alpha  occ. eigenvalues -- -101.68792 -19.25540 -10.40036 -10.36783 -10.32225
 Alpha  occ. eigenvalues --  -10.31257 -10.31231 -10.30186 -10.30080 -10.30049
 Alpha  occ. eigenvalues --  -10.29685 -10.29206 -10.29009  -9.59535  -7.34903
 Alpha  occ. eigenvalues --   -7.33980  -7.33911  -1.14496  -0.97845  -0.96150
 Alpha  occ. eigenvalues --   -0.89929  -0.86026  -0.83819  -0.79554  -0.77588
 Alpha  occ. eigenvalues --   -0.72959  -0.70512  -0.62718  -0.61631  -0.60762
 Alpha  occ. eigenvalues --   -0.59598  -0.57496  -0.55473  -0.54839  -0.53433
 Alpha  occ. eigenvalues --   -0.52543  -0.49932  -0.49800  -0.48950  -0.48601
 Alpha  occ. eigenvalues --   -0.47408  -0.45893  -0.45351  -0.44687  -0.43062
 Alpha  occ. eigenvalues --   -0.42832  -0.41364  -0.40117  -0.38206  -0.34788
 Alpha  occ. eigenvalues --   -0.33875  -0.28291
 Alpha virt. eigenvalues --    0.02907   0.04842   0.07752   0.12606   0.13318
 Alpha virt. eigenvalues --    0.14511   0.15303   0.16453   0.17480   0.18562
 Alpha virt. eigenvalues --    0.19276   0.20642   0.21731   0.22243   0.22717
 Alpha virt. eigenvalues --    0.23744   0.24457   0.24781   0.26447   0.30017
 Alpha virt. eigenvalues --    0.30784   0.31259   0.33804   0.34665   0.36750
 Alpha virt. eigenvalues --    0.38914   0.40364   0.41233   0.42467   0.44765
 Alpha virt. eigenvalues --    0.47607   0.48133   0.50877   0.52179   0.52735
 Alpha virt. eigenvalues --    0.53420   0.54230   0.54909   0.55709   0.56895
 Alpha virt. eigenvalues --    0.58011   0.58546   0.60434   0.62884   0.63507
 Alpha virt. eigenvalues --    0.64842   0.66072   0.68548   0.69047   0.69806
 Alpha virt. eigenvalues --    0.70314   0.70822   0.71221   0.72450   0.73109
 Alpha virt. eigenvalues --    0.73723   0.73907   0.74716   0.74998   0.75883
 Alpha virt. eigenvalues --    0.76328   0.77153   0.77608   0.78334   0.78470
 Alpha virt. eigenvalues --    0.78677   0.79581   0.80032   0.80950   0.82458
 Alpha virt. eigenvalues --    0.83148   0.83350   0.84593   0.86757   0.87065
 Alpha virt. eigenvalues --    0.88577   0.89863   0.91025   0.91876   0.93065
 Alpha virt. eigenvalues --    0.95057   0.97094   0.98635   1.01975   1.04175
 Alpha virt. eigenvalues --    1.06594   1.08173   1.09349   1.10834   1.13708
 Alpha virt. eigenvalues --    1.14747   1.17494   1.18921   1.23659   1.24347
 Alpha virt. eigenvalues --    1.25032   1.26651   1.29868   1.33412   1.34370
 Alpha virt. eigenvalues --    1.34444   1.37731   1.41339   1.43926   1.46011
 Alpha virt. eigenvalues --    1.55224   1.58549   1.59905   1.60850   1.62045
 Alpha virt. eigenvalues --    1.62364   1.65665   1.66097   1.66653   1.69615
 Alpha virt. eigenvalues --    1.70826   1.73577   1.75480   1.77799   1.79283
 Alpha virt. eigenvalues --    1.80784   1.81439   1.82698   1.83055   1.84111
 Alpha virt. eigenvalues --    1.85126   1.85873   1.86640   1.87528   1.88328
 Alpha virt. eigenvalues --    1.89941   1.91041   1.91953   1.94086   1.94486
 Alpha virt. eigenvalues --    1.96324   1.97120   1.99819   2.01382   2.03669
 Alpha virt. eigenvalues --    2.05166   2.06436   2.07717   2.08860   2.10328
 Alpha virt. eigenvalues --    2.14457   2.15602   2.16630   2.17267   2.18730
 Alpha virt. eigenvalues --    2.21554   2.24206   2.25382   2.29161   2.30511
 Alpha virt. eigenvalues --    2.33334   2.34810   2.35781   2.36342   2.39027
 Alpha virt. eigenvalues --    2.41319   2.42969   2.44757   2.48089   2.48541
 Alpha virt. eigenvalues --    2.49442   2.53024   2.56213   2.57713   2.65213
 Alpha virt. eigenvalues --    2.66249   2.68958   2.70789   2.73318   2.74607
 Alpha virt. eigenvalues --    2.76449   2.78424   2.79050   2.79367   2.81896
 Alpha virt. eigenvalues --    2.82215   2.83676   2.87514   2.92053   2.95151
 Alpha virt. eigenvalues --    2.99513   3.01189   3.02047   3.05220   3.08604
 Alpha virt. eigenvalues --    3.11770   3.13252   3.20356   3.21953   3.25889
 Alpha virt. eigenvalues --    3.27059   3.47920   3.48619   3.70753
          Condensed to atoms (all electrons):
               1          2          3          4          5          6
     1  C    5.082938   0.003638  -0.096533  -0.001401   0.590496  -0.002205
     2  C    0.003638   4.720833  -0.006981   0.630612   0.002710  -0.002697
     3  C   -0.096533  -0.006981   5.193626  -0.004973  -0.006498   0.582325
     4  C   -0.001401   0.630612  -0.004973   5.105333  -0.001385  -0.000412
     5  C    0.590496   0.002710  -0.006498  -0.001385   4.963799   0.274223
     6  C   -0.002205  -0.002697   0.582325  -0.000412   0.274223   4.989607
     7  C    0.010385  -0.001911   0.335159   0.013283   0.009904  -0.060841
     8  H   -0.000613   0.000408  -0.015117  -0.002235   0.000692  -0.015236
     9  H    0.000458  -0.000039  -0.000979   0.000001  -0.000655   0.001641
    10  C    0.000510   0.007638  -0.048499  -0.168871  -0.000432   0.002705
    11  H   -0.000013  -0.000303   0.006406   0.011210   0.000012  -0.000149
    12  H   -0.000012  -0.000359  -0.014679   0.002998   0.000074  -0.000153
    13  C    0.000079  -0.031475  -0.006731   0.269871   0.000023   0.001199
    14  O    0.000001   0.000282  -0.000079  -0.080345  -0.000000  -0.000001
    15  H   -0.000017   0.003464   0.004520   0.370433  -0.000881   0.002602
    16  H    0.000303   0.409426  -0.000198  -0.021213   0.001184  -0.000239
    17  C    0.334829  -0.000125   0.333560   0.003614  -0.091836  -0.109164
    18  H    0.003202   0.000155  -0.000877   0.000157   0.000345   0.000585
    19  H   -0.008334  -0.002524   0.001138  -0.009060   0.001302   0.003315
    20  Cl   0.000390   0.286339   0.000368  -0.085951  -0.000122   0.000069
    21  C    0.403550  -0.000142   0.009070   0.000021  -0.063935   0.010143
    22  H   -0.015849  -0.000557   0.000474   0.000052   0.001503  -0.000369
    23  H   -0.010491  -0.000004  -0.000598   0.000001  -0.012163   0.000428
    24  H   -0.015151   0.000026   0.000584  -0.000005   0.002866  -0.000540
    25  H    0.007434   0.000008  -0.065536  -0.000262  -0.053487   0.442439
    26  H   -0.064377  -0.000019   0.007764   0.000006   0.443962  -0.056682
               7          8          9         10         11         12
     1  C    0.010385  -0.000613   0.000458   0.000510  -0.000013  -0.000012
     2  C   -0.001911   0.000408  -0.000039   0.007638  -0.000303  -0.000359
     3  C    0.335159  -0.015117  -0.000979  -0.048499   0.006406  -0.014679
     4  C    0.013283  -0.002235   0.000001  -0.168871   0.011210   0.002998
     5  C    0.009904   0.000692  -0.000655  -0.000432   0.000012   0.000074
     6  C   -0.060841  -0.015236   0.001641   0.002705  -0.000149  -0.000153
     7  C    4.714264   0.380450   0.341715   0.307843  -0.009155  -0.007369
     8  H    0.380450   0.662711  -0.023237  -0.025777  -0.005179   0.006485
     9  H    0.341715  -0.023237   0.648839  -0.006448  -0.005947  -0.008258
    10  C    0.307843  -0.025777  -0.006448   5.092115   0.340937   0.350525
    11  H   -0.009155  -0.005179  -0.005947   0.340937   0.606439  -0.006019
    12  H   -0.007369   0.006485  -0.008258   0.350525  -0.006019   0.592272
    13  C   -0.035932  -0.007960   0.006605   0.294865  -0.007977  -0.004688
    14  O    0.004671   0.000154  -0.000163  -0.088119   0.007615   0.000925
    15  H    0.000342   0.000408   0.000161  -0.002711  -0.000284   0.000100
    16  H    0.000096   0.000004  -0.000003  -0.000399   0.000009   0.000024
    17  C   -0.079885   0.009917  -0.005739  -0.000278   0.000231   0.006712
    18  H    0.004138  -0.000269   0.001144  -0.001962  -0.000049   0.000642
    19  H   -0.010334  -0.000160   0.000148   0.006386  -0.000086   0.001200
    20  Cl   0.000016  -0.000003   0.000001  -0.002268  -0.000003   0.000826
    21  C   -0.000224   0.000006   0.000010   0.000000  -0.000000   0.000010
    22  H    0.000005  -0.000001   0.000003  -0.000011   0.000000  -0.000012
    23  H    0.000007  -0.000000  -0.000000   0.000000   0.000000  -0.000000
    24  H    0.000014   0.000000  -0.000007   0.000002  -0.000000   0.000003
    25  H   -0.012042   0.004813   0.000311   0.000140  -0.000008   0.000001
    26  H   -0.000312   0.000009   0.000006   0.000006  -0.000000  -0.000000
              13         14         15         16         17         18
     1  C    0.000079   0.000001  -0.000017   0.000303   0.334829   0.003202
     2  C   -0.031475   0.000282   0.003464   0.409426  -0.000125   0.000155
     3  C   -0.006731  -0.000079   0.004520  -0.000198   0.333560  -0.000877
     4  C    0.269871  -0.080345   0.370433  -0.021213   0.003614   0.000157
     5  C    0.000023  -0.000000  -0.000881   0.001184  -0.091836   0.000345
     6  C    0.001199  -0.000001   0.002602  -0.000239  -0.109164   0.000585
     7  C   -0.035932   0.004671   0.000342   0.000096  -0.079885   0.004138
     8  H   -0.007960   0.000154   0.000408   0.000004   0.009917  -0.000269
     9  H    0.006605  -0.000163   0.000161  -0.000003  -0.005739   0.001144
    10  C    0.294865  -0.088119  -0.002711  -0.000399  -0.000278  -0.001962
    11  H   -0.007977   0.007615  -0.000284   0.000009   0.000231  -0.000049
    12  H   -0.004688   0.000925   0.000100   0.000024   0.006712   0.000642
    13  C    4.767545   0.694993  -0.022582   0.006807  -0.004681   0.000266
    14  O    0.694993   7.684305   0.001268  -0.000144   0.000017  -0.000001
    15  H   -0.022582   0.001268   0.568739  -0.010885  -0.000285   0.000001
    16  H    0.006807  -0.000144  -0.010885   0.552860  -0.000184   0.000008
    17  C   -0.004681   0.000017  -0.000285  -0.000184   4.857272   0.332793
    18  H    0.000266  -0.000001   0.000001   0.000008   0.332793   0.610569
    19  H    0.000323  -0.000133   0.000045   0.000182   0.331628  -0.015246
    20  Cl   0.008324  -0.000849   0.003678  -0.037244  -0.006438   0.000014
    21  C   -0.000001  -0.000000   0.000001  -0.000001  -0.066844  -0.000785
    22  H    0.000001   0.000000   0.000000  -0.000106  -0.005836  -0.000082
    23  H   -0.000000   0.000000  -0.000000   0.000002   0.008809  -0.000241
    24  H    0.000000   0.000000  -0.000000   0.000002  -0.005676   0.001965
    25  H   -0.000008   0.000000   0.000665  -0.000006   0.014730  -0.000387
    26  H    0.000001  -0.000000  -0.000003   0.000016   0.015156  -0.000380
              19         20         21         22         23         24
     1  C   -0.008334   0.000390   0.403550  -0.015849  -0.010491  -0.015151
     2  C   -0.002524   0.286339  -0.000142  -0.000557  -0.000004   0.000026
     3  C    0.001138   0.000368   0.009070   0.000474  -0.000598   0.000584
     4  C   -0.009060  -0.085951   0.000021   0.000052   0.000001  -0.000005
     5  C    0.001302  -0.000122  -0.063935   0.001503  -0.012163   0.002866
     6  C    0.003315   0.000069   0.010143  -0.000369   0.000428  -0.000540
     7  C   -0.010334   0.000016  -0.000224   0.000005   0.000007   0.000014
     8  H   -0.000160  -0.000003   0.000006  -0.000001  -0.000000   0.000000
     9  H    0.000148   0.000001   0.000010   0.000003  -0.000000  -0.000007
    10  C    0.006386  -0.002268   0.000000  -0.000011   0.000000   0.000002
    11  H   -0.000086  -0.000003  -0.000000   0.000000   0.000000  -0.000000
    12  H    0.001200   0.000826   0.000010  -0.000012  -0.000000   0.000003
    13  C    0.000323   0.008324  -0.000001   0.000001  -0.000000   0.000000
    14  O   -0.000133  -0.000849  -0.000000   0.000000   0.000000   0.000000
    15  H    0.000045   0.003678   0.000001   0.000000  -0.000000  -0.000000
    16  H    0.000182  -0.037244  -0.000001  -0.000106   0.000002   0.000002
    17  C    0.331628  -0.006438  -0.066844  -0.005836   0.008809  -0.005676
    18  H   -0.015246   0.000014  -0.000785  -0.000082  -0.000241   0.001965
    19  H    0.639856   0.020203  -0.000654   0.003113  -0.000239  -0.000294
    20  Cl   0.020203  16.912538  -0.000901   0.003330   0.000003  -0.000001
    21  C   -0.000654  -0.000901   4.520593   0.379976   0.386428   0.383129
    22  H    0.003113   0.003330   0.379976   0.631300  -0.019720  -0.023131
    23  H   -0.000239   0.000003   0.386428  -0.019720   0.628550  -0.020345
    24  H   -0.000294  -0.000001   0.383129  -0.023131  -0.020345   0.631431
    25  H   -0.000336   0.000001  -0.000293   0.000007   0.000006   0.000005
    26  H   -0.000372  -0.000000  -0.010756   0.000137   0.004508   0.000091
              25         26
     1  C    0.007434  -0.064377
     2  C    0.000008  -0.000019
     3  C   -0.065536   0.007764
     4  C   -0.000262   0.000006
     5  C   -0.053487   0.443962
     6  C    0.442439  -0.056682
     7  C   -0.012042  -0.000312
     8  H    0.004813   0.000009
     9  H    0.000311   0.000006
    10  C    0.000140   0.000006
    11  H   -0.000008  -0.000000
    12  H    0.000001  -0.000000
    13  C   -0.000008   0.000001
    14  O    0.000000  -0.000000
    15  H    0.000665  -0.000003
    16  H   -0.000006   0.000016
    17  C    0.014730   0.015156
    18  H   -0.000387  -0.000380
    19  H   -0.000336  -0.000372
    20  Cl   0.000001  -0.000000
    21  C   -0.000293  -0.010756
    22  H    0.000007   0.000137
    23  H    0.000006   0.004508
    24  H    0.000005   0.000091
    25  H    0.659679  -0.003588
    26  H   -0.003588   0.659190
 Mulliken charges:
               1
     1  C   -0.223217
     2  C   -0.018402
     3  C   -0.206715
     4  C   -0.031481
     5  C   -0.061703
     6  C   -0.062594
     7  C    0.095714
     8  H    0.029730
     9  H    0.050430
    10  C   -0.057898
    11  H    0.062312
    12  H    0.078751
    13  C    0.071132
    14  O   -0.224398
    15  H    0.081222
    16  H    0.099698
    17  C    0.127705
    18  H    0.064294
    19  H    0.038933
    20  Cl  -0.102320
    21  C    0.051599
    22  H    0.045771
    23  H    0.035059
    24  H    0.045030
    25  H    0.005713
    26  H    0.005636
 Sum of Mulliken charges =  -0.00000
 Mulliken charges with hydrogens summed into heavy atoms:
               1
     1  C   -0.223217
     2  C    0.081296
     3  C   -0.206715
     4  C    0.049740
     5  C   -0.056067
     6  C   -0.056881
     7  C    0.175873
    10  C    0.083165
    13  C    0.071132
    14  O   -0.224398
    17  C    0.230932
    20  Cl  -0.102320
    21  C    0.177459
 Electronic spatial extent (au):  <R**2>=           2794.2912
 Charge=              0.0000 electrons
 Dipole moment (field-independent basis, Debye):
    X=             -3.0613    Y=             -1.4006    Z=              0.4734  Tot=              3.3997
 Quadrupole moment (field-independent basis, Debye-Ang):
   XX=            -98.8729   YY=            -80.8980   ZZ=            -77.0248
   XY=             -5.4598   XZ=              1.0319   YZ=              0.5631
 Traceless Quadrupole moment (field-independent basis, Debye-Ang):
   XX=            -13.2743   YY=              4.7006   ZZ=              8.5737
   XY=             -5.4598   XZ=              1.0319   YZ=              0.5631
 Octapole moment (field-independent basis, Debye-Ang**2):
  XXX=            -40.5798  YYY=              1.9955  ZZZ=              0.2185  XYY=             11.4444
  XXY=              9.4785  XXZ=              2.8097  XZZ=              2.1460  YZZ=              1.3158
  YYZ=             -0.2011  XYZ=              0.4091
 Hexadecapole moment (field-independent basis, Debye-Ang**3):
 XXXX=          -2232.3116 YYYY=          -1238.9044 ZZZZ=           -396.4924 XXXY=            -27.6000
 XXXZ=             -7.3642 YYYX=            -15.7652 YYYZ=             -1.4163 ZZZX=             -5.8469
 ZZZY=             -0.8100 XXYY=           -546.0909 XXZZ=           -388.2933 YYZZ=           -256.8847
 XXYZ=             -6.5176 YYXZ=             -7.7059 ZZXY=              4.7157
 N-N= 8.733625674461D+02 E-N=-4.003706638492D+03  KE= 9.552501096734D+02
 Unable to Open any file for archive entry.
 1\1\GINC-NODE-008\FTS\RwB97XD\def2SVP\C11H13Cl1O1\JP2658\21-Dec-2023\0
 \\# wb97xd def2svp scrf=(iefpcm,solvent=toluene) opt=(calcfc,ts,noeige
 n,maxcycles=50,maxstep=10)\\3a_exo_ts_26_reopt2.out\\0,1\C,-1.67612409
 92,-0.6018168422,3.6225969348\C,2.0288452747,-1.5305339608,3.390564965
 1\C,-0.9057133057,-1.1445940902,1.441534062\C,1.8965076827,-1.80125684
 4,2.0951151567\C,-1.9633387281,-1.8934353333,3.3465426923\C,-1.4910190
 936,-2.2260689862,2.000708453\C,-0.2358670733,-1.0494760761,0.10288594
 53\H,-0.1127076013,-2.0616188089,-0.3147254657\H,-0.8909819113,-0.5098
 944815,-0.6028897439\C,1.1079696826,-0.3119480073,0.1124574902\H,1.507
 6962391,-0.2049328598,-0.9070103641\H,0.9619192998,0.7200772537,0.4791
 677597\C,2.2365064623,-0.8681030394,0.9662346635\O,3.3825667494,-0.548
 59892,0.7569010308\H,1.488830275,-2.7805793113,1.8278577586\H,1.772786
 563,-2.2430711567,4.1758527239\C,-0.9999932127,-0.002863701,2.41932192
 33\H,-1.5876124073,0.8373045869,2.0045900941\H,-0.0141245682,0.4176358
 187,2.6840210449\Cl,2.5459601882,0.0118606715,4.00523184\C,-1.93594694
 94,0.1650802397,4.8773206233\H,-0.9917520441,0.526252048,5.3177552582\
 H,-2.4480423644,-0.4546745257,5.6266773671\H,-2.5586162013,1.054039027
 7,4.6846574596\H,-1.5735903741,-3.211749844,1.5376154224\H,-2.46025848
 28,-2.591632858,4.022914905\\Version=ES64L-G16RevC.01\State=1-A\HF=-96
 1.7027587\RMSD=9.987e-09\RMSF=2.646e-05\Dipole=-1.2874418,-0.3621416,0
 .0179947\Quadrupole=-10.2858694,5.8463278,4.4395416,-2.6436833,2.34592
 06,-0.1664816\PG=C01 [X(C11H13Cl1O1)]\\@
 The archive entry for this job was punched.


 THE THINKER DIES, BUT HIS THOUGHTS ARE BEYOND THE 
 REACH OF DESTRUCTION.  MEN ARE MORTAL; BUT IDEAS 
 ARE IMMORTAL.
                              -- WALTER LIPPMANN
 Job cpu time:       0 days  4 hours 44 minutes 58.9 seconds.
 Elapsed time:       0 days  0 hours 24 minutes 19.5 seconds.
 File lengths (MBytes):  RWF=    262 Int=      0 D2E=      0 Chk=     13 Scr=      1
 Normal termination of Gaussian 16 at Thu Dec 21 20:21:02 2023.
