Unloading slurm/anatra/current
  ERROR: No such file or directory on
    '/cm/local/modulefiles/slurm/anatra/current'
environment: line 0: unalias: gv: not found
environment: line 0: unalias: sl: not found
 Entering Gaussian System, Link 0=g16
 Initial command:
 /apps/gaussian/g16/C.01/g16/l1.exe "/local/jobs/1153168/Gau-1515658.inp" -scrdir="/local/jobs/1153168/"
 Entering Link 1 = /apps/gaussian/g16/C.01/g16/l1.exe PID=   1515659.
  
 Copyright (c) 1988-2019, Gaussian, Inc.  All Rights Reserved.
  
 This is part of the Gaussian(R) 16 program.  It is based on
 the Gaussian(R) 09 system (copyright 2009, Gaussian, Inc.),
 the Gaussian(R) 03 system (copyright 2003, Gaussian, Inc.),
 the Gaussian(R) 98 system (copyright 1998, Gaussian, Inc.),
 the Gaussian(R) 94 system (copyright 1995, Gaussian, Inc.),
 the Gaussian 92(TM) system (copyright 1992, Gaussian, Inc.),
 the Gaussian 90(TM) system (copyright 1990, Gaussian, Inc.),
 the Gaussian 88(TM) system (copyright 1988, Gaussian, Inc.),
 the Gaussian 86(TM) system (copyright 1986, Carnegie Mellon
 University), and the Gaussian 82(TM) system (copyright 1983,
 Carnegie Mellon University). Gaussian is a federally registered
 trademark of Gaussian, Inc.
  
 This software contains proprietary and confidential information,
 including trade secrets, belonging to Gaussian, Inc.
  
 This software is provided under written license and may be
 used, copied, transmitted, or stored only in accord with that
 written license.
  
 The following legend is applicable only to US Government
 contracts under FAR:
  
                    RESTRICTED RIGHTS LEGEND
  
 Use, reproduction and disclosure by the US Government is
 subject to restrictions as set forth in subparagraphs (a)
 and (c) of the Commercial Computer Software - Restricted
 Rights clause in FAR 52.227-19.
  
 Gaussian, Inc.
 340 Quinnipiac St., Bldg. 40, Wallingford CT 06492
  
  
 ---------------------------------------------------------------
 Warning -- This program may not be used in any manner that
 competes with the business of Gaussian, Inc. or will provide
 assistance to any competitor of Gaussian, Inc.  The licensee
 of this program is prohibited from giving any competitor of
 Gaussian, Inc. access to this program.  By using this program,
 the user acknowledges that Gaussian, Inc. is engaged in the
 business of creating and licensing software in the field of
 computational chemistry and represents and warrants to the
 licensee that it is not a competitor of Gaussian, Inc. and that
 it will not use this program in any manner prohibited above.
 ---------------------------------------------------------------
  

 Cite this work as:
 Gaussian 16, Revision C.01,
 M. J. Frisch, G. W. Trucks, H. B. Schlegel, G. E. Scuseria, 
 M. A. Robb, J. R. Cheeseman, G. Scalmani, V. Barone, 
 G. A. Petersson, H. Nakatsuji, X. Li, M. Caricato, A. V. Marenich, 
 J. Bloino, B. G. Janesko, R. Gomperts, B. Mennucci, H. P. Hratchian, 
 J. V. Ortiz, A. F. Izmaylov, J. L. Sonnenberg, D. Williams-Young, 
 F. Ding, F. Lipparini, F. Egidi, J. Goings, B. Peng, A. Petrone, 
 T. Henderson, D. Ranasinghe, V. G. Zakrzewski, J. Gao, N. Rega, 
 G. Zheng, W. Liang, M. Hada, M. Ehara, K. Toyota, R. Fukuda, 
 J. Hasegawa, M. Ishida, T. Nakajima, Y. Honda, O. Kitao, H. Nakai, 
 T. Vreven, K. Throssell, J. A. Montgomery, Jr., J. E. Peralta, 
 F. Ogliaro, M. J. Bearpark, J. J. Heyd, E. N. Brothers, K. N. Kudin, 
 V. N. Staroverov, T. A. Keith, R. Kobayashi, J. Normand, 
 K. Raghavachari, A. P. Rendell, J. C. Burant, S. S. Iyengar, 
 J. Tomasi, M. Cossi, J. M. Millam, M. Klene, C. Adamo, R. Cammi, 
 J. W. Ochterski, R. L. Martin, K. Morokuma, O. Farkas, 
 J. B. Foresman, and D. J. Fox, Gaussian, Inc., Wallingford CT, 2019.
 
 ******************************************
 Gaussian 16:  ES64L-G16RevC.01  3-Jul-2019
                30-Dec-2023 
 ******************************************
 %chk=imda-1_1_opt_dft_reopt_freq.chk
 %nprocshared=12
 Will use up to   12 processors via shared memory.
 %mem=48GB
 -----------------------------------------------------------
 # wb97xd def2svp scrf=(iefpcm,solvent=toluene) freq=noraman
 -----------------------------------------------------------
 1/10=4,30=1,38=1/1,3;
 2/12=2,17=6,18=5,40=1/2;
 3/5=43,7=101,11=2,25=1,30=1,70=2201,71=2,72=13,74=-58,140=1/1,2,3;
 4//1;
 5/5=2,38=5,53=13,98=1/2;
 8/6=4,10=90,11=11/1;
 11/6=1,8=1,9=11,15=111,16=1/1,2,10;
 10/6=1/2;
 6/7=2,8=2,9=2,10=2,28=1/1;
 7/8=1,10=1,25=1/1,2,3,16;
 1/10=4,30=1/3;
 99//99;
 --------------------------
 imda-1_1_opt_dft_reopt.out
 --------------------------
 Symbolic Z-matrix:
 Charge =  0 Multiplicity = 1
 C                    -2.46508   0.31818  -0.2213 
 C                     0.99074   1.27078   1.11772 
 C                    -0.92177  -1.47914  -0.03966 
 C                     1.36772  -0.00456   1.09818 
 C                    -2.67344  -0.34554   0.93759 
 C                    -1.72385  -1.45519   1.04706 
 C                     0.22401  -2.40626  -0.31779 
 H                     0.45976  -2.97682   0.59484 
 H                    -0.07779  -3.15426  -1.07134 
 C                     1.48483  -1.71962  -0.85518 
 H                     2.25745  -2.45861  -1.11501 
 H                     1.24891  -1.19847  -1.8005 
 C                     2.16253  -0.66622   0.00675 
 O                     3.31062  -0.34965  -0.1958 
 H                     1.05812  -0.63063   1.94014 
 H                     0.41729   1.70859   1.9359 
 C                    -1.34605  -0.36468  -0.95969 
 H                    -1.68798  -0.75469  -1.9365 
 H                    -0.52742   0.34117  -1.1843 
 Cl                    1.28735   2.38384  -0.1851 
 C                    -3.16578   1.52939  -0.74281 
 H                    -2.45701   2.363    -0.8794 
 H                    -3.95644   1.86163  -0.05553 
 H                    -3.62527   1.33702  -1.72614 
 H                    -1.65807  -2.13697   1.89775 
 H                    -3.42467  -0.09183   1.68804 
 

 GradGradGradGradGradGradGradGradGradGradGradGradGradGradGradGradGradGrad
 Berny optimization.
 Initialization pass.
 Trust Radius=3.00D-01 FncErr=1.00D-07 GrdErr=1.00D-07 EigMax=2.50D+02 EigMin=1.00D-04
 Number of steps in this run=      2 maximum allowed number of steps=      2.
 GradGradGradGradGradGradGradGradGradGradGradGradGradGradGradGradGradGrad

                          Input orientation:                          
 ---------------------------------------------------------------------
 Center     Atomic      Atomic             Coordinates (Angstroms)
 Number     Number       Type             X           Y           Z
 ---------------------------------------------------------------------
      1          6           0       -2.465080    0.318180   -0.221300
      2          6           0        0.990740    1.270780    1.117720
      3          6           0       -0.921770   -1.479140   -0.039660
      4          6           0        1.367720   -0.004560    1.098180
      5          6           0       -2.673440   -0.345540    0.937590
      6          6           0       -1.723850   -1.455190    1.047060
      7          6           0        0.224010   -2.406260   -0.317790
      8          1           0        0.459760   -2.976820    0.594840
      9          1           0       -0.077790   -3.154260   -1.071340
     10          6           0        1.484830   -1.719620   -0.855180
     11          1           0        2.257450   -2.458610   -1.115010
     12          1           0        1.248910   -1.198470   -1.800500
     13          6           0        2.162530   -0.666220    0.006750
     14          8           0        3.310620   -0.349650   -0.195800
     15          1           0        1.058120   -0.630630    1.940140
     16          1           0        0.417290    1.708590    1.935900
     17          6           0       -1.346050   -0.364680   -0.959690
     18          1           0       -1.687980   -0.754690   -1.936500
     19          1           0       -0.527420    0.341170   -1.184300
     20         17           0        1.287350    2.383840   -0.185100
     21          6           0       -3.165780    1.529390   -0.742810
     22          1           0       -2.457010    2.363000   -0.879400
     23          1           0       -3.956440    1.861630   -0.055530
     24          1           0       -3.625270    1.337020   -1.726140
     25          1           0       -1.658070   -2.136970    1.897750
     26          1           0       -3.424670   -0.091830    1.688040
 ---------------------------------------------------------------------
                    Distance matrix (angstroms):
                    1          2          3          4          5
     1  C    0.000000
     2  C    3.826632   0.000000
     3  C    2.375954   3.543908   0.000000
     4  C    4.066392   1.330033   2.951412   0.000000
     5  C    1.351652   4.008884   2.304000   4.058698   0.000000
     6  C    2.302824   3.847714   1.350876   3.415369   1.464591
     7  C    3.829241   4.021093   1.499907   3.013504   3.770645
     8  H    4.480826   4.312476   2.134071   3.148344   4.105856
     9  H    4.298786   5.051210   2.140723   4.088634   4.319966
    10  C    4.489568   3.616483   2.552377   2.602069   4.732159
    11  H    5.550817   4.527470   3.496166   3.422308   5.743858
    12  H    4.311360   3.831430   2.809125   3.137177   4.858956
    13  C    4.736647   2.521768   3.189969   1.503575   4.935170
    14  O    5.814237   3.119771   4.383292   2.359731   6.090449
    15  H    4.240873   2.072746   2.925669   1.093944   3.874393
    16  H    3.859379   1.090844   3.982153   2.130722   3.843005
    17  C    1.504575   3.528590   1.506151   3.424772   2.315600
    18  H    2.167221   4.539419   2.170232   4.371416   3.065767
    19  H    2.163891   2.910031   2.186148   2.986771   3.095059
    20  Cl   4.283572   1.739028   4.452413   2.712512   4.939413
    21  C    1.493313   4.561262   3.818541   5.127852   2.565444
    22  H    2.148127   4.131394   4.221867   4.913728   3.268713
    23  H    2.152643   5.118614   4.513338   5.758506   2.739339
    24  H    2.156066   5.422128   4.252515   5.891228   3.291268
    25  H    3.342065   4.386046   2.174497   3.787069   2.272027
    26  H    2.175891   4.655944   3.342766   4.829343   1.091737
                    6          7          8          9         10
     6  C    0.000000
     7  C    2.561544   0.000000
     8  H    2.699632   1.101821   0.000000
     9  H    3.175527   1.103823   1.759716   0.000000
    10  C    3.739528   1.532948   2.175748   2.132299   0.000000
    11  H    4.640275   2.184761   2.534525   2.437044   1.100254
    12  H    4.124537   2.169702   3.085926   2.473241   1.104937
    13  C    4.099838   2.625057   2.929872   3.517336   1.520478
    14  O    5.302151   3.711022   3.956581   4.484833   2.375944
    15  H    3.035926   2.991128   2.769923   4.089989   3.030148
    16  H    3.922247   4.695579   4.873737   5.738981   4.547790
    17  C    2.314949   2.654274   3.535645   3.066383   3.140170
    18  H    3.064901   3.000602   3.994788   3.016480   3.488132
    19  H    3.104404   2.977223   3.892161   3.526040   2.899021
    20  Cl   5.032265   4.908498   5.479953   5.772312   4.162498
    21  C    3.767030   5.211589   5.936310   5.619626   5.674228
    22  H    4.339049   5.499920   6.260560   6.011463   5.675075
    23  H    4.147464   5.979952   6.583039   6.421444   6.562942
    24  H    4.370638   5.550905   6.378372   5.760640   6.017869
    25  H    1.092165   2.919479   2.624524   3.513924   4.198884
    26  H    2.272090   4.763697   4.960549   5.309827   5.763754
                   11         12         13         14         15
    11  H    0.000000
    12  H    1.753568   0.000000
    13  C    2.116605   2.093835   0.000000
    14  O    2.530183   2.747036   1.208037   0.000000
    15  H    3.756840   3.788302   2.226878   3.116881   0.000000
    16  H    5.482682   4.806587   3.522386   4.141480   2.425414
    17  C    4.170597   2.852365   3.651721   4.718933   3.776212
    18  H    4.375455   2.973341   4.313986   5.308493   4.752346
    19  H    3.949566   2.430132   3.109544   4.023048   3.635995
    20  Cl   5.025450   3.929878   3.178933   3.400839   3.695432
    21  C    6.741966   5.296170   5.811491   6.765631   5.450251
    22  H    6.747560   5.221718   5.594782   6.410252   5.409969
    23  H    7.641950   6.285284   6.620853   7.597341   5.944735
    24  H    7.027566   5.494713   6.365101   7.300231   6.264774
    25  H    4.950906   4.796704   4.509542   5.680259   3.106211
    26  H    6.763522   5.936069   5.862889   6.998532   4.522086
                   16         17         18         19         20
    16  H    0.000000
    17  C    3.973947   0.000000
    18  H    5.049296   1.105975   0.000000
    19  H    3.535246   1.104006   1.764543   0.000000
    20  Cl   2.389897   3.884475   4.665872   2.909346   0.000000
    21  C    4.477275   2.635518   2.970827   2.927067   4.568533
    22  H    4.076244   2.946340   3.380659   2.811419   3.808244
    23  H    4.808194   3.547971   3.940697   3.917154   5.271321
    24  H    5.467256   2.945857   2.858775   3.298785   5.253996
    25  H    4.370001   3.376882   4.075913   4.113220   5.783726
    26  H    4.250130   3.377215   4.073422   4.102668   5.642759
                   21         22         23         24         25
    21  C    0.000000
    22  H    1.102686   0.000000
    23  H    1.099036   1.782814   0.000000
    24  H    1.102304   1.770434   1.782085   0.000000
    25  H    4.763186   5.347953   5.008653   5.391759   0.000000
    26  H    2.933327   3.681617   2.671857   3.706545   2.710618
                   26
    26  H    0.000000
 Stoichiometry    C11H13ClO
 Framework group  C1[X(C11H13ClO)]
 Deg. of freedom    72
 Full point group                 C1      NOp   1
 Largest Abelian subgroup         C1      NOp   1
 Largest concise Abelian subgroup C1      NOp   1
                         Standard orientation:                         
 ---------------------------------------------------------------------
 Center     Atomic      Atomic             Coordinates (Angstroms)
 Number     Number       Type             X           Y           Z
 ---------------------------------------------------------------------
      1          6           0       -2.465080    0.318180   -0.221301
      2          6           0        0.990741    1.270779    1.117719
      3          6           0       -0.921770   -1.479140   -0.039661
      4          6           0        1.367720   -0.004561    1.098179
      5          6           0       -2.673440   -0.345540    0.937589
      6          6           0       -1.723850   -1.455190    1.047059
      7          6           0        0.224010   -2.406260   -0.317791
      8          1           0        0.459760   -2.976821    0.594839
      9          1           0       -0.077790   -3.154260   -1.071341
     10          6           0        1.484830   -1.719621   -0.855181
     11          1           0        2.257450   -2.458611   -1.115011
     12          1           0        1.248910   -1.198471   -1.800501
     13          6           0        2.162530   -0.666221    0.006749
     14          8           0        3.310620   -0.349651   -0.195801
     15          1           0        1.058120   -0.630631    1.940139
     16          1           0        0.417291    1.708589    1.935899
     17          6           0       -1.346050   -0.364680   -0.959691
     18          1           0       -1.687980   -0.754690   -1.936501
     19          1           0       -0.527420    0.341170   -1.184301
     20         17           0        1.287351    2.383839   -0.185101
     21          6           0       -3.165779    1.529390   -0.742811
     22          1           0       -2.457009    2.363000   -0.879401
     23          1           0       -3.956439    1.861630   -0.055531
     24          1           0       -3.625269    1.337020   -1.726141
     25          1           0       -1.658070   -2.136970    1.897749
     26          1           0       -3.424670   -0.091830    1.688039
 ---------------------------------------------------------------------
 Rotational constants (GHZ):           0.8858142           0.5798466           0.4151004
 Standard basis: def2SVP (5D, 7F)
 There are   264 symmetry adapted cartesian basis functions of A   symmetry.
 There are   251 symmetry adapted basis functions of A   symmetry.
   251 basis functions,   428 primitive gaussians,   264 cartesian basis functions
    52 alpha electrons       52 beta electrons
       nuclear repulsion energy       873.3830011953 Hartrees.
 NAtoms=   26 NActive=   26 NUniq=   26 SFac= 1.00D+00 NAtFMM=   60 NAOKFM=F Big=F
 Integral buffers will be    131072 words long.
 Raffenetti 2 integral format.
 Two-electron integral symmetry is turned on.
 Nuclear repulsion after empirical dispersion term =      873.3624725939 Hartrees.
 Force inversion solution in PCM.
 ------------------------------------------------------------------------------
 Polarizable Continuum Model (PCM)
 =================================
 Model                : PCM.
 Atomic radii         : UFF (Universal Force Field).
 Polarization charges : Total charges.
 Charge compensation  : None.
 Solution method      : Matrix inversion.
 Cavity type          : Scaled VdW (van der Waals Surface) (Alpha=1.100).
 Cavity algorithm     : GePol (No added spheres)
                        Default sphere list used, NSphG=   26.
                        Lebedev-Laikov grids with approx.  5.0 points / Ang**2.
                        Smoothing algorithm: York/Karplus (Gamma=1.0000).
                        Polarization charges: spherical gaussians, with
                                              point-specific exponents (IZeta= 3).
                        Self-potential: point-specific (ISelfS= 7).
                        Self-field    : sphere-specific E.n sum rule (ISelfD= 2).
 1st derivatives      : Analytical E(r).r(x)/FMM algorithm (CHGder, D1EAlg=3).
                        Cavity 1st derivative terms included.
 2nd derivatives      : Analytical E(r).r(xy)/FMM algorithm (CHGder, D2EAlg=3).
                        Cavity 2nd derivative terms included.
 Solvent              : Toluene, Eps=   2.374100 Eps(inf)=   2.238315
 ------------------------------------------------------------------------------
 One-electron integrals computed using PRISM.
   1 Symmetry operations used in ECPInt.
 ECPInt:  NShTT=    7140 NPrTT=   26096 LenC2=    6946 LenP2D=   19119.
 LDataN:  DoStor=T MaxTD1= 4 Len=   56
 NBasis=   251 RedAO= T EigKep=  5.71D-04  NBF=   251
 NBsUse=   251 1.00D-06 EigRej= -1.00D+00 NBFU=   251
 ExpMin= 1.22D-01 ExpMax= 1.04D+04 ExpMxC= 1.57D+03 IAcc=3 IRadAn=         5 AccDes= 0.00D+00
 Harris functional with IExCor= 4639 and IRadAn=       5 diagonalized for initial guess.
 HarFok:  IExCor= 4639 AccDes= 0.00D+00 IRadAn=         5 IDoV= 1 UseB2=F ITyADJ=14
 ICtDFT=  3500011 ScaDFX=  1.000000  1.000000  1.000000  1.000000
 FoFCou: FMM=F IPFlag=           0 FMFlag=      100000 FMFlg1=           0
         NFxFlg=           0 DoJE=T BraDBF=F KetDBF=T FulRan=T
         wScrn=  0.000000 ICntrl=       500 IOpCl=  0 I1Cent=   200000004 NGrid=           0
         NMat0=    1 NMatS0=      1 NMatT0=    0 NMatD0=    1 NMtDS0=    0 NMtDT0=    0
 Petite list used in FoFCou.
 Requested convergence on RMS density matrix=1.00D-08 within 128 cycles.
 Requested convergence on MAX density matrix=1.00D-06.
 Requested convergence on             energy=1.00D-06.
 No special actions if energy rises.
 Inv3:  Mode=1 IEnd=    11952048.
 Iteration    1 A*A^-1 deviation from unit magnitude is 2.89D-15 for   1532.
 Iteration    1 A*A^-1 deviation from orthogonality  is 2.08D-15 for   1258    190.
 Iteration    1 A^-1*A deviation from unit magnitude is 2.66D-15 for   1532.
 Iteration    1 A^-1*A deviation from orthogonality  is 2.07D-15 for   1159    564.
 Error on total polarization charges =  0.00623
 SCF Done:  E(RwB97XD) =  -961.702758739     A.U. after   15 cycles
            NFock= 15  Conv=0.48D-08     -V/T= 2.0068
 DoSCS=F DFT=T ScalE2(SS,OS)=  1.000000  1.000000
 Range of M.O.s used for correlation:     1   251
 NBasis=   251 NAE=    52 NBE=    52 NFC=     0 NFV=     0
 NROrb=    251 NOA=    52 NOB=    52 NVA=   199 NVB=   199

 **** Warning!!: The largest alpha MO coefficient is  0.10340295D+02

   1 Symmetry operations used in ECPInt.
 ECPInt:  NShTT=    7140 NPrTT=   26096 LenC2=    6946 LenP2D=   19119.
 LDataN:  DoStor=T MaxTD1= 5 Len=  102
 Symmetrizing basis deriv contribution to polar:
 IMax=3 JMax=2 DiffMx= 0.00D+00
 G2DrvN: will do    27 centers at a time, making    1 passes.
 Calling FoFCou, ICntrl=  3107 FMM=F I1Cent=   0 AccDes= 0.00D+00.
 NEqPCM:  Using equilibrium solvation (IEInf=0, Eps=   2.3741, EpsInf=   2.2383)
 G2PCM: DoFxE=T DoFxN=T DoGrad=T DoDP/DQ/DG/TGxP=FFFF NFrqRd=   0 IEInf=0 SqF1=F DoCFld=F IF1Alg=4.
 End of G2Drv F.D. properties file   721 does not exist.
 End of G2Drv F.D. properties file   722 does not exist.
 End of G2Drv F.D. properties file   788 does not exist.
          IDoAtm=11111111111111111111111111
 NEqPCM:  Using equilibrium solvation (IEInf=0, Eps=   2.3741, EpsInf=   2.2383)
          Differentiating once with respect to electric field.
                with respect to dipole field.
          Differentiating once with respect to nuclear coordinates.
 Keep R1 ints in memory in canonical form, NReq=1021395223.
          There are    81 degrees of freedom in the 1st order CPHF.  IDoFFX=6 NUNeed=     3.
     78 vectors produced by pass  0 Test12= 1.28D-14 1.23D-09 XBig12= 5.87D+01 2.58D+00.
 AX will form    78 AO Fock derivatives at one time.
     78 vectors produced by pass  1 Test12= 1.28D-14 1.23D-09 XBig12= 5.33D+00 4.42D-01.
     78 vectors produced by pass  2 Test12= 1.28D-14 1.23D-09 XBig12= 1.77D-01 5.72D-02.
     78 vectors produced by pass  3 Test12= 1.28D-14 1.23D-09 XBig12= 2.02D-03 5.74D-03.
     78 vectors produced by pass  4 Test12= 1.28D-14 1.23D-09 XBig12= 1.34D-05 4.23D-04.
     78 vectors produced by pass  5 Test12= 1.28D-14 1.23D-09 XBig12= 7.32D-08 3.64D-05.
     65 vectors produced by pass  6 Test12= 1.28D-14 1.23D-09 XBig12= 3.55D-10 1.99D-06.
     20 vectors produced by pass  7 Test12= 1.28D-14 1.23D-09 XBig12= 1.68D-12 1.21D-07.
      3 vectors produced by pass  8 Test12= 1.28D-14 1.23D-09 XBig12= 7.57D-15 7.72D-09.
 InvSVY:  IOpt=1 It=  1 EMax= 5.33D-15
 Solved reduced A of dimension   556 with    81 vectors.
 Isotropic polarizability for W=    0.000000      137.36 Bohr**3.
 End of Minotr F.D. properties file   721 does not exist.
 End of Minotr F.D. properties file   722 does not exist.
 End of Minotr F.D. properties file   788 does not exist.

 **********************************************************************

            Population analysis using the SCF Density.

 **********************************************************************

 Orbital symmetries:
       Occupied  (A) (A) (A) (A) (A) (A) (A) (A) (A) (A) (A) (A)
                 (A) (A) (A) (A) (A) (A) (A) (A) (A) (A) (A) (A)
                 (A) (A) (A) (A) (A) (A) (A) (A) (A) (A) (A) (A)
                 (A) (A) (A) (A) (A) (A) (A) (A) (A) (A) (A) (A)
                 (A) (A) (A) (A)
       Virtual   (A) (A) (A) (A) (A) (A) (A) (A) (A) (A) (A) (A)
                 (A) (A) (A) (A) (A) (A) (A) (A) (A) (A) (A) (A)
                 (A) (A) (A) (A) (A) (A) (A) (A) (A) (A) (A) (A)
                 (A) (A) (A) (A) (A) (A) (A) (A) (A) (A) (A) (A)
                 (A) (A) (A) (A) (A) (A) (A) (A) (A) (A) (A) (A)
                 (A) (A) (A) (A) (A) (A) (A) (A) (A) (A) (A) (A)
                 (A) (A) (A) (A) (A) (A) (A) (A) (A) (A) (A) (A)
                 (A) (A) (A) (A) (A) (A) (A) (A) (A) (A) (A) (A)
                 (A) (A) (A) (A) (A) (A) (A) (A) (A) (A) (A) (A)
                 (A) (A) (A) (A) (A) (A) (A) (A) (A) (A) (A) (A)
                 (A) (A) (A) (A) (A) (A) (A) (A) (A) (A) (A) (A)
                 (A) (A) (A) (A) (A) (A) (A) (A) (A) (A) (A) (A)
                 (A) (A) (A) (A) (A) (A) (A) (A) (A) (A) (A) (A)
                 (A) (A) (A) (A) (A) (A) (A) (A) (A) (A) (A) (A)
                 (A) (A) (A) (A) (A) (A) (A) (A) (A) (A) (A) (A)
                 (A) (A) (A) (A) (A) (A) (A) (A) (A) (A) (A) (A)
                 (A) (A) (A) (A) (A) (A) (A)
 The electronic state is 1-A.
 Alpha  occ. eigenvalues -- -101.68792 -19.25540 -10.40036 -10.36783 -10.32225
 Alpha  occ. eigenvalues --  -10.31257 -10.31231 -10.30186 -10.30080 -10.30049
 Alpha  occ. eigenvalues --  -10.29685 -10.29206 -10.29009  -9.59535  -7.34903
 Alpha  occ. eigenvalues --   -7.33980  -7.33911  -1.14496  -0.97845  -0.96150
 Alpha  occ. eigenvalues --   -0.89929  -0.86026  -0.83819  -0.79554  -0.77588
 Alpha  occ. eigenvalues --   -0.72959  -0.70512  -0.62718  -0.61631  -0.60762
 Alpha  occ. eigenvalues --   -0.59598  -0.57496  -0.55473  -0.54839  -0.53433
 Alpha  occ. eigenvalues --   -0.52543  -0.49932  -0.49800  -0.48950  -0.48601
 Alpha  occ. eigenvalues --   -0.47408  -0.45893  -0.45351  -0.44687  -0.43062
 Alpha  occ. eigenvalues --   -0.42832  -0.41364  -0.40117  -0.38205  -0.34788
 Alpha  occ. eigenvalues --   -0.33875  -0.28291
 Alpha virt. eigenvalues --    0.02907   0.04842   0.07752   0.12606   0.13318
 Alpha virt. eigenvalues --    0.14510   0.15303   0.16453   0.17480   0.18562
 Alpha virt. eigenvalues --    0.19276   0.20642   0.21731   0.22243   0.22717
 Alpha virt. eigenvalues --    0.23744   0.24457   0.24781   0.26447   0.30017
 Alpha virt. eigenvalues --    0.30784   0.31259   0.33804   0.34665   0.36750
 Alpha virt. eigenvalues --    0.38914   0.40364   0.41233   0.42467   0.44765
 Alpha virt. eigenvalues --    0.47607   0.48133   0.50877   0.52179   0.52735
 Alpha virt. eigenvalues --    0.53420   0.54230   0.54910   0.55710   0.56895
 Alpha virt. eigenvalues --    0.58011   0.58546   0.60434   0.62883   0.63507
 Alpha virt. eigenvalues --    0.64842   0.66072   0.68548   0.69047   0.69807
 Alpha virt. eigenvalues --    0.70314   0.70822   0.71221   0.72450   0.73109
 Alpha virt. eigenvalues --    0.73723   0.73907   0.74716   0.74998   0.75883
 Alpha virt. eigenvalues --    0.76328   0.77153   0.77608   0.78334   0.78470
 Alpha virt. eigenvalues --    0.78677   0.79581   0.80032   0.80951   0.82458
 Alpha virt. eigenvalues --    0.83148   0.83350   0.84593   0.86757   0.87065
 Alpha virt. eigenvalues --    0.88577   0.89863   0.91025   0.91876   0.93065
 Alpha virt. eigenvalues --    0.95057   0.97094   0.98635   1.01975   1.04174
 Alpha virt. eigenvalues --    1.06594   1.08173   1.09349   1.10834   1.13708
 Alpha virt. eigenvalues --    1.14747   1.17494   1.18921   1.23659   1.24347
 Alpha virt. eigenvalues --    1.25032   1.26651   1.29869   1.33412   1.34370
 Alpha virt. eigenvalues --    1.34444   1.37731   1.41338   1.43926   1.46011
 Alpha virt. eigenvalues --    1.55224   1.58549   1.59905   1.60851   1.62045
 Alpha virt. eigenvalues --    1.62364   1.65666   1.66097   1.66653   1.69615
 Alpha virt. eigenvalues --    1.70826   1.73577   1.75480   1.77799   1.79283
 Alpha virt. eigenvalues --    1.80784   1.81439   1.82698   1.83055   1.84111
 Alpha virt. eigenvalues --    1.85126   1.85873   1.86640   1.87528   1.88328
 Alpha virt. eigenvalues --    1.89941   1.91041   1.91953   1.94086   1.94486
 Alpha virt. eigenvalues --    1.96324   1.97120   1.99820   2.01382   2.03669
 Alpha virt. eigenvalues --    2.05166   2.06436   2.07717   2.08860   2.10328
 Alpha virt. eigenvalues --    2.14457   2.15602   2.16630   2.17267   2.18730
 Alpha virt. eigenvalues --    2.21554   2.24206   2.25382   2.29161   2.30511
 Alpha virt. eigenvalues --    2.33334   2.34810   2.35781   2.36341   2.39026
 Alpha virt. eigenvalues --    2.41319   2.42969   2.44757   2.48089   2.48541
 Alpha virt. eigenvalues --    2.49442   2.53024   2.56214   2.57714   2.65213
 Alpha virt. eigenvalues --    2.66249   2.68958   2.70789   2.73318   2.74607
 Alpha virt. eigenvalues --    2.76449   2.78424   2.79050   2.79367   2.81896
 Alpha virt. eigenvalues --    2.82215   2.83676   2.87514   2.92053   2.95151
 Alpha virt. eigenvalues --    2.99514   3.01189   3.02047   3.05220   3.08604
 Alpha virt. eigenvalues --    3.11770   3.13252   3.20356   3.21954   3.25890
 Alpha virt. eigenvalues --    3.27058   3.47920   3.48619   3.70753
          Condensed to atoms (all electrons):
               1          2          3          4          5          6
     1  C    5.082938   0.003638  -0.096531  -0.001401   0.590496  -0.002205
     2  C    0.003638   4.720830  -0.006981   0.630613   0.002710  -0.002697
     3  C   -0.096531  -0.006981   5.193637  -0.004973  -0.006498   0.582323
     4  C   -0.001401   0.630613  -0.004973   5.105339  -0.001385  -0.000412
     5  C    0.590496   0.002710  -0.006498  -0.001385   4.963801   0.274224
     6  C   -0.002205  -0.002697   0.582323  -0.000412   0.274224   4.989604
     7  C    0.010385  -0.001911   0.335159   0.013283   0.009905  -0.060841
     8  H   -0.000613   0.000408  -0.015118  -0.002235   0.000692  -0.015236
     9  H    0.000458  -0.000039  -0.000979   0.000001  -0.000655   0.001641
    10  C    0.000510   0.007638  -0.048500  -0.168871  -0.000432   0.002705
    11  H   -0.000013  -0.000303   0.006407   0.011210   0.000012  -0.000149
    12  H   -0.000012  -0.000359  -0.014679   0.002998   0.000074  -0.000153
    13  C    0.000079  -0.031475  -0.006731   0.269868   0.000023   0.001199
    14  O    0.000001   0.000282  -0.000079  -0.080344  -0.000000  -0.000001
    15  H   -0.000017   0.003465   0.004520   0.370431  -0.000881   0.002602
    16  H    0.000303   0.409427  -0.000198  -0.021213   0.001184  -0.000239
    17  C    0.334827  -0.000125   0.333558   0.003614  -0.091836  -0.109164
    18  H    0.003203   0.000155  -0.000877   0.000157   0.000345   0.000585
    19  H   -0.008334  -0.002524   0.001138  -0.009061   0.001302   0.003315
    20  Cl   0.000390   0.286339   0.000368  -0.085951  -0.000122   0.000069
    21  C    0.403549  -0.000142   0.009070   0.000021  -0.063935   0.010143
    22  H   -0.015848  -0.000557   0.000474   0.000052   0.001503  -0.000369
    23  H   -0.010491  -0.000004  -0.000598   0.000001  -0.012163   0.000428
    24  H   -0.015151   0.000026   0.000584  -0.000005   0.002866  -0.000539
    25  H    0.007434   0.000008  -0.065537  -0.000262  -0.053487   0.442440
    26  H   -0.064378  -0.000019   0.007764   0.000006   0.443962  -0.056681
               7          8          9         10         11         12
     1  C    0.010385  -0.000613   0.000458   0.000510  -0.000013  -0.000012
     2  C   -0.001911   0.000408  -0.000039   0.007638  -0.000303  -0.000359
     3  C    0.335159  -0.015118  -0.000979  -0.048500   0.006407  -0.014679
     4  C    0.013283  -0.002235   0.000001  -0.168871   0.011210   0.002998
     5  C    0.009905   0.000692  -0.000655  -0.000432   0.000012   0.000074
     6  C   -0.060841  -0.015236   0.001641   0.002705  -0.000149  -0.000153
     7  C    4.714256   0.380451   0.341716   0.307842  -0.009156  -0.007369
     8  H    0.380451   0.662710  -0.023236  -0.025777  -0.005179   0.006485
     9  H    0.341716  -0.023236   0.648839  -0.006447  -0.005947  -0.008258
    10  C    0.307842  -0.025777  -0.006447   5.092122   0.340937   0.350525
    11  H   -0.009156  -0.005179  -0.005947   0.340937   0.606440  -0.006019
    12  H   -0.007369   0.006485  -0.008258   0.350525  -0.006019   0.592272
    13  C   -0.035932  -0.007960   0.006605   0.294867  -0.007978  -0.004688
    14  O    0.004671   0.000154  -0.000163  -0.088119   0.007615   0.000925
    15  H    0.000342   0.000408   0.000161  -0.002711  -0.000284   0.000100
    16  H    0.000096   0.000004  -0.000003  -0.000399   0.000009   0.000024
    17  C   -0.079885   0.009916  -0.005739  -0.000278   0.000231   0.006712
    18  H    0.004138  -0.000269   0.001144  -0.001962  -0.000049   0.000642
    19  H   -0.010334  -0.000160   0.000148   0.006386  -0.000086   0.001200
    20  Cl   0.000016  -0.000003   0.000001  -0.002268  -0.000003   0.000826
    21  C   -0.000224   0.000006   0.000010   0.000000  -0.000000   0.000010
    22  H    0.000005  -0.000001   0.000003  -0.000011   0.000000  -0.000012
    23  H    0.000007  -0.000000  -0.000000   0.000000   0.000000  -0.000000
    24  H    0.000014   0.000000  -0.000007   0.000002  -0.000000   0.000003
    25  H   -0.012041   0.004813   0.000311   0.000140  -0.000008   0.000001
    26  H   -0.000312   0.000009   0.000006   0.000006  -0.000000  -0.000000
              13         14         15         16         17         18
     1  C    0.000079   0.000001  -0.000017   0.000303   0.334827   0.003203
     2  C   -0.031475   0.000282   0.003465   0.409427  -0.000125   0.000155
     3  C   -0.006731  -0.000079   0.004520  -0.000198   0.333558  -0.000877
     4  C    0.269868  -0.080344   0.370431  -0.021213   0.003614   0.000157
     5  C    0.000023  -0.000000  -0.000881   0.001184  -0.091836   0.000345
     6  C    0.001199  -0.000001   0.002602  -0.000239  -0.109164   0.000585
     7  C   -0.035932   0.004671   0.000342   0.000096  -0.079885   0.004138
     8  H   -0.007960   0.000154   0.000408   0.000004   0.009916  -0.000269
     9  H    0.006605  -0.000163   0.000161  -0.000003  -0.005739   0.001144
    10  C    0.294867  -0.088119  -0.002711  -0.000399  -0.000278  -0.001962
    11  H   -0.007978   0.007615  -0.000284   0.000009   0.000231  -0.000049
    12  H   -0.004688   0.000925   0.000100   0.000024   0.006712   0.000642
    13  C    4.767542   0.694995  -0.022582   0.006807  -0.004681   0.000266
    14  O    0.694995   7.684301   0.001268  -0.000144   0.000017  -0.000001
    15  H   -0.022582   0.001268   0.568738  -0.010885  -0.000285   0.000001
    16  H    0.006807  -0.000144  -0.010885   0.552860  -0.000184   0.000008
    17  C   -0.004681   0.000017  -0.000285  -0.000184   4.857272   0.332792
    18  H    0.000266  -0.000001   0.000001   0.000008   0.332792   0.610569
    19  H    0.000323  -0.000133   0.000045   0.000182   0.331627  -0.015246
    20  Cl   0.008324  -0.000849   0.003678  -0.037244  -0.006438   0.000014
    21  C   -0.000001  -0.000000   0.000001  -0.000001  -0.066844  -0.000785
    22  H    0.000001   0.000000   0.000000  -0.000106  -0.005836  -0.000082
    23  H   -0.000000   0.000000  -0.000000   0.000002   0.008809  -0.000241
    24  H    0.000000   0.000000  -0.000000   0.000002  -0.005676   0.001965
    25  H   -0.000008   0.000000   0.000665  -0.000006   0.014730  -0.000387
    26  H    0.000001  -0.000000  -0.000003   0.000016   0.015156  -0.000380
              19         20         21         22         23         24
     1  C   -0.008334   0.000390   0.403549  -0.015848  -0.010491  -0.015151
     2  C   -0.002524   0.286339  -0.000142  -0.000557  -0.000004   0.000026
     3  C    0.001138   0.000368   0.009070   0.000474  -0.000598   0.000584
     4  C   -0.009061  -0.085951   0.000021   0.000052   0.000001  -0.000005
     5  C    0.001302  -0.000122  -0.063935   0.001503  -0.012163   0.002866
     6  C    0.003315   0.000069   0.010143  -0.000369   0.000428  -0.000539
     7  C   -0.010334   0.000016  -0.000224   0.000005   0.000007   0.000014
     8  H   -0.000160  -0.000003   0.000006  -0.000001  -0.000000   0.000000
     9  H    0.000148   0.000001   0.000010   0.000003  -0.000000  -0.000007
    10  C    0.006386  -0.002268   0.000000  -0.000011   0.000000   0.000002
    11  H   -0.000086  -0.000003  -0.000000   0.000000   0.000000  -0.000000
    12  H    0.001200   0.000826   0.000010  -0.000012  -0.000000   0.000003
    13  C    0.000323   0.008324  -0.000001   0.000001  -0.000000   0.000000
    14  O   -0.000133  -0.000849  -0.000000   0.000000   0.000000   0.000000
    15  H    0.000045   0.003678   0.000001   0.000000  -0.000000  -0.000000
    16  H    0.000182  -0.037244  -0.000001  -0.000106   0.000002   0.000002
    17  C    0.331627  -0.006438  -0.066844  -0.005836   0.008809  -0.005676
    18  H   -0.015246   0.000014  -0.000785  -0.000082  -0.000241   0.001965
    19  H    0.639857   0.020203  -0.000654   0.003113  -0.000239  -0.000294
    20  Cl   0.020203  16.912541  -0.000901   0.003330   0.000003  -0.000001
    21  C   -0.000654  -0.000901   4.520589   0.379977   0.386428   0.383130
    22  H    0.003113   0.003330   0.379977   0.631299  -0.019720  -0.023130
    23  H   -0.000239   0.000003   0.386428  -0.019720   0.628551  -0.020345
    24  H   -0.000294  -0.000001   0.383130  -0.023130  -0.020345   0.631431
    25  H   -0.000336   0.000001  -0.000293   0.000007   0.000006   0.000005
    26  H   -0.000372  -0.000000  -0.010756   0.000137   0.004508   0.000092
              25         26
     1  C    0.007434  -0.064378
     2  C    0.000008  -0.000019
     3  C   -0.065537   0.007764
     4  C   -0.000262   0.000006
     5  C   -0.053487   0.443962
     6  C    0.442440  -0.056681
     7  C   -0.012041  -0.000312
     8  H    0.004813   0.000009
     9  H    0.000311   0.000006
    10  C    0.000140   0.000006
    11  H   -0.000008  -0.000000
    12  H    0.000001  -0.000000
    13  C   -0.000008   0.000001
    14  O    0.000000  -0.000000
    15  H    0.000665  -0.000003
    16  H   -0.000006   0.000016
    17  C    0.014730   0.015156
    18  H   -0.000387  -0.000380
    19  H   -0.000336  -0.000372
    20  Cl   0.000001  -0.000000
    21  C   -0.000293  -0.010756
    22  H    0.000007   0.000137
    23  H    0.000006   0.004508
    24  H    0.000005   0.000092
    25  H    0.659680  -0.003588
    26  H   -0.003588   0.659190
 Mulliken charges:
               1
     1  C   -0.223216
     2  C   -0.018401
     3  C   -0.206722
     4  C   -0.031482
     5  C   -0.061705
     6  C   -0.062593
     7  C    0.095721
     8  H    0.029731
     9  H    0.050428
    10  C   -0.057906
    11  H    0.062312
    12  H    0.078751
    13  C    0.071134
    14  O   -0.224396
    15  H    0.081224
    16  H    0.099697
    17  C    0.127710
    18  H    0.064294
    19  H    0.038933
    20  Cl  -0.102323
    21  C    0.051602
    22  H    0.045770
    23  H    0.035059
    24  H    0.045029
    25  H    0.005711
    26  H    0.005636
 Sum of Mulliken charges =  -0.00000
 Mulliken charges with hydrogens summed into heavy atoms:
               1
     1  C   -0.223216
     2  C    0.081295
     3  C   -0.206722
     4  C    0.049742
     5  C   -0.056069
     6  C   -0.056882
     7  C    0.175880
    10  C    0.083158
    13  C    0.071134
    14  O   -0.224396
    17  C    0.230937
    20  Cl  -0.102323
    21  C    0.177461
 APT charges:
               1
     1  C    0.049209
     2  C    0.329800
     3  C   -0.049360
     4  C   -0.301453
     5  C   -0.072212
     6  C   -0.042814
     7  C    0.143323
     8  H   -0.030395
     9  H   -0.048436
    10  C   -0.092032
    11  H   -0.008169
    12  H    0.027300
    13  C    0.948572
    14  O   -0.758043
    15  H    0.080262
    16  H    0.061555
    17  C   -0.110800
    18  H    0.043907
    19  H    0.054760
    20  Cl  -0.312101
    21  C    0.053312
    22  H   -0.012374
    23  H   -0.010097
    24  H   -0.022523
    25  H    0.041228
    26  H    0.037585
 Sum of APT charges =   0.00000
 APT charges with hydrogens summed into heavy atoms:
               1
     1  C    0.049209
     2  C    0.391355
     3  C   -0.049360
     4  C   -0.221191
     5  C   -0.034628
     6  C   -0.001586
     7  C    0.064492
    10  C   -0.072902
    13  C    0.948572
    14  O   -0.758043
    17  C   -0.012133
    20  Cl  -0.312101
    21  C    0.008318
 Electronic spatial extent (au):  <R**2>=           2794.2920
 Charge=             -0.0000 electrons
 Dipole moment (field-independent basis, Debye):
    X=             -3.0613    Y=             -1.4006    Z=              0.4735  Tot=              3.3996
 Quadrupole moment (field-independent basis, Debye-Ang):
   XX=            -98.8729   YY=            -80.8981   ZZ=            -77.0248
   XY=             -5.4598   XZ=              1.0319   YZ=              0.5631
 Traceless Quadrupole moment (field-independent basis, Debye-Ang):
   XX=            -13.2743   YY=              4.7005   ZZ=              8.5738
   XY=             -5.4598   XZ=              1.0319   YZ=              0.5631
 Octapole moment (field-independent basis, Debye-Ang**2):
  XXX=            -40.5795  YYY=              1.9953  ZZZ=              0.2186  XYY=             11.4442
  XXY=              9.4785  XXZ=              2.8097  XZZ=              2.1460  YZZ=              1.3157
  YYZ=             -0.2009  XYZ=              0.4091
 Hexadecapole moment (field-independent basis, Debye-Ang**3):
 XXXX=          -2232.3101 YYYY=          -1238.9062 ZZZZ=           -396.4919 XXXY=            -27.5998
 XXXZ=             -7.3642 YYYX=            -15.7650 YYYZ=             -1.4164 ZZZX=             -5.8475
 ZZZY=             -0.8100 XXYY=           -546.0915 XXZZ=           -388.2932 YYZZ=           -256.8847
 XXYZ=             -6.5178 YYXZ=             -7.7060 ZZXY=              4.7160
 N-N= 8.733624725939D+02 E-N=-4.003706459705D+03  KE= 9.552501194971D+02
  Exact polarizability:     138.252     -15.968     147.152     -14.494     -10.758     126.668
 Approx polarizability:     131.927      -9.280     144.578     -16.347     -15.172     139.010
   1 Symmetry operations used in ECPInt.
 ECPInt:  NShTT=    7140 NPrTT=   26096 LenC2=    6946 LenP2D=   19119.
 LDataN:  DoStor=T MaxTD1= 6 Len=  172
 D2PCM: PCM CHGder 2nd derivatives, FixD1E=F FixD2E=F DoIter=F DoCFld=F I1PDM=0
 Calling FoFJK, ICntrl=    100127 FMM=F ISym2X=0 I1Cent= 0 IOpClX= 0 NMat=1 NMatS=1 NMatT=0.
 Full mass-weighted force constant matrix:
 Low frequencies ---  -27.3973    0.0005    0.0027    0.0029    1.0583    7.4932
 Low frequencies ---   10.2038   33.6989   62.9432
 ******    1 imaginary frequencies (negative Signs) ****** 
 Diagonal vibrational polarizability:
       49.6524570      60.7140957      71.3161146
 Harmonic frequencies (cm**-1), IR intensities (KM/Mole), Raman scattering
 activities (A**4/AMU), depolarization ratios for plane and unpolarized
 incident light, reduced masses (AMU), force constants (mDyne/A),
 and normal coordinates:
                      1                      2                      3
                      A                      A                      A
 Frequencies --    -27.2029                33.6487                62.9229
 Red. masses --      6.2897                 6.9999                 5.3487
 Frc consts  --      0.0027                 0.0047                 0.0125
 IR Inten    --      3.4376                 0.4141                 0.6211
  Atom  AN      X      Y      Z        X      Y      Z        X      Y      Z
     1   6    -0.06  -0.01   0.07    -0.18  -0.10  -0.03     0.07  -0.03   0.06
     2   6    -0.04   0.04  -0.08     0.14   0.07   0.01    -0.12   0.10  -0.11
     3   6     0.00   0.04  -0.06    -0.04   0.02   0.04    -0.03  -0.12  -0.03
     4   6    -0.03   0.05   0.02     0.04   0.04  -0.02    -0.21   0.07  -0.07
     5   6    -0.00  -0.06   0.05    -0.16  -0.10  -0.03     0.02  -0.10   0.02
     6   6     0.04  -0.04  -0.03    -0.07  -0.02   0.02    -0.04  -0.15  -0.04
     7   6     0.02   0.09  -0.16    -0.02   0.04   0.05    -0.01  -0.11  -0.03
     8   1     0.03  -0.01  -0.22     0.01   0.07   0.06    -0.04  -0.13  -0.03
     9   1     0.03   0.17  -0.24    -0.03   0.01   0.08     0.03  -0.09  -0.06
    10   6     0.01   0.17  -0.08    -0.05   0.03  -0.01    -0.00  -0.07   0.04
    11   1    -0.00   0.21  -0.23    -0.06   0.03  -0.05     0.06  -0.04   0.14
    12   1    -0.02   0.35   0.03    -0.09   0.04   0.01     0.04  -0.13  -0.00
    13   6     0.05  -0.01   0.11     0.00   0.02  -0.03    -0.12   0.03   0.02
    14   8     0.14  -0.19   0.34     0.00  -0.01  -0.06    -0.13   0.08   0.06
    15   1    -0.04   0.10   0.05    -0.05   0.03  -0.06    -0.38   0.09  -0.12
    16   1    -0.08   0.10  -0.14     0.15   0.08   0.01    -0.19   0.13  -0.17
    17   6    -0.07   0.07   0.00    -0.09  -0.01   0.02     0.02  -0.07   0.01
    18   1    -0.09   0.10  -0.00     0.01  -0.03  -0.01    -0.05  -0.03   0.02
    19   1    -0.10   0.10   0.01    -0.12   0.05   0.09     0.04  -0.11  -0.02
    20  17     0.03  -0.05  -0.15     0.28   0.09   0.06     0.14   0.11  -0.04
    21   6    -0.13  -0.01   0.15    -0.28  -0.19  -0.08     0.18   0.07   0.15
    22   1    -0.16   0.02   0.14    -0.37  -0.12  -0.10     0.25   0.02   0.23
    23   1    -0.11  -0.06   0.19    -0.33  -0.24  -0.11     0.20   0.08   0.18
    24   1    -0.17   0.01   0.16    -0.25  -0.27  -0.09     0.17   0.19   0.14
    25   1     0.09  -0.08  -0.07    -0.05  -0.02   0.02    -0.07  -0.20  -0.08
    26   1     0.02  -0.12   0.09    -0.20  -0.15  -0.06     0.03  -0.10   0.03
                      4                      5                      6
                      A                      A                      A
 Frequencies --     89.0479               125.3161               162.9398
 Red. masses --      3.2246                10.1739                 1.1084
 Frc consts  --      0.0151                 0.0941                 0.0173
 IR Inten    --      2.6430                 1.0483                 0.0386
  Atom  AN      X      Y      Z        X      Y      Z        X      Y      Z
     1   6     0.03  -0.00  -0.01     0.02  -0.05  -0.02    -0.02  -0.02  -0.01
     2   6    -0.08  -0.02  -0.01     0.05   0.07  -0.07    -0.02  -0.01  -0.00
     3   6     0.00  -0.02  -0.04    -0.01  -0.06   0.07     0.01   0.00   0.01
     4   6    -0.09  -0.02  -0.03     0.07   0.08  -0.19    -0.02  -0.01  -0.00
     5   6     0.18   0.13   0.09    -0.04  -0.03  -0.02     0.02   0.02   0.02
     6   6     0.16   0.12   0.07    -0.05  -0.04   0.04     0.04   0.03   0.03
     7   6    -0.02  -0.04  -0.08    -0.01  -0.05   0.08     0.00   0.00  -0.01
     8   1    -0.03  -0.07  -0.10     0.10   0.03   0.10     0.01   0.00  -0.01
     9   1    -0.02   0.00  -0.11    -0.04  -0.13   0.17    -0.01   0.01  -0.01
    10   6    -0.01  -0.02  -0.04    -0.09  -0.03  -0.09    -0.01   0.01  -0.02
    11   1     0.01  -0.00  -0.03    -0.13  -0.01  -0.25    -0.01   0.02  -0.03
    12   1     0.01  -0.00  -0.04    -0.25   0.02  -0.03    -0.02   0.03  -0.01
    13   6    -0.05  -0.02   0.00     0.05  -0.10  -0.11    -0.01   0.00  -0.00
    14   8    -0.03  -0.02   0.06     0.17  -0.43   0.06    -0.01   0.01   0.00
    15   1    -0.15  -0.04  -0.07     0.11   0.09  -0.16    -0.02  -0.01  -0.01
    16   1    -0.12  -0.05  -0.02     0.11  -0.06   0.04    -0.03  -0.01  -0.01
    17   6    -0.08  -0.10  -0.09     0.03  -0.09   0.04    -0.03  -0.03  -0.02
    18   1    -0.19  -0.16  -0.03     0.04  -0.11   0.04    -0.05  -0.06   0.01
    19   1    -0.08  -0.13  -0.22     0.04  -0.10   0.03    -0.04  -0.03  -0.06
    20  17     0.03   0.04   0.07    -0.14   0.31   0.09     0.01  -0.01   0.00
    21   6    -0.06  -0.08  -0.07     0.13  -0.00  -0.06     0.01  -0.00  -0.01
    22   1    -0.08  -0.11  -0.36     0.19  -0.02   0.10    -0.07   0.15   0.54
    23   1     0.09   0.05   0.03     0.04  -0.01  -0.16    -0.35  -0.31  -0.27
    24   1    -0.27  -0.24   0.06     0.28   0.07  -0.14     0.49   0.19  -0.27
    25   1     0.27   0.21   0.14    -0.10  -0.03   0.06     0.06   0.06   0.05
    26   1     0.29   0.23   0.17    -0.06   0.00  -0.05     0.03   0.03   0.02
                      7                      8                      9
                      A                      A                      A
 Frequencies --    171.3025               195.6434               204.8677
 Red. masses --      2.7017                 3.5360                 2.9966
 Frc consts  --      0.0467                 0.0797                 0.0741
 IR Inten    --      0.8360                 6.4478                 0.3173
  Atom  AN      X      Y      Z        X      Y      Z        X      Y      Z
     1   6     0.01  -0.05  -0.01    -0.05  -0.05  -0.05     0.10   0.04   0.05
     2   6     0.03   0.02   0.06     0.23   0.12   0.12     0.11   0.08   0.07
     3   6    -0.03  -0.07   0.06    -0.07  -0.07  -0.10     0.05   0.00   0.01
     4   6    -0.01   0.01   0.05     0.11   0.09   0.12    -0.05   0.03   0.03
     5   6    -0.01  -0.00   0.01     0.03  -0.01  -0.01     0.06   0.01   0.02
     6   6    -0.03  -0.03   0.05     0.01  -0.02  -0.04     0.03  -0.02   0.00
     7   6     0.03   0.02   0.01    -0.06  -0.05  -0.08    -0.05  -0.06  -0.10
     8   1     0.19   0.07   0.00    -0.15  -0.12  -0.10    -0.06  -0.19  -0.17
     9   1     0.05  -0.03   0.06     0.02   0.00  -0.17    -0.12   0.05  -0.19
    10   6    -0.12   0.20  -0.13    -0.00  -0.03   0.09    -0.06  -0.03  -0.04
    11   1    -0.11   0.31  -0.41     0.02  -0.03   0.17    -0.01   0.01  -0.02
    12   1    -0.35   0.36   0.02     0.10  -0.05   0.05    -0.04  -0.02  -0.03
    13   6    -0.06   0.07  -0.02    -0.02   0.00   0.07    -0.12  -0.03   0.00
    14   8    -0.04   0.02   0.01    -0.03  -0.00  -0.01    -0.12  -0.03   0.03
    15   1     0.05   0.00   0.06     0.23   0.15   0.21     0.02   0.08   0.09
    16   1     0.09   0.07   0.07     0.45   0.22   0.23     0.30   0.17   0.16
    17   6    -0.01  -0.10   0.02    -0.13  -0.11  -0.12     0.17   0.11   0.09
    18   1    -0.00  -0.12   0.03    -0.20  -0.13  -0.09     0.29   0.25  -0.00
    19   1    -0.00  -0.11   0.01    -0.12  -0.13  -0.19     0.20   0.14   0.29
    20  17     0.03  -0.05  -0.00    -0.03   0.02  -0.02    -0.02   0.01  -0.03
    21   6     0.14  -0.01  -0.08     0.03   0.04   0.06    -0.04  -0.10  -0.08
    22   1     0.26  -0.12  -0.20     0.09  -0.00   0.14    -0.18   0.02  -0.06
    23   1     0.22   0.17  -0.08     0.06   0.04   0.10    -0.18  -0.21  -0.19
    24   1     0.07  -0.04  -0.05     0.00   0.18   0.04     0.10  -0.26  -0.12
    25   1    -0.04   0.01   0.08     0.09   0.03  -0.01    -0.03  -0.09  -0.05
    26   1     0.00   0.05   0.01     0.12   0.06   0.06     0.00  -0.05  -0.02
                     10                     11                     12
                      A                      A                      A
 Frequencies --    276.6583               307.1866               347.4432
 Red. masses --      2.4285                 3.4028                 2.7124
 Frc consts  --      0.1095                 0.1892                 0.1929
 IR Inten    --      0.8037                 3.2077                 6.0421
  Atom  AN      X      Y      Z        X      Y      Z        X      Y      Z
     1   6     0.02  -0.01  -0.08     0.16   0.12   0.04     0.04   0.10   0.13
     2   6     0.05   0.02   0.05    -0.08  -0.00  -0.03     0.12  -0.00   0.03
     3   6     0.05   0.02  -0.04    -0.12  -0.14  -0.10    -0.05  -0.02  -0.04
     4   6    -0.08  -0.01  -0.03     0.09   0.05   0.08    -0.05  -0.05  -0.10
     5   6     0.04   0.00  -0.08     0.12   0.10   0.02     0.00   0.02   0.09
     6   6     0.05   0.04  -0.05    -0.10  -0.09  -0.10    -0.08  -0.08  -0.06
     7   6     0.08  -0.01   0.16    -0.00  -0.06   0.07     0.05   0.04   0.04
     8   1     0.18   0.30   0.33     0.01   0.07   0.14     0.09   0.22   0.14
     9   1     0.11  -0.27   0.41     0.18  -0.18   0.11     0.10  -0.13   0.19
    10   6    -0.04  -0.01  -0.06    -0.07   0.08   0.07     0.07  -0.04  -0.06
    11   1    -0.01   0.04  -0.11    -0.07   0.15  -0.11     0.06  -0.11   0.09
    12   1    -0.18  -0.05  -0.05    -0.20   0.18   0.16     0.13  -0.18  -0.15
    13   6    -0.09  -0.01  -0.05     0.05   0.03   0.06     0.00   0.02  -0.08
    14   8    -0.06  -0.03   0.05     0.04  -0.03  -0.08     0.02   0.07   0.11
    15   1    -0.01  -0.01  -0.00     0.05   0.04   0.06    -0.00  -0.07  -0.10
    16   1     0.20   0.07   0.12    -0.24  -0.04  -0.11     0.29   0.03   0.14
    17   6     0.05   0.00  -0.08     0.03  -0.01  -0.04    -0.10   0.01   0.02
    18   1     0.09  -0.00  -0.09    -0.08   0.12  -0.05    -0.39  -0.04   0.13
    19   1     0.05   0.02  -0.06     0.15  -0.14  -0.03    -0.09  -0.09  -0.25
    20  17    -0.01  -0.02   0.00     0.01   0.01   0.00    -0.01  -0.01  -0.00
    21   6    -0.08   0.03   0.12    -0.09  -0.04   0.02     0.01  -0.00  -0.08
    22   1    -0.15   0.09   0.16    -0.34   0.18   0.03    -0.04   0.03  -0.15
    23   1    -0.01  -0.13   0.28    -0.22  -0.27  -0.02    -0.11   0.05  -0.25
    24   1    -0.20   0.16   0.15    -0.01  -0.19   0.01     0.15  -0.23  -0.10
    25   1     0.09   0.08  -0.02    -0.16  -0.13  -0.12    -0.11  -0.14  -0.11
    26   1     0.04   0.02  -0.09     0.14   0.14   0.03     0.00  -0.04   0.11
                     13                     14                     15
                      A                      A                      A
 Frequencies --    386.7454               404.2114               434.5360
 Red. masses --      1.9938                 2.3482                 3.8877
 Frc consts  --      0.1757                 0.2260                 0.4325
 IR Inten    --     14.2212                 7.3177                 6.2290
  Atom  AN      X      Y      Z        X      Y      Z        X      Y      Z
     1   6     0.10   0.06  -0.05    -0.06  -0.04  -0.07     0.00  -0.02  -0.04
     2   6     0.04  -0.01  -0.01     0.08  -0.05  -0.03    -0.12   0.14   0.14
     3   6     0.04   0.00   0.14    -0.12  -0.13  -0.01    -0.05  -0.06   0.03
     4   6    -0.00  -0.03  -0.02    -0.00  -0.07  -0.07    -0.05   0.18  -0.11
     5   6    -0.03   0.05  -0.08     0.02   0.09   0.02     0.01   0.05  -0.00
     6   6    -0.09   0.01   0.05    -0.06   0.02   0.04    -0.05  -0.00   0.04
     7   6    -0.01  -0.02  -0.06    -0.01  -0.05  -0.01    -0.00   0.03  -0.04
     8   1     0.01  -0.23  -0.20     0.02  -0.06  -0.03     0.01  -0.05  -0.09
     9   1    -0.12   0.17  -0.20     0.06  -0.05  -0.04     0.03   0.08  -0.11
    10   6     0.02   0.00  -0.03     0.02  -0.01  -0.03     0.05   0.01   0.00
    11   1     0.00  -0.00  -0.07    -0.01  -0.03  -0.09     0.13  -0.08   0.47
    12   1     0.02   0.04  -0.01    -0.01   0.02  -0.00     0.27  -0.36  -0.26
    13   6     0.02  -0.01  -0.01     0.06  -0.01  -0.02    -0.02   0.20  -0.16
    14   8     0.01   0.05   0.04     0.04   0.12   0.09     0.09  -0.12  -0.03
    15   1     0.00  -0.02  -0.02    -0.05  -0.08  -0.09     0.11  -0.00  -0.19
    16   1     0.08  -0.01   0.02     0.10  -0.07  -0.01    -0.06   0.14   0.18
    17   6     0.05  -0.09   0.01     0.02  -0.03   0.04     0.02  -0.05   0.02
    18   1    -0.16  -0.40   0.20     0.44   0.28  -0.23     0.18   0.03  -0.06
    19   1     0.06  -0.23  -0.37     0.11   0.04   0.58     0.08  -0.05   0.20
    20  17    -0.00   0.01  -0.00    -0.01   0.02  -0.01     0.02  -0.11   0.04
    21   6    -0.06   0.01   0.06    -0.03   0.02   0.02    -0.01  -0.00   0.02
    22   1    -0.21   0.14   0.05    -0.00   0.01   0.09    -0.03   0.02   0.05
    23   1    -0.04  -0.18   0.18     0.00  -0.02   0.08     0.01  -0.06   0.07
    24   1    -0.15   0.02   0.10    -0.07   0.14   0.01    -0.05   0.05   0.02
    25   1    -0.27  -0.01   0.05    -0.05   0.13   0.13    -0.08   0.04   0.07
    26   1    -0.13   0.07  -0.19     0.13   0.25   0.08     0.04   0.14  -0.00
                     16                     17                     18
                      A                      A                      A
 Frequencies --    538.0939               544.7253               554.0056
 Red. masses --      2.5198                 2.4850                 3.4756
 Frc consts  --      0.4299                 0.4344                 0.6285
 IR Inten    --      3.5564                14.3553                 4.3914
  Atom  AN      X      Y      Z        X      Y      Z        X      Y      Z
     1   6     0.08   0.09   0.07     0.00   0.06   0.02    -0.13   0.08   0.00
     2   6     0.01   0.02   0.01    -0.08  -0.05  -0.04    -0.00   0.07   0.05
     3   6    -0.07  -0.09  -0.07    -0.03  -0.09   0.00     0.11  -0.08   0.04
     4   6    -0.00   0.02  -0.07     0.10  -0.01   0.16    -0.09   0.04  -0.01
     5   6    -0.12  -0.11  -0.08    -0.06  -0.01  -0.02    -0.00   0.03   0.02
     6   6     0.13   0.12   0.07     0.01   0.03   0.05     0.01  -0.02  -0.02
     7   6    -0.04  -0.09   0.00     0.09   0.01  -0.06     0.18  -0.18  -0.02
     8   1    -0.10  -0.11   0.01     0.26   0.18   0.00     0.19  -0.26  -0.07
     9   1     0.04  -0.08  -0.04     0.09  -0.17   0.11     0.18  -0.11  -0.09
    10   6    -0.04  -0.01   0.04     0.06  -0.02  -0.15     0.10  -0.03   0.01
    11   1    -0.04   0.04  -0.12     0.14  -0.08   0.25     0.18   0.18  -0.35
    12   1    -0.16   0.05   0.10     0.30  -0.24  -0.33    -0.15   0.23   0.21
    13   6     0.04   0.03  -0.02    -0.08  -0.01  -0.01     0.02  -0.04   0.05
    14   8     0.05   0.04   0.02    -0.08  -0.03   0.02    -0.00  -0.04  -0.08
    15   1    -0.03  -0.03  -0.11     0.36   0.10   0.33    -0.21   0.04  -0.06
    16   1     0.00  -0.01   0.02    -0.04   0.01  -0.04    -0.02   0.08   0.04
    17   6    -0.00   0.01   0.00    -0.01  -0.04   0.05    -0.04  -0.00   0.08
    18   1    -0.20   0.22  -0.01    -0.01   0.07   0.01    -0.03  -0.05   0.09
    19   1     0.14  -0.16  -0.00     0.08  -0.12   0.11    -0.10   0.05   0.03
    20  17    -0.00  -0.02   0.01     0.02   0.04  -0.01    -0.01  -0.02   0.01
    21   6     0.00   0.03  -0.00    -0.03   0.06  -0.02    -0.11   0.19  -0.08
    22   1    -0.07   0.07  -0.07    -0.06   0.08  -0.03    -0.06   0.14  -0.08
    23   1    -0.03   0.02  -0.03    -0.04   0.04  -0.02    -0.13   0.27  -0.13
    24   1     0.02  -0.10   0.01    -0.03   0.03  -0.01    -0.08   0.19  -0.10
    25   1     0.36   0.33   0.23     0.05   0.15   0.15    -0.13  -0.03  -0.01
    26   1    -0.36  -0.35  -0.24    -0.12  -0.06  -0.06     0.07  -0.05   0.12
                     19                     20                     21
                      A                      A                      A
 Frequencies --    577.4410               667.3624               704.8554
 Red. masses --      3.0119                 3.6246                 1.8328
 Frc consts  --      0.5917                 0.9511                 0.5365
 IR Inten    --      7.5960                 1.3224                19.7697
  Atom  AN      X      Y      Z        X      Y      Z        X      Y      Z
     1   6     0.06   0.01   0.01    -0.04   0.05  -0.03     0.01  -0.00   0.02
     2   6     0.12   0.00   0.03     0.09  -0.11  -0.06    -0.05  -0.07  -0.10
     3   6    -0.08  -0.04  -0.02     0.02  -0.03   0.03     0.01  -0.01  -0.01
     4   6    -0.16  -0.09   0.02     0.05  -0.10  -0.03    -0.03  -0.03  -0.09
     5   6    -0.04   0.00  -0.02     0.12  -0.10  -0.04    -0.04   0.03   0.01
     6   6    -0.02   0.02   0.04     0.10  -0.13   0.04    -0.03   0.04  -0.03
     7   6     0.08   0.17  -0.03    -0.04   0.05   0.05     0.08   0.01   0.02
     8   1     0.14   0.19  -0.04    -0.10  -0.09  -0.03    -0.03  -0.17  -0.07
     9   1     0.18   0.13  -0.02     0.03   0.18  -0.11     0.16   0.17  -0.18
    10   6     0.09   0.11   0.05    -0.10   0.13   0.14     0.05   0.06   0.13
    11   1     0.07   0.03   0.21    -0.03   0.09   0.48     0.11   0.16  -0.01
    12   1     0.34   0.13   0.01     0.02  -0.20  -0.07    -0.05   0.13   0.19
    13   6    -0.00  -0.05   0.10    -0.09   0.14  -0.06    -0.06   0.02  -0.02
    14   8    -0.03  -0.10  -0.13    -0.02  -0.04   0.04    -0.05  -0.03  -0.00
    15   1    -0.60  -0.10  -0.16    -0.04  -0.22  -0.16     0.59   0.05   0.20
    16   1    -0.02   0.00  -0.06    -0.00  -0.17  -0.10     0.49   0.06   0.21
    17   6    -0.00  -0.04   0.00     0.02  -0.03   0.03    -0.01   0.01  -0.01
    18   1     0.03   0.09  -0.06     0.09  -0.13   0.04    -0.02   0.08  -0.04
    19   1     0.11  -0.13   0.13     0.07  -0.10   0.00    -0.04   0.05   0.03
    20  17    -0.02   0.01  -0.02    -0.00   0.02  -0.01     0.01  -0.00   0.02
    21   6     0.02  -0.03   0.02    -0.09   0.17  -0.08     0.02  -0.04   0.02
    22   1    -0.03   0.01   0.01    -0.09   0.17  -0.08     0.02  -0.04   0.01
    23   1     0.02  -0.09   0.04    -0.10   0.21  -0.10     0.02  -0.04   0.02
    24   1     0.01  -0.06   0.03    -0.09   0.19  -0.09     0.03  -0.06   0.02
    25   1     0.10   0.16   0.15     0.12  -0.16   0.02    -0.01   0.09   0.01
    26   1    -0.09   0.02  -0.08     0.16  -0.21   0.03    -0.03   0.06   0.01
                     22                     23                     24
                      A                      A                      A
 Frequencies --    711.7382               729.3874               811.4478
 Red. masses --      2.8696                 4.6661                 1.7930
 Frc consts  --      0.8565                 1.4626                 0.6956
 IR Inten    --     27.6371                42.9924                 1.2496
  Atom  AN      X      Y      Z        X      Y      Z        X      Y      Z
     1   6     0.03   0.03  -0.02     0.01   0.01  -0.00     0.05   0.05   0.04
     2   6    -0.07   0.08  -0.07    -0.17  -0.10   0.31     0.01   0.00   0.05
     3   6    -0.06   0.01   0.03    -0.02   0.01   0.01     0.05   0.05   0.04
     4   6    -0.05   0.08  -0.07    -0.18  -0.15   0.11     0.07   0.02   0.01
     5   6     0.09  -0.08  -0.04     0.03  -0.03  -0.01    -0.05  -0.04  -0.03
     6   6     0.03  -0.13   0.07     0.01  -0.04   0.02    -0.05  -0.05  -0.04
     7   6    -0.06   0.17   0.00    -0.05   0.01   0.04     0.05   0.04   0.06
     8   1    -0.04   0.22   0.03    -0.13  -0.08  -0.00    -0.05  -0.24  -0.09
     9   1    -0.13   0.11   0.08    -0.08   0.10  -0.04    -0.11   0.30  -0.13
    10   6     0.01  -0.06  -0.03     0.00  -0.03   0.00     0.03  -0.05  -0.01
    11   1    -0.19  -0.20  -0.22    -0.08  -0.07  -0.13     0.04   0.01  -0.15
    12   1     0.08   0.20   0.09    -0.12  -0.02   0.04    -0.17  -0.02   0.06
    13   6     0.06  -0.16   0.06     0.09   0.02  -0.06    -0.04  -0.01  -0.04
    14   8    -0.01   0.04  -0.02     0.12   0.00  -0.05    -0.04  -0.01   0.03
    15   1     0.30   0.30   0.22     0.38  -0.32   0.21    -0.08  -0.06  -0.11
    16   1     0.31   0.17   0.15     0.27   0.19   0.47    -0.27  -0.10  -0.08
    17   6    -0.01  -0.05   0.00    -0.01  -0.01  -0.02    -0.08  -0.06  -0.08
    18   1     0.14  -0.03  -0.06     0.03  -0.00  -0.03     0.16   0.16  -0.25
    19   1     0.11  -0.15   0.14     0.02  -0.02   0.03    -0.05   0.02   0.27
    20  17     0.00  -0.04   0.04     0.04   0.10  -0.12     0.00   0.00  -0.01
    21   6    -0.04   0.09  -0.05    -0.01   0.03  -0.01     0.02   0.02   0.02
    22   1    -0.10   0.14  -0.06    -0.03   0.04  -0.02    -0.14   0.13  -0.12
    23   1    -0.06   0.06  -0.05    -0.02   0.02  -0.02    -0.08  -0.05  -0.06
    24   1    -0.05   0.06  -0.04    -0.01   0.01  -0.01     0.06  -0.23   0.05
    25   1     0.18  -0.04   0.13     0.07  -0.01   0.03     0.25   0.23   0.16
    26   1     0.13  -0.07  -0.01     0.05  -0.03   0.00     0.23   0.21   0.17
                     25                     26                     27
                      A                      A                      A
 Frequencies --    854.7490               884.8077               895.6093
 Red. masses --      2.6869                 2.4900                 1.9619
 Frc consts  --      1.1566                 1.1486                 0.9272
 IR Inten    --     36.4663                 4.7984                 5.0850
  Atom  AN      X      Y      Z        X      Y      Z        X      Y      Z
     1   6    -0.02  -0.02  -0.04     0.01  -0.00  -0.05    -0.03  -0.02   0.04
     2   6    -0.04  -0.02   0.17     0.03   0.02  -0.07     0.01   0.02  -0.02
     3   6    -0.07  -0.03  -0.03    -0.07  -0.02   0.05     0.01  -0.01  -0.05
     4   6     0.15   0.05  -0.13    -0.04  -0.01   0.09    -0.02   0.00   0.05
     5   6     0.07   0.04   0.01     0.13   0.02  -0.04     0.00   0.08   0.14
     6   6     0.01  -0.01   0.04    -0.03  -0.11   0.12    -0.03   0.02  -0.11
     7   6     0.04   0.09  -0.01     0.05  -0.01   0.08     0.03   0.07   0.07
     8   1    -0.02   0.08  -0.00    -0.03  -0.29  -0.08    -0.09  -0.21  -0.08
     9   1     0.13   0.07  -0.03    -0.03   0.22  -0.13    -0.05   0.32  -0.15
    10   6     0.06  -0.04   0.05     0.06  -0.03  -0.05    -0.01  -0.03  -0.03
    11   1     0.02   0.01  -0.19     0.10   0.03  -0.12    -0.09  -0.09  -0.07
    12   1    -0.00   0.23   0.21    -0.18  -0.13  -0.04    -0.14  -0.12  -0.05
    13   6    -0.07  -0.09  -0.02    -0.01   0.04  -0.05     0.01  -0.01  -0.04
    14   8    -0.11  -0.00   0.04     0.02  -0.01  -0.01     0.01   0.00   0.00
    15   1     0.16  -0.18  -0.29    -0.13   0.08   0.13    -0.08   0.06   0.07
    16   1    -0.39  -0.28   0.07     0.02   0.11  -0.12    -0.01   0.06  -0.06
    17   6     0.01   0.04   0.05    -0.08   0.16  -0.08     0.11  -0.09  -0.03
    18   1    -0.15  -0.00   0.12    -0.26   0.31  -0.08     0.11  -0.10  -0.02
    19   1     0.04  -0.04  -0.10    -0.10   0.18  -0.11     0.22  -0.22  -0.02
    20  17     0.01   0.02  -0.04    -0.01  -0.01   0.02    -0.00  -0.00   0.01
    21   6    -0.01  -0.02  -0.02     0.01  -0.05  -0.01    -0.06   0.02  -0.01
    22   1     0.10  -0.10   0.10     0.12  -0.13   0.09     0.11  -0.11   0.07
    23   1     0.08   0.01   0.07     0.08   0.00   0.05    -0.00   0.18  -0.03
    24   1    -0.06   0.19  -0.04    -0.00   0.12  -0.03    -0.01   0.17  -0.06
    25   1    -0.09  -0.09  -0.01    -0.02   0.04   0.24     0.26   0.13  -0.05
    26   1    -0.26  -0.20  -0.23    -0.25  -0.13  -0.37    -0.39  -0.43  -0.08
                     28                     29                     30
                      A                      A                      A
 Frequencies --    912.5188               923.2919               943.6026
 Red. masses --      1.4371                 2.8759                 1.8189
 Frc consts  --      0.7051                 1.4444                 0.9542
 IR Inten    --     28.1490                 4.1215                 5.2447
  Atom  AN      X      Y      Z        X      Y      Z        X      Y      Z
     1   6    -0.03  -0.02  -0.03     0.02   0.04  -0.04     0.01   0.01   0.01
     2   6    -0.00   0.00   0.00     0.01   0.00  -0.02    -0.01  -0.02   0.03
     3   6    -0.01  -0.03  -0.02     0.07   0.01  -0.03     0.08   0.05   0.07
     4   6     0.00   0.00   0.00    -0.02  -0.01   0.03     0.01   0.00  -0.07
     5   6    -0.00  -0.01  -0.04     0.10   0.04  -0.08     0.06   0.06   0.04
     6   6    -0.06  -0.05  -0.07     0.03   0.05  -0.13    -0.08  -0.08  -0.04
     7   6     0.00   0.01  -0.00    -0.00   0.04   0.01    -0.02  -0.08  -0.06
     8   1    -0.02  -0.02  -0.01    -0.12   0.02   0.02     0.20   0.13   0.02
     9   1     0.01   0.02  -0.02    -0.03   0.09  -0.02    -0.11  -0.25   0.14
    10   6    -0.02  -0.00   0.00    -0.03  -0.03   0.01    -0.06   0.05   0.01
    11   1    -0.04  -0.03   0.01    -0.08  -0.06  -0.02     0.01   0.05   0.22
    12   1    -0.02  -0.03  -0.01    -0.12  -0.08   0.01     0.23   0.07  -0.05
    13   6     0.00  -0.01  -0.00     0.00   0.02  -0.02     0.02  -0.01   0.07
    14   8     0.00   0.00   0.00     0.02   0.00   0.00     0.00   0.01  -0.01
    15   1    -0.01   0.00   0.00    -0.04   0.02   0.04     0.08  -0.04  -0.08
    16   1    -0.00   0.01  -0.00     0.01   0.04  -0.04     0.06  -0.07   0.10
    17   6     0.06   0.07   0.12    -0.19  -0.10   0.24    -0.05  -0.01  -0.06
    18   1    -0.23  -0.09   0.28    -0.09   0.12   0.13     0.10   0.06  -0.14
    19   1     0.02  -0.01  -0.24    -0.23  -0.00   0.44    -0.09   0.10   0.10
    20  17     0.00   0.00  -0.00    -0.00  -0.00   0.00     0.00   0.00  -0.01
    21   6    -0.00  -0.03  -0.02     0.07  -0.04  -0.03    -0.00  -0.00   0.01
    22   1     0.05  -0.06   0.07    -0.11   0.12   0.08     0.03  -0.03  -0.00
    23   1     0.05  -0.05   0.06     0.16  -0.36   0.23    -0.01   0.05  -0.02
    24   1    -0.05   0.11  -0.02    -0.14   0.07   0.05     0.04  -0.03  -0.00
    25   1     0.46   0.49   0.32    -0.13   0.05  -0.12     0.30   0.36   0.28
    26   1     0.30   0.23   0.18    -0.14  -0.34  -0.21    -0.35  -0.28  -0.26
                     31                     32                     33
                      A                      A                      A
 Frequencies --    956.4079               960.6256               991.7395
 Red. masses --      1.8421                 1.3579                 1.5675
 Frc consts  --      0.9928                 0.7383                 0.9083
 IR Inten    --      8.9056                 7.6790                 0.8012
  Atom  AN      X      Y      Z        X      Y      Z        X      Y      Z
     1   6     0.02  -0.01  -0.01     0.01  -0.00  -0.00    -0.04   0.04   0.00
     2   6     0.07   0.00  -0.03    -0.09  -0.04  -0.04     0.00  -0.00  -0.01
     3   6    -0.03   0.08  -0.01    -0.01   0.02  -0.01    -0.01  -0.01   0.01
     4   6    -0.05  -0.03   0.03     0.11   0.02   0.05     0.00  -0.00   0.01
     5   6    -0.01   0.01   0.04    -0.01   0.00   0.01     0.10  -0.04  -0.09
     6   6    -0.02  -0.05   0.01    -0.00  -0.02   0.01    -0.03   0.06  -0.03
     7   6    -0.08  -0.02  -0.06    -0.02   0.00  -0.02    -0.03   0.01  -0.01
     8   1    -0.27   0.25   0.16    -0.08   0.07   0.04    -0.09   0.07   0.04
     9   1    -0.13  -0.23   0.17    -0.05  -0.06   0.06    -0.05  -0.03   0.04
    10   6     0.14  -0.05   0.02     0.05  -0.02   0.00     0.04  -0.02   0.00
    11   1     0.30   0.23  -0.30     0.10   0.07  -0.11     0.06   0.04  -0.09
    12   1    -0.08   0.19   0.20    -0.04   0.06   0.07    -0.01   0.06   0.06
    13   6    -0.04   0.11  -0.03    -0.02   0.03  -0.01    -0.01   0.03  -0.01
    14   8     0.00  -0.03  -0.00    -0.01  -0.01   0.01    -0.00  -0.01   0.00
    15   1     0.23  -0.04   0.13    -0.56  -0.15  -0.33    -0.01  -0.03  -0.01
    16   1    -0.23  -0.04  -0.22     0.57   0.17   0.31     0.01   0.01  -0.02
    17   6     0.01  -0.04   0.02     0.00  -0.01   0.01    -0.00  -0.01   0.02
    18   1     0.14  -0.16   0.03     0.04  -0.04   0.01     0.11  -0.14   0.03
    19   1     0.06  -0.09   0.04     0.02  -0.03   0.01     0.10  -0.12   0.03
    20  17    -0.00  -0.00   0.01     0.00   0.00  -0.00    -0.00   0.00   0.00
    21   6     0.01   0.02  -0.02     0.00   0.01  -0.01    -0.05  -0.03   0.11
    22   1    -0.07   0.08   0.00    -0.02   0.03   0.01     0.24  -0.31  -0.08
    23   1     0.03  -0.07   0.04     0.01  -0.03   0.02    -0.17   0.39  -0.25
    24   1    -0.07   0.05   0.00    -0.03   0.02   0.00     0.32  -0.26  -0.02
    25   1     0.26  -0.00   0.03     0.08  -0.01   0.01    -0.34   0.27   0.14
    26   1    -0.11   0.01  -0.06    -0.04   0.01  -0.02     0.16  -0.21   0.01
                     34                     35                     36
                      A                      A                      A
 Frequencies --   1033.8171              1043.7713              1067.4716
 Red. masses --      1.4220                 1.4051                 2.1316
 Frc consts  --      0.8954                 0.9019                 1.4311
 IR Inten    --     12.0070                 4.5037                 4.3440
  Atom  AN      X      Y      Z        X      Y      Z        X      Y      Z
     1   6    -0.02   0.01  -0.02     0.06   0.06   0.04    -0.04  -0.02  -0.03
     2   6     0.00   0.00  -0.00     0.00  -0.00   0.00    -0.01  -0.01   0.02
     3   6     0.01  -0.00  -0.02     0.04   0.03   0.02    -0.05  -0.00  -0.03
     4   6    -0.01  -0.00   0.01    -0.00   0.00  -0.02     0.01   0.01  -0.06
     5   6    -0.04   0.09  -0.04    -0.04  -0.00  -0.04     0.02   0.02  -0.02
     6   6     0.06  -0.07   0.01     0.02  -0.02  -0.01     0.03   0.01  -0.03
     7   6     0.04   0.02  -0.03    -0.02  -0.02   0.01    -0.08  -0.07   0.16
     8   1     0.01   0.05  -0.01     0.01  -0.02   0.01    -0.20  -0.32   0.03
     9   1     0.16  -0.02  -0.04    -0.17   0.01   0.05    -0.36   0.19   0.02
    10   6    -0.04  -0.02   0.03     0.01   0.01  -0.01     0.09   0.11  -0.12
    11   1    -0.12  -0.09  -0.01     0.07   0.06   0.03     0.34   0.27   0.15
    12   1    -0.11  -0.07   0.02     0.06   0.03  -0.02     0.22   0.01  -0.21
    13   6     0.00  -0.00  -0.02     0.00   0.01   0.03     0.01  -0.04   0.09
    14   8     0.01   0.01   0.01    -0.00  -0.00  -0.00    -0.03  -0.00  -0.02
    15   1    -0.02   0.01   0.02     0.03  -0.01  -0.02     0.03   0.07  -0.01
    16   1    -0.00   0.03  -0.02     0.01  -0.03   0.02     0.01  -0.13   0.11
    17   6    -0.02  -0.01   0.05    -0.03  -0.04   0.01    -0.00   0.01   0.06
    18   1     0.08  -0.14   0.07    -0.15   0.27  -0.07    -0.02  -0.08   0.09
    19   1    -0.03  -0.00   0.04     0.17  -0.23   0.13     0.03  -0.06  -0.00
    20  17    -0.00  -0.00   0.00     0.00   0.00  -0.00     0.00   0.00  -0.01
    21   6    -0.01   0.00   0.08    -0.09  -0.07  -0.03     0.03   0.02   0.04
    22   1     0.06  -0.10  -0.11     0.32  -0.36   0.27    -0.07   0.08  -0.12
    23   1    -0.14   0.19  -0.16     0.13   0.23   0.07    -0.08  -0.04  -0.07
    24   1     0.20  -0.26   0.03    -0.02   0.42  -0.16     0.07  -0.22   0.07
    25   1     0.36  -0.23  -0.13     0.07  -0.16  -0.13     0.24  -0.16  -0.19
    26   1    -0.26   0.47  -0.39     0.09   0.29  -0.00    -0.05   0.05  -0.11
                     37                     38                     39
                      A                      A                      A
 Frequencies --   1129.9090              1161.0442              1170.5730
 Red. masses --      1.3102                 1.2514                 1.5689
 Frc consts  --      0.9855                 0.9939                 1.2666
 IR Inten    --     12.4233                 7.5926                14.6302
  Atom  AN      X      Y      Z        X      Y      Z        X      Y      Z
     1   6    -0.04  -0.07  -0.04     0.05   0.02   0.03     0.08  -0.08   0.01
     2   6     0.01  -0.00  -0.02     0.01   0.01  -0.02    -0.01  -0.01   0.02
     3   6     0.05  -0.03   0.02    -0.01  -0.09  -0.01     0.06  -0.04  -0.00
     4   6    -0.00  -0.00   0.01    -0.00  -0.00   0.02     0.01   0.00   0.01
     5   6     0.00   0.02   0.01    -0.01   0.00  -0.01     0.00  -0.01   0.02
     6   6     0.01   0.00  -0.02     0.02   0.02  -0.02    -0.01   0.01  -0.01
     7   6    -0.01   0.03  -0.01    -0.02   0.02   0.04    -0.06   0.02  -0.00
     8   1     0.19   0.04  -0.05     0.20  -0.08  -0.08    -0.32   0.11   0.12
     9   1    -0.33   0.04   0.11    -0.27   0.08   0.08     0.08  -0.03  -0.02
    10   6    -0.01  -0.04   0.01     0.02  -0.03  -0.02     0.04   0.05   0.02
    11   1    -0.09  -0.10  -0.07    -0.14  -0.18  -0.05     0.08   0.09   0.04
    12   1     0.11   0.17   0.09     0.24   0.27   0.08     0.04   0.02  -0.01
    13   6    -0.01   0.06   0.02    -0.01   0.05   0.02     0.00  -0.06  -0.09
    14   8     0.00  -0.01  -0.00    -0.01  -0.01  -0.00     0.00   0.01   0.01
    15   1     0.10  -0.18  -0.09     0.14  -0.29  -0.14    -0.20   0.33   0.18
    16   1     0.02   0.05  -0.04     0.00   0.16  -0.10    -0.03  -0.09   0.05
    17   6     0.04  -0.02   0.01     0.01  -0.01  -0.00     0.05  -0.07   0.01
    18   1    -0.49   0.54  -0.04     0.16  -0.21   0.03    -0.27   0.27  -0.01
    19   1     0.17  -0.18  -0.02    -0.41   0.47  -0.05    -0.36   0.40   0.00
    20  17    -0.00   0.00   0.00    -0.00  -0.00   0.00     0.00   0.00  -0.00
    21   6     0.02   0.04   0.03    -0.03  -0.01  -0.01    -0.05   0.04   0.00
    22   1    -0.08   0.10  -0.14     0.04  -0.05   0.05    -0.03   0.02  -0.05
    23   1    -0.11  -0.00  -0.10     0.03   0.08   0.01    -0.08   0.21  -0.11
    24   1     0.03  -0.15   0.06     0.01   0.09  -0.04     0.01   0.08  -0.04
    25   1    -0.04  -0.03  -0.05     0.07  -0.01  -0.05    -0.14   0.12   0.09
    26   1    -0.01   0.05  -0.02    -0.02   0.02  -0.03    -0.08   0.17  -0.13
                     40                     41                     42
                      A                      A                      A
 Frequencies --   1182.0057              1202.4422              1239.2987
 Red. masses --      1.9391                 1.1948                 2.1231
 Frc consts  --      1.5962                 1.0178                 1.9212
 IR Inten    --     71.4749                 6.3780                 2.6234
  Atom  AN      X      Y      Z        X      Y      Z        X      Y      Z
     1   6     0.03  -0.03   0.02     0.02  -0.03   0.00     0.12  -0.09  -0.05
     2   6     0.01  -0.02  -0.01    -0.01   0.05  -0.01     0.00  -0.00  -0.01
     3   6     0.01  -0.03  -0.04     0.01   0.04  -0.01    -0.12   0.12   0.03
     4   6    -0.01   0.02  -0.05     0.01  -0.01   0.01    -0.00   0.00  -0.00
     5   6    -0.01  -0.01   0.02     0.01  -0.02   0.01     0.07  -0.08  -0.00
     6   6     0.00  -0.01   0.02    -0.01  -0.00   0.01    -0.12   0.11   0.01
     7   6     0.05   0.06  -0.03    -0.00  -0.02   0.01     0.03  -0.03  -0.01
     8   1    -0.31   0.08   0.07    -0.26  -0.00   0.08     0.39  -0.10  -0.14
     9   1    -0.08   0.05   0.02     0.25  -0.03  -0.08     0.29  -0.07  -0.08
    10   6    -0.02  -0.06  -0.07     0.00   0.04  -0.02    -0.01  -0.03  -0.00
    11   1     0.06   0.01  -0.02     0.05   0.06   0.07     0.02   0.00  -0.03
    12   1    -0.51  -0.41  -0.13    -0.04  -0.10  -0.09    -0.11  -0.09  -0.01
    13   6     0.01   0.10   0.22     0.02  -0.08   0.01    -0.00   0.02   0.04
    14   8    -0.00  -0.01  -0.03    -0.02   0.01   0.00     0.00  -0.00  -0.00
    15   1     0.15  -0.13  -0.11     0.24  -0.51  -0.27     0.02  -0.02  -0.02
    16   1     0.07  -0.30   0.18    -0.02   0.54  -0.28     0.01  -0.08   0.04
    17   6     0.02  -0.02   0.00     0.00  -0.01   0.01    -0.00  -0.04   0.04
    18   1     0.01  -0.01   0.00    -0.06   0.06   0.00    -0.16   0.06   0.07
    19   1    -0.15   0.17  -0.02     0.03  -0.04   0.03    -0.13   0.12   0.12
    20  17     0.00   0.00  -0.01    -0.01  -0.00   0.01     0.00   0.00  -0.00
    21   6    -0.02   0.01  -0.01    -0.01   0.01  -0.00    -0.04   0.04   0.02
    22   1    -0.02   0.02  -0.01    -0.02   0.02  -0.02    -0.04   0.02  -0.11
    23   1    -0.02   0.08  -0.03    -0.02   0.04  -0.03    -0.10   0.23  -0.14
    24   1    -0.01   0.06  -0.02    -0.01   0.03  -0.01     0.05   0.09  -0.04
    25   1    -0.21   0.11   0.13    -0.08   0.05   0.06     0.46  -0.22  -0.32
    26   1    -0.06   0.13  -0.09    -0.03   0.08  -0.06     0.11  -0.16   0.04
                     43                     44                     45
                      A                      A                      A
 Frequencies --   1254.3339              1261.5865              1348.0761
 Red. masses --      1.5252                 1.2897                 1.5348
 Frc consts  --      1.4138                 1.2094                 1.6433
 IR Inten    --      0.8835                 8.5548                 9.3300
  Atom  AN      X      Y      Z        X      Y      Z        X      Y      Z
     1   6     0.03  -0.08   0.07    -0.01   0.01  -0.01     0.01  -0.02   0.01
     2   6     0.00  -0.01  -0.00     0.01  -0.00  -0.02    -0.01  -0.07   0.06
     3   6    -0.01   0.06  -0.08     0.04   0.01   0.03     0.01  -0.04   0.03
     4   6    -0.00   0.00   0.01    -0.01   0.01   0.01     0.04  -0.02  -0.07
     5   6     0.05  -0.09   0.05    -0.01   0.01  -0.01     0.02  -0.03   0.01
     6   6    -0.00   0.03  -0.03    -0.00  -0.01   0.00    -0.02   0.04  -0.02
     7   6     0.02  -0.04   0.04    -0.05  -0.04   0.04    -0.01  -0.02  -0.03
     8   1     0.17  -0.13  -0.06    -0.27  -0.06   0.09     0.03   0.05   0.01
     9   1    -0.03   0.04  -0.02     0.52  -0.08  -0.15    -0.26  -0.05   0.10
    10   6    -0.01  -0.01  -0.00     0.07   0.04  -0.06     0.10   0.08   0.03
[...]
 0126446,-0.00208133,-0.00009748,-0.00029063,0.00021234,-0.00004238,-0.
 00023714,-0.00009119,0.00007652,-0.00012392,-0.00002457,-0.00072256,0.
 00059725,0.00032566,0.00001447,-0.00005400,-0.00005775,-0.00048648,0.0
 0076891,0.00004146,-0.00035796,0.00012398,-0.00049855,0.00004051,-0.00
 001344,0.00005843,0.00003390,-0.00000958,0.00003837,0.00003068,-0.0000
 0091,0.00007446,-0.19175303,-0.12814724,0.03882323,-0.00659824,-0.0056
 1213,0.00249875,0.20885320,0.01177969,0.01156642,-0.00241690,-0.000617
 93,0.00051648,-0.00152295,-0.01745433,-0.01212888,0.00295920,-0.000143
 83,-0.00068225,0.00006629,0.00127077,-0.00217331,-0.00265099,0.0023598
 9,-0.00220086,0.00236904,-0.00008309,0.00041895,0.00089770,0.00021571,
 0.00020365,0.00003362,-0.00017164,0.00023007,0.00001692,0.00010540,-0.
 00020240,0.00009187,-0.00015753,0.00022953,-0.00030598,0.00072518,-0.0
 0038452,-0.00069876,0.00073610,0.00061176,0.00082911,-0.00020356,-0.00
 026411,-0.00020322,-0.00002226,-0.00006684,-0.00006259,0.00002170,-0.0
 0007752,0.00008475,-0.12797528,-0.15301550,0.03520308,-0.00784051,-0.0
 0640365,0.00263953,0.13839604,0.16349807,0.00991540,0.00919989,-0.0043
 2576,-0.00057938,-0.00037741,-0.00139588,0.01402761,0.00920635,-0.0041
 6548,-0.00028224,0.00009939,-0.00061133,0.00138644,-0.00008076,-0.0009
 4067,-0.00028461,0.00150229,-0.00156119,0.00012811,-0.00060823,-0.0002
 3344,-0.00007186,-0.00002908,-0.00005942,0.00007232,-0.00014827,0.0001
 1643,-0.00009847,-0.00011484,0.00018607,-0.00001720,-0.00008869,-0.000
 01938,0.00017148,-0.00031086,0.00013554,-0.00078035,0.00060435,0.00055
 578,0.00023109,-0.00012655,-0.00032574,-0.00001414,-0.00001739,0.00001
 101,-0.00002515,-0.00002048,-0.00006527,0.04181829,0.03833376,-0.04506
 635,-0.02074163,-0.01759285,0.00554188,-0.04280542,-0.03779944,0.05412
 493,0.00005734,-0.00007518,-0.00033321,-0.03481545,-0.01037476,0.02875
 913,0.00001275,-0.00006232,0.00029787,0.00812876,0.00086198,-0.0050611
 4,0.00013950,-0.00005960,0.00005553,-0.00013740,-0.00010877,0.00011583
 ,0.00001052,0.00004290,-0.00002149,0.00000158,-0.00002331,-0.00000410,
 -0.00001299,-0.00000178,-0.00000475,0.00112899,-0.00065976,-0.00004039
 ,-0.00012649,-0.00023502,-0.00021474,-0.00002672,0.00006480,-0.0000062
 1,-0.00639872,-0.00110655,-0.00220515,0.00027940,0.00205596,0.00014557
 ,0.00558004,0.00227671,0.00315875,0.00210912,-0.01039087,0.00908263,-0
 .00025794,-0.00018377,0.00010995,-0.00002330,-0.00000212,-0.00001968,-
 0.00030273,-0.00004401,-0.00006387,0.02436740,0.00001791,-0.00015263,-
 0.00011273,-0.01289158,-0.09226008,0.06855153,-0.00016482,-0.00040780,
 0.00058961,-0.00668677,-0.02723790,0.03243695,0.00034413,-0.00021747,-
 0.00010476,-0.00045511,-0.00045193,-0.00025321,0.00013933,0.00017219,-
 0.00002529,-0.00003781,0.00018011,-0.00001118,-0.00017982,-0.00002524,
 -0.00005819,0.00090638,-0.00075898,0.00002883,-0.00007714,-0.00025254,
 -0.00028006,-0.00002767,0.00012580,-0.00003791,-0.00625694,0.00139269,
 0.00426302,0.00339281,-0.00122096,-0.00118099,0.00392768,-0.00367214,-
 0.00037276,0.00028116,-0.00041150,0.00254080,-0.00042120,0.00006768,0.
 00036408,0.00004453,0.00005315,-0.00005622,0.00004949,-0.00026808,-0.0
 0026714,0.01816320,0.12502083,0.00054517,-0.00015066,-0.00064254,0.029
 00433,0.06441146,-0.12252441,0.00043194,0.00067377,-0.00079255,0.00084
 806,0.02035047,-0.00782862,-0.00017077,-0.00017224,0.00058604,0.000042
 82,0.00054318,0.00083409,-0.00011147,-0.00023230,0.00007470,0.00003064
 ,-0.00023432,0.00000776,0.00016825,0.00004022,0.00004293,-0.00082316,0
 .00063788,0.00019932,0.00011722,0.00028146,0.00028248,0.00008793,0.000
 23875,0.00025267,0.00437787,-0.00365981,-0.00758837,-0.00494497,-0.001
 01232,0.00419155,0.00227753,0.00160491,0.00398616,0.00220393,0.0229719
 1,-0.01620318,0.00006337,-0.00018568,-0.00027717,-0.00011785,-0.000106
 93,0.00004710,-0.00015021,0.00026558,0.00027629,-0.03393065,-0.1058766
 1,0.14486296,-0.11895291,0.07277258,-0.02111153,0.00001475,0.00004468,
 0.00007026,-0.00311845,0.00071272,0.00265225,0.00001146,-0.00007585,-0
 .00002482,0.00814914,-0.00088233,0.00238076,0.00380900,0.00276765,0.00
 338695,0.00055835,0.00093478,-0.00069350,-0.00011752,0.00023515,-0.000
 00341,0.00005725,0.00001831,-0.00008379,0.00019141,-0.00018329,0.00003
 743,0.00002397,0.00002265,-0.00004062,0.00003543,-0.00001836,-0.000017
 03,-0.00005603,0.00007819,0.00014281,0.00005683,-0.00001995,-0.0000610
 0,-0.00002004,-0.00000973,-0.00002384,-0.00000087,-0.00001489,-0.00004
 876,-0.00832950,0.01685649,-0.00985180,0.00039994,0.00005729,-0.000029
 21,0.00079210,-0.00043349,-0.00049808,-0.00005464,-0.00003759,-0.00003
 023,0.56147352,0.07074589,-0.19099910,0.05175979,0.00015538,0.00031273
 ,-0.00030856,0.00045029,-0.00073783,-0.00048484,-0.00000530,-0.0002134
 9,0.00004843,0.01081412,-0.00943758,0.00764041,0.00189536,0.00342723,0
 .00363181,0.00039558,0.00045460,0.00083255,0.00012756,-0.00003803,-0.0
 0007620,-0.00015695,0.00015888,-0.00010778,0.00004290,-0.00004455,-0.0
 0005595,-0.00002908,-0.00000002,-0.00000797,-0.00000527,0.00001903,-0.
 00001409,0.00006205,0.00008690,0.00010887,-0.00004225,-0.00005465,-0.0
 0003997,-0.00000163,-0.00003073,0.00000181,-0.00000280,0.00000625,0.00
 003776,0.00527015,-0.00791474,0.00218827,-0.00056441,0.00044607,0.0006
 3702,-0.00027859,0.00020564,0.00030296,-0.00008335,-0.00024856,0.00027
 050,0.00475185,0.52487931,-0.01833179,0.04841879,-0.10557166,-0.000026
 54,-0.00006806,0.00000302,0.00251130,-0.00042947,-0.00439899,0.0000356
 9,0.00007962,0.00003043,-0.01269143,0.02458811,-0.00399314,0.00363558,
 0.00323846,-0.00090826,0.00062536,-0.00052983,0.00170444,0.00046173,-0
 .00033412,-0.00004890,-0.00027635,0.00027283,0.00004727,-0.00011250,-0
 .00003422,-0.00000074,-0.00000293,-0.00001333,0.00004078,-0.00008369,0
 .00001668,0.00005754,-0.00002494,-0.00003839,-0.00007399,-0.00000789,0
 .00001581,0.00001674,0.00001537,-0.00000265,0.00001185,0.00001510,-0.0
 0001421,0.00000416,0.00555774,-0.01443935,0.01135185,-0.00039264,0.000
 04133,-0.00008922,0.00015215,0.00021550,0.00002549,-0.00001783,0.00002
 623,0.00003194,-0.02703521,0.01471493,0.56805567,0.01338533,0.01368567
 ,-0.00176350,-0.00000775,0.00015389,-0.00021699,0.00001165,0.00043504,
 -0.00070783,0.00001289,-0.00002304,0.00006761,-0.00075008,0.00059978,-
 0.00090706,-0.00055549,-0.00010525,-0.00027309,-0.00003199,-0.00017266
 ,0.00000374,0.00000572,-0.00001135,0.00000547,-0.00002487,0.00001534,0
 .00003332,-0.00002095,0.00004002,-0.00004192,-0.00001511,-0.00001654,0
 .00001134,-0.00000581,-0.00000531,0.00001508,-0.00001030,0.00008677,0.
 00007911,0.00000858,-0.00004692,-0.00003375,0.00000343,-0.00001856,-0.
 00000395,-0.00000771,-0.00003394,0.00001175,0.00035914,-0.00077210,0.0
 0061065,0.00008320,-0.00004075,-0.00003908,-0.00011158,0.00018628,0.00
 003590,0.00031921,-0.00006004,0.00015777,-0.16190885,-0.13044329,0.022
 06501,0.16966721,-0.01551675,-0.01981330,0.00641916,-0.00009038,-0.000
 32350,0.00036322,0.00002478,-0.00065176,0.00090907,-0.00003898,0.00009
 699,-0.00003084,0.00136669,-0.00070339,-0.00121228,0.00133404,0.000275
 39,0.00029897,-0.00000138,0.00013936,-0.00015338,0.00004400,0.00000602
 ,-0.00000025,0.00012952,-0.00008248,-0.00006496,0.00001656,-0.00012298
 ,0.00014350,0.00006674,0.00003723,-0.00002632,-0.00000852,0.00000880,-
 0.00001594,-0.00009223,-0.00016828,-0.00015646,0.00009100,0.00010133,0
 .00006379,-0.00001663,0.00002053,-0.00002327,0.00002906,0.00000737,0.0
 0000337,-0.00030114,0.00082107,-0.00015901,-0.00012162,0.00014719,0.00
 012402,0.00060294,-0.00022602,-0.00022319,-0.00011389,0.00020895,-0.00
 032751,-0.13299947,-0.19586108,0.02222812,0.14088183,0.21231597,0.0077
 3730,0.01111181,-0.00409128,-0.00007167,0.00020068,-0.00012710,0.00005
 428,-0.00014577,0.00004481,0.00002799,-0.00010481,-0.00004578,-0.00135
 682,0.00103586,0.00046859,-0.00073432,-0.00041986,-0.00073932,0.000018
 27,0.00006753,0.00006984,-0.00002019,0.00000514,-0.00000340,-0.0000423
 4,0.00001483,0.00001742,0.00001553,0.00000701,-0.00004359,-0.00002229,
 -0.00001255,-0.00000542,0.00000578,-0.00000222,-0.00000664,-0.00001212
 ,0.00010951,0.00014740,0.00000666,-0.00005323,-0.00006898,0.00000771,-
 0.00000053,0.00000964,-0.00004212,0.00002359,-0.00005506,0.00023618,-0
 .00027448,-0.00013607,-0.00004112,-0.00010745,0.00010715,-0.00007243,-
 0.00007072,0.00027120,0.00016040,-0.00013632,0.00001587,0.02290450,0.0
 2218146,-0.04703019,-0.02176559,-0.02819655,0.04844147,-0.01103537,0.0
 0283454,0.00974871,-0.00002876,-0.00000440,0.00007218,-0.00039649,0.00
 027854,0.00063096,0.00001634,-0.00002003,-0.00004472,0.00099592,-0.001
 32535,-0.00007022,-0.00024082,-0.00004540,-0.00005569,0.00013070,0.000
 15624,-0.00023687,-0.00009173,0.00007527,0.00000225,-0.00002331,0.0000
 1864,0.00002745,0.00003314,0.00000855,-0.00003174,-0.00002912,-0.00000
 130,-0.00000498,0.00002528,-0.00001608,-0.00002165,0.00010409,0.000063
 07,0.00007275,-0.00007908,-0.00003901,-0.00002392,0.00000760,0.0000081
 8,0.00001761,-0.00001490,0.00002196,-0.00001035,0.00057105,0.00206646,
 -0.00182290,-0.00009457,0.00013802,0.00019157,0.00036850,-0.00024851,-
 0.00015748,-0.00001441,-0.00001309,-0.00004880,-0.18971944,0.05894978,
 0.12639478,-0.01225120,0.00770629,0.01133718,0.20063951,0.01958584,-0.
 00799608,-0.01936938,-0.00000465,-0.00009324,0.00008244,0.00112739,-0.
 00032802,-0.00086309,0.00000616,0.00004503,-0.00000663,-0.00082436,0.0
 0120131,-0.00085170,-0.00004740,-0.00003741,-0.00021948,-0.00000624,-0
 .00016329,0.00045649,0.00014000,-0.00012062,-0.00000489,-0.00000326,0.
 00000322,-0.00001852,-0.00003968,-0.00002660,0.00004022,0.00002848,0.0
 0000446,0.00000339,-0.00003166,0.00001660,0.00002021,-0.00010005,-0.00
 007847,-0.00007137,0.00007529,0.00004470,0.00001947,-0.00000759,0.0000
 0548,-0.00000973,-0.00000106,0.00000796,-0.00001118,0.00134304,-0.0027
 9585,0.00341075,-0.00033416,0.00018949,0.00011048,0.00017033,0.0000133
 0,-0.00005286,0.00000295,0.00006081,-0.00005361,0.05775413,-0.07024066
 ,-0.05036497,-0.01603261,0.00832477,0.01587652,-0.06657018,0.07460300,
 -0.01067575,0.00374610,0.00867394,0.00001112,0.00002028,-0.00001018,-0
 .00040186,0.00040246,0.00030939,0.00000695,-0.00000746,0.00000095,-0.0
 0081157,0.00001452,0.00083783,-0.00004080,-0.00023416,0.00005711,0.000
 00766,0.00012564,-0.00009013,-0.00002439,0.00002299,0.00000145,0.00001
 009,-0.00000058,-0.00000186,0.00001804,-0.00000889,-0.00000642,0.00000
 464,-0.00000096,-0.00000178,-0.00000004,0.00000146,0.00000165,-0.00003
 095,0.00000208,0.00000795,0.00002325,-0.00000079,-0.00000445,-0.000006
 24,-0.00000086,-0.00000426,-0.00000713,-0.00000612,-0.00000412,-0.0006
 5738,0.00198357,-0.00025380,-0.00015789,0.00023154,0.00012060,0.000115
 13,-0.00005784,-0.00014181,0.00000639,-0.00000881,0.00001430,0.1277964
 4,-0.05197306,-0.15948992,0.00010094,-0.00095637,-0.00183547,-0.136181
 23,0.05369105,0.16607501,-0.00486742,-0.00250287,-0.01245111,-0.000010
 96,0.00005040,-0.00007893,-0.00014727,0.00057600,-0.00090871,0.0000006
 5,-0.00000383,0.00002506,-0.00031273,-0.00000577,0.00049646,-0.0002862
 2,0.00035082,0.00047180,0.00022356,0.00001436,0.00026859,0.00001410,-0
 .00002149,-0.00000834,-0.00012963,0.00011973,0.00005032,-0.00001249,0.
 00005403,-0.00006351,-0.00003698,-0.00001044,0.00001746,-0.00000109,-0
 .00000837,0.00000521,0.00012124,0.00002206,-0.00001327,-0.00010022,-0.
 00003213,0.00001426,0.00001963,-0.00000464,0.00002381,0.00001005,-0.00
 000032,0.00003091,0.00039699,-0.00033869,0.00053055,-0.00015856,0.0003
 0996,0.00010777,0.00007563,-0.00004042,-0.00015194,0.00000039,-0.00002
 897,0.00005428,-0.09199295,-0.01998131,-0.09964662,-0.00815619,-0.0029
 3458,-0.01864197,0.01103951,0.00409160,0.02047066,0.09435529,0.0111869
 4,0.00488020,0.02818478,-0.00002043,-0.00010611,0.00009110,-0.00004309
 ,-0.00048193,0.00086585,-0.00003446,0.00002653,0.00000335,0.00128362,-
 0.00185852,-0.00040904,-0.00041517,-0.00128933,-0.00048621,-0.00017905
 ,-0.00000291,-0.00028111,-0.00003227,0.00001769,0.00002450,0.00012523,
 -0.00010627,-0.00003353,0.00000786,-0.00003779,0.00005329,0.00003574,0
 .00001344,-0.00001135,0.00000060,0.00001101,-0.00000245,-0.00006923,-0
 .00006239,-0.00006840,0.00006128,0.00004006,0.00002897,-0.00001237,0.0
 0000593,-0.00001841,0.00001770,-0.00001718,0.00001314,-0.00064382,0.00
 096285,-0.00060450,0.00021103,-0.00011601,-0.00020071,-0.00009021,0.00
 007988,-0.00002247,0.00001044,0.00010225,-0.00008713,-0.01913779,-0.05
 341000,-0.04648561,-0.00849996,-0.00417324,-0.02150542,-0.00441542,-0.
 00260143,-0.00664449,0.02013874,0.05798383,-0.00268133,0.00150104,-0.0
 0989244,0.00000090,0.00005236,-0.00008165,-0.00000372,0.00010210,-0.00
 000097,-0.00000347,-0.00002398,0.00002417,-0.00164812,0.00022454,0.001
 11276,0.00039461,0.00072241,0.00037633,0.00000551,-0.00003409,0.000113
 76,-0.00001218,0.00000687,-0.00001511,-0.00007202,0.00006365,-0.000000
 22,-0.00001319,0.00006625,-0.00004222,-0.00004029,-0.00001086,0.000013
 43,0.00001397,-0.00001399,-0.00000491,0.00012990,0.00003240,0.00001102
 ,-0.00010123,-0.00003011,0.00000516,0.00002080,-0.00000512,0.00001822,
 0.00001363,0.00000422,0.00002127,0.00022183,0.00000141,-0.00019177,-0.
 00016609,0.00018180,0.00038485,0.00006060,0.00001450,0.00004421,-0.000
 01469,-0.00003791,0.00004609,-0.09838269,-0.04864061,-0.25994086,0.002
 56089,0.00119845,0.00424104,-0.00928518,-0.00247678,-0.01423808,0.1094
 0409,0.04734489,0.27810753,-0.00209064,0.00391606,0.00033726,0.0000254
 9,-0.00010455,0.00004042,0.00686718,-0.01100486,0.01282144,0.00016310,
 0.00011158,0.00008956,0.00409499,0.00732150,-0.01576037,-0.05145456,0.
 02087493,-0.00789584,-0.00094796,-0.00339956,-0.00160793,-0.00015803,0
 .00049024,-0.00054725,0.00047513,-0.00027019,-0.00036404,-0.00018192,0
 .00024164,0.00004563,-0.00005175,-0.00004611,0.00004364,0.00003772,0.0
 0004191,-0.00002364,-0.00011227,0.00009888,0.00010006,0.00008905,-0.00
 002528,-0.00004972,-0.00005584,-0.00002008,-0.00006321,0.00000437,-0.0
 0000410,-0.00001051,0.00267149,0.00463849,0.00578892,0.00033982,-0.001
 66422,0.00105247,-0.00032981,0.00049016,-0.00060680,0.00003054,0.00012
 218,-0.00009635,0.00075195,0.00035350,-0.00063190,-0.00014279,0.000298
 81,-0.00012426,0.00002559,-0.00007624,0.00004478,-0.00004605,0.0001095
 0,-0.00010788,0.03993953,0.00292845,-0.00200703,0.00072744,0.00003204,
 -0.00016992,0.00006904,0.00241069,0.00493708,-0.00325376,0.00022923,0.
 00007333,0.00007688,-0.00478209,-0.00482632,0.01422064,0.01935120,-0.1
 6277506,0.14663912,-0.00234327,-0.00206790,-0.00186256,-0.00029087,0.0
 0030127,0.00011512,0.00042074,-0.00019512,-0.00031978,-0.00017819,0.00
 028814,0.00018712,-0.00009646,-0.00007177,0.00005179,0.00001116,-0.000
 01252,-0.00000420,-0.00006123,0.00024127,0.00018857,0.00003980,-0.0000
 8591,-0.00008706,-0.00018856,-0.00001163,-0.00005391,0.00001606,-0.000
 02606,0.00002436,0.00487350,0.00401516,0.00280314,0.00005123,-0.001144
 32,0.00088747,-0.00064295,0.00092540,-0.00078934,0.00003654,0.00016332
 ,-0.00015222,-0.00019154,0.00018495,0.00081418,0.00003047,-0.00012178,
 0.00010153,-0.00000269,0.00003751,-0.00005026,0.00015842,-0.00027544,0
 .00013824,-0.02145965,0.16238296,0.00145409,-0.00046260,0.00013425,0.0
 0004101,0.00005083,-0.00003786,-0.00596764,0.01631143,-0.00914562,0.00
 006473,0.00003243,-0.00000644,0.00150299,-0.00388004,0.00368223,-0.007
 15357,0.14568760,-0.22865823,-0.00256220,-0.00140972,-0.00035235,0.000
 58118,-0.00039957,-0.00004551,0.00036817,-0.00018542,-0.00020975,0.000
 00419,0.00010050,0.00025907,-0.00001395,-0.00004007,0.00004145,-0.0001
 3289,-0.00003648,0.00009273,-0.00007766,0.00009408,0.00005116,0.000010
 68,-0.00004136,-0.00003793,0.00007827,0.00009578,-0.00001857,-0.000011
 55,-0.00001698,-0.00000878,0.00557200,0.00300336,-0.00033013,0.0001115
 4,-0.00042127,0.00009094,-0.00060528,0.00100816,-0.00129171,0.00003035
 ,-0.00000897,0.00007344,0.00010227,-0.00001533,0.00039634,-0.00004474,
 0.00004750,-0.00002389,-0.00004679,0.00004898,0.00000298,0.00005490,-0
 .00004302,0.00000616,0.00716664,-0.15981550,0.23555369,0.00204698,0.00
 384213,-0.00059341,-0.00003674,0.00007062,0.00002842,-0.00108967,0.002
 64395,0.00042840,0.00003649,-0.00007775,-0.00010173,-0.18641179,0.0550
 3149,0.14390017,-0.00504385,-0.00255722,0.01083756,0.00021969,-0.00004
 549,0.00073221,0.00001046,-0.00001022,-0.00004915,-0.00021156,0.000167
 81,0.00006849,0.00006972,0.00012370,-0.00010955,-0.00007001,-0.0000634
 0,0.00001707,0.00002303,-0.00002938,0.00002758,0.00009839,0.00017921,0
 .00017947,-0.00009331,-0.00009256,-0.00008276,0.00000027,0.00002444,0.
 00004636,-0.00004408,-0.00003155,-0.00001308,0.00477722,0.00434983,0.0
 0345932,-0.00136133,0.00039841,0.00085529,0.00087074,-0.00085051,-0.00
 060802,0.00000525,-0.00005027,0.00001337,-0.00205391,-0.00242017,-0.00
 218754,0.00014430,-0.00035670,0.00043546,0.00006194,-0.00024606,0.0003
 7914,0.00000173,0.00040459,-0.00029465,0.00005568,-0.00035203,-0.00052
 674,0.18799435,-0.01003796,0.00845311,0.01019705,0.00002182,-0.0000389
 6,0.00007659,0.00356272,-0.00285835,0.00113214,0.00001714,0.00003833,-
 0.00000368,0.05591501,-0.06712210,-0.04078494,0.01010660,0.00142176,-0
 .01653251,0.00047690,0.00078305,-0.00072405,-0.00004853,0.00004490,0.0
 0003036,0.00007233,-0.00006458,-0.00008114,0.00027679,-0.00038147,-0.0
 0003892,0.00015192,0.00005932,-0.00004171,-0.00000083,0.00001106,0.000
 00759,-0.00015530,-0.00008985,-0.00007614,0.00012244,0.00005667,0.0000
 2583,-0.00002033,-0.00000127,-0.00003320,-0.00002313,0.00000038,-0.000
 02702,0.00409286,0.00259354,0.00531140,-0.00151830,0.00066535,0.000714
 04,0.00049697,-0.00040519,-0.00057915,0.00000960,0.00003802,-0.0000387
 5,-0.00300217,-0.00095058,-0.00191639,0.00016725,-0.00026315,0.0002944
 4,0.00037591,-0.00007599,-0.00029104,0.00002771,0.00041487,-0.00038169
 ,-0.00103456,0.00024038,0.00029568,-0.06005288,0.05743075,0.01770887,-
 0.00982825,-0.00780007,0.00000403,-0.00002531,-0.00001353,-0.00080841,
 0.00217068,-0.00010146,0.00000923,0.00001270,-0.00000389,0.14282455,-0
 .03962897,-0.19007704,-0.00583370,0.00188120,0.00603760,-0.00009676,0.
 00016861,0.00054086,0.00005501,-0.00006471,-0.00000827,-0.00006647,0.0
 0007585,0.00000215,0.00010036,-0.00003509,-0.00003689,0.00002400,-0.00
 002699,0.00003237,-0.00003855,-0.00000081,0.00007609,-0.00012846,-0.00
 001270,-0.00004182,0.00007126,0.00001582,-0.00000453,-0.00001366,0.000
 00394,-0.00000438,-0.00000594,-0.00001670,-0.00000628,0.00393819,0.005
 19943,-0.00093278,-0.00036446,0.00015645,0.00004577,0.00110200,-0.0009
 0545,-0.00108539,0.00001550,0.00002798,0.00003116,-0.00153814,-0.00263
 220,-0.00023165,0.00003895,-0.00025286,0.00037775,-0.00045292,0.000614
 19,-0.00002087,-0.00006170,0.00029397,-0.00011777,0.00035887,-0.000656
 03,-0.00021767,-0.15684167,0.04346522,0.19356052\\-0.00000289,-0.00001
 487,-0.00000737,-0.00000693,0.00000490,0.00001546,-0.00010697,-0.00011
 807,-0.00005841,-0.00002536,0.00001920,-0.00004664,0.00001486,0.000008
 98,0.00000826,-0.00000723,-0.00000248,0.00001703,0.00004219,0.00005095
 ,-0.00001670,0.00000956,0.00002662,0.00001458,0.00000628,-0.00001155,0
 .00001918,0.00000844,0.00004143,-0.00004827,-0.00000342,-0.00000994,0.
 00000358,0.00001027,0.00000773,0.00000295,0.00000673,-0.00002732,0.000
 05898,0.00000515,0.00000286,-0.00000949,0.00003083,0.00000957,0.000017
 61,0.00000057,-0.00000267,-0.00000730,0.00002795,0.00003199,0.00003414
 ,-0.00001493,-0.00000270,0.00000660,-0.00000378,-0.00001310,-0.0000166
 9,0.00001463,0.00001091,0.00000787,0.00000665,0.00000798,0.00000122,-0
 .00000627,-0.00000327,0.00000748,-0.00000769,-0.00000643,0.00000032,0.
 00000236,-0.00000205,0.00000206,0.00000258,0.00000015,-0.00000521,-0.0
 0000357,-0.00000881,-0.00000127\\\@
 The archive entry for this job was punched.


 SUCCESS IS NEVER CERTAIN,
 FAILURE IS NEVER FINAL.
 Job cpu time:       0 days  0 hours 33 minutes 45.0 seconds.
 Elapsed time:       0 days  0 hours  2 minutes 50.7 seconds.
 File lengths (MBytes):  RWF=    267 Int=      0 D2E=      0 Chk=     12 Scr=      1
 Normal termination of Gaussian 16 at Sat Dec 30 20:57:21 2023.
