Unloading slurm/anatra/current
  ERROR: No such file or directory on
    '/cm/local/modulefiles/slurm/anatra/current'
environment: line 0: unalias: gv: not found
environment: line 0: unalias: sl: not found
 Entering Gaussian System, Link 0=g16
 Initial command:
 /apps/gaussian/g16/C.01/g16/l1.exe "/local/jobs/1153172/Gau-1736397.inp" -scrdir="/local/jobs/1153172/"
 Entering Link 1 = /apps/gaussian/g16/C.01/g16/l1.exe PID=   1736400.
  
 Copyright (c) 1988-2019, Gaussian, Inc.  All Rights Reserved.
  
 This is part of the Gaussian(R) 16 program.  It is based on
 the Gaussian(R) 09 system (copyright 2009, Gaussian, Inc.),
 the Gaussian(R) 03 system (copyright 2003, Gaussian, Inc.),
 the Gaussian(R) 98 system (copyright 1998, Gaussian, Inc.),
 the Gaussian(R) 94 system (copyright 1995, Gaussian, Inc.),
 the Gaussian 92(TM) system (copyright 1992, Gaussian, Inc.),
 the Gaussian 90(TM) system (copyright 1990, Gaussian, Inc.),
 the Gaussian 88(TM) system (copyright 1988, Gaussian, Inc.),
 the Gaussian 86(TM) system (copyright 1986, Carnegie Mellon
 University), and the Gaussian 82(TM) system (copyright 1983,
 Carnegie Mellon University). Gaussian is a federally registered
 trademark of Gaussian, Inc.
  
 This software contains proprietary and confidential information,
 including trade secrets, belonging to Gaussian, Inc.
  
 This software is provided under written license and may be
 used, copied, transmitted, or stored only in accord with that
 written license.
  
 The following legend is applicable only to US Government
 contracts under FAR:
  
                    RESTRICTED RIGHTS LEGEND
  
 Use, reproduction and disclosure by the US Government is
 subject to restrictions as set forth in subparagraphs (a)
 and (c) of the Commercial Computer Software - Restricted
 Rights clause in FAR 52.227-19.
  
 Gaussian, Inc.
 340 Quinnipiac St., Bldg. 40, Wallingford CT 06492
  
  
 ---------------------------------------------------------------
 Warning -- This program may not be used in any manner that
 competes with the business of Gaussian, Inc. or will provide
 assistance to any competitor of Gaussian, Inc.  The licensee
 of this program is prohibited from giving any competitor of
 Gaussian, Inc. access to this program.  By using this program,
 the user acknowledges that Gaussian, Inc. is engaged in the
 business of creating and licensing software in the field of
 computational chemistry and represents and warrants to the
 licensee that it is not a competitor of Gaussian, Inc. and that
 it will not use this program in any manner prohibited above.
 ---------------------------------------------------------------
  

 Cite this work as:
 Gaussian 16, Revision C.01,
 M. J. Frisch, G. W. Trucks, H. B. Schlegel, G. E. Scuseria, 
 M. A. Robb, J. R. Cheeseman, G. Scalmani, V. Barone, 
 G. A. Petersson, H. Nakatsuji, X. Li, M. Caricato, A. V. Marenich, 
 J. Bloino, B. G. Janesko, R. Gomperts, B. Mennucci, H. P. Hratchian, 
 J. V. Ortiz, A. F. Izmaylov, J. L. Sonnenberg, D. Williams-Young, 
 F. Ding, F. Lipparini, F. Egidi, J. Goings, B. Peng, A. Petrone, 
 T. Henderson, D. Ranasinghe, V. G. Zakrzewski, J. Gao, N. Rega, 
 G. Zheng, W. Liang, M. Hada, M. Ehara, K. Toyota, R. Fukuda, 
 J. Hasegawa, M. Ishida, T. Nakajima, Y. Honda, O. Kitao, H. Nakai, 
 T. Vreven, K. Throssell, J. A. Montgomery, Jr., J. E. Peralta, 
 F. Ogliaro, M. J. Bearpark, J. J. Heyd, E. N. Brothers, K. N. Kudin, 
 V. N. Staroverov, T. A. Keith, R. Kobayashi, J. Normand, 
 K. Raghavachari, A. P. Rendell, J. C. Burant, S. S. Iyengar, 
 J. Tomasi, M. Cossi, J. M. Millam, M. Klene, C. Adamo, R. Cammi, 
 J. W. Ochterski, R. L. Martin, K. Morokuma, O. Farkas, 
 J. B. Foresman, and D. J. Fox, Gaussian, Inc., Wallingford CT, 2019.
 
 ******************************************
 Gaussian 16:  ES64L-G16RevC.01  3-Jul-2019
                30-Dec-2023 
 ******************************************
 %chk=imda-1_1_opt_sqm_reopt_freq.chk
 %nprocshared=12
 Will use up to   12 processors via shared memory.
 %mem=48GB
 -----------------------------------------------------------
 # wb97xd def2svp scrf=(iefpcm,solvent=toluene) freq=noraman
 -----------------------------------------------------------
 1/10=4,30=1,38=1/1,3;
 2/12=2,17=6,18=5,40=1/2;
 3/5=43,7=101,11=2,25=1,30=1,70=2201,71=2,72=13,74=-58,140=1/1,2,3;
 4//1;
 5/5=2,38=5,53=13,98=1/2;
 8/6=4,10=90,11=11/1;
 11/6=1,8=1,9=11,15=111,16=1/1,2,10;
 10/6=1/2;
 6/7=2,8=2,9=2,10=2,28=1/1;
 7/8=1,10=1,25=1/1,2,3,16;
 1/10=4,30=1/3;
 99//99;
 --------------------------
 imda-1_1_opt_sqm_reopt.out
 --------------------------
 Symbolic Z-matrix:
 Charge =  0 Multiplicity = 1
 C                    -2.46717   0.31492  -0.21937 
 C                     0.98861   1.27213   1.11657 
 C                    -0.91878  -1.47829  -0.04081 
 C                     1.36787  -0.00252   1.09886 
 C                    -2.67232  -0.35014   0.93932 
 C                    -1.71974  -1.45742   1.04678 
 C                     0.22739  -2.40378  -0.32239 
 H                     0.46345  -2.97815   0.58773 
 H                    -0.07423  -3.14854  -1.07923 
 C                     1.48772  -1.71422  -0.85731 
 H                     2.2609   -2.45138  -1.12062 
 H                     1.25075  -1.18923  -1.80026 
 C                     2.16482  -0.66388   0.00865 
 O                     3.31425  -0.34929  -0.18926 
 H                     1.0587   -0.6284    1.94112 
 H                     0.41392   1.71018   1.93372 
 C                    -1.34682  -0.36408  -0.95938 
 H                    -1.68767  -0.75373  -1.93668 
 H                    -0.53031   0.34457  -1.18303 
 Cl                    1.28423   2.38368  -0.1879 
 C                    -3.17233   1.52413  -0.73952 
 H                    -2.46588   2.35908  -0.87993 
 H                    -3.96101   1.85548  -0.04955 
 H                    -3.6353    1.32964  -1.72081 
 H                    -1.65152  -2.14005   1.89661 
 H                    -3.42328  -0.09892   1.69088 
 

 GradGradGradGradGradGradGradGradGradGradGradGradGradGradGradGradGradGrad
 Berny optimization.
 Initialization pass.
 Trust Radius=3.00D-01 FncErr=1.00D-07 GrdErr=1.00D-07 EigMax=2.50D+02 EigMin=1.00D-04
 Number of steps in this run=      2 maximum allowed number of steps=      2.
 GradGradGradGradGradGradGradGradGradGradGradGradGradGradGradGradGradGrad

                          Input orientation:                          
 ---------------------------------------------------------------------
 Center     Atomic      Atomic             Coordinates (Angstroms)
 Number     Number       Type             X           Y           Z
 ---------------------------------------------------------------------
      1          6           0       -2.467170    0.314920   -0.219370
      2          6           0        0.988610    1.272130    1.116570
      3          6           0       -0.918780   -1.478290   -0.040810
      4          6           0        1.367870   -0.002520    1.098860
      5          6           0       -2.672320   -0.350140    0.939320
      6          6           0       -1.719740   -1.457420    1.046780
      7          6           0        0.227390   -2.403780   -0.322390
      8          1           0        0.463450   -2.978150    0.587730
      9          1           0       -0.074230   -3.148540   -1.079230
     10          6           0        1.487720   -1.714220   -0.857310
     11          1           0        2.260900   -2.451380   -1.120620
     12          1           0        1.250750   -1.189230   -1.800260
     13          6           0        2.164820   -0.663880    0.008650
     14          8           0        3.314250   -0.349290   -0.189260
     15          1           0        1.058700   -0.628400    1.941120
     16          1           0        0.413920    1.710180    1.933720
     17          6           0       -1.346820   -0.364080   -0.959380
     18          1           0       -1.687670   -0.753730   -1.936680
     19          1           0       -0.530310    0.344570   -1.183030
     20         17           0        1.284230    2.383680   -0.187900
     21          6           0       -3.172330    1.524130   -0.739520
     22          1           0       -2.465880    2.359080   -0.879930
     23          1           0       -3.961010    1.855480   -0.049550
     24          1           0       -3.635300    1.329640   -1.720810
     25          1           0       -1.651520   -2.140050    1.896610
     26          1           0       -3.423280   -0.098920    1.690880
 ---------------------------------------------------------------------
                    Distance matrix (angstroms):
                    1          2          3          4          5
     1  C    0.000000
     2  C    3.826670   0.000000
     3  C    2.375920   3.541536   0.000000
     4  C    4.067681   1.329994   2.950511   0.000000
     5  C    1.351649   4.008190   2.303970   4.058254   0.000000
     6  C    2.302819   3.845838   1.350861   3.413617   1.464590
     7  C    3.829177   4.020246   1.499842   3.014415   3.770632
     8  H    4.481546   4.315130   2.134292   3.151762   4.106471
     9  H    4.296635   5.049108   2.140401   4.089153   4.319220
    10  C    4.490605   3.614360   2.552171   2.602092   4.732286
    11  H    5.551514   4.526397   3.496178   3.423523   5.744147
    12  H    4.310987   3.825560   2.808217   3.134788   4.857968
    13  C    4.739765   2.521724   3.189718   1.503690   4.935839
    14  O    5.819527   3.121345   4.383517   2.359639   6.092021
    15  H    4.241383   2.072875   2.925882   1.093944   3.873182
    16  H    3.857879   1.090821   3.980100   2.130810   3.841696
    17  C    1.504606   3.527178   1.506138   3.425875   2.315644
    18  H    2.167668   4.537501   2.170369   4.372087   3.066561
    19  H    2.163549   2.907859   2.185954   2.988408   3.094382
    20  Cl   4.284129   1.739131   4.448562   2.712323   4.939502
    21  C    1.493317   4.563113   3.818535   5.130664   2.565424
    22  H    2.148239   4.135332   4.221735   4.918374   3.269887
    23  H    2.152608   5.118483   4.513232   5.759164   2.739223
    24  H    2.156040   5.425364   4.252805   5.895498   3.290180
    25  H    3.342085   4.384258   2.174495   3.784462   2.272051
    26  H    2.175883   4.655576   3.342743   4.828550   1.091739
                    6          7          8          9         10
     6  C    0.000000
     7  C    2.561550   0.000000
     8  H    2.699938   1.101791   0.000000
     9  H    3.176084   1.103834   1.759798   0.000000
    10  C    3.738891   1.532992   2.175957   2.132184   0.000000
    11  H    4.640159   2.185086   2.535108   2.437330   1.100247
    12  H    4.123272   2.169446   3.085867   2.472722   1.104954
    13  C    4.098442   2.624971   2.930160   3.517153   1.520383
    14  O    5.300642   3.710439   3.954956   4.484378   2.376034
    15  H    3.034279   2.994416   2.776205   4.093550   3.032206
    16  H    3.920824   4.695689   4.877969   5.737884   4.546362
    17  C    2.314982   2.654104   3.536098   3.063832   3.141323
    18  H    3.065492   2.999342   3.993496   3.012229   3.488650
    19  H    3.103863   2.977959   3.894049   3.524287   2.901233
    20  Cl   5.030141   4.904566   5.479462   5.765877   4.157199
    21  C    3.767031   5.211580   5.937256   5.616714   5.675989
    22  H    4.339886   5.499945   6.262669   6.007794   5.676552
    23  H    4.147353   5.979835   6.583764   6.419308   6.563832
    24  H    4.369969   5.551070   6.378571   5.757338   6.021300
    25  H    1.092176   2.919558   2.624629   3.515753   4.197646
    26  H    2.272099   4.763720   4.961207   5.309409   5.763713
                   11         12         13         14         15
    11  H    0.000000
    12  H    1.753664   0.000000
    13  C    2.116516   2.093722   0.000000
    14  O    2.528984   2.749337   1.208025   0.000000
    15  H    3.760690   3.788052   2.226926   3.115113   0.000000
    16  H    5.482601   4.800986   3.522457   4.142508   2.425851
    17  C    4.171147   2.852249   3.654939   4.724286   3.777472
    18  H    4.374834   2.973648   4.316719   5.313779   4.753482
    19  H    3.951213   2.430163   3.114610   4.031087   3.637573
    20  Cl   5.020125   3.920014   3.178316   3.404425   3.695432
    21  C    6.743138   5.296332   5.816555   6.774084   5.451681
    22  H    6.748400   5.220235   5.601004   6.420451   5.413504
    23  H    7.642539   6.284719   6.623923   7.603285   5.943897
    24  H    7.030044   5.497682   6.372327   7.311682   6.267159
    25  H    4.950519   4.795214   4.506431   5.675962   3.103604
    26  H    6.763764   5.934930   5.863100   6.999423   4.520079
                   16         17         18         19         20
    16  H    0.000000
    17  C    3.971497   0.000000
    18  H    5.046536   1.105948   0.000000
    19  H    3.531372   1.104035   1.764577   0.000000
    20  Cl   2.390045   3.881725   4.661948   2.905307   0.000000
    21  C    4.476831   2.635557   2.970867   2.927171   4.572093
    22  H    4.078106   2.945201   3.378153   2.810080   3.813507
    23  H    4.805672   3.547989   3.941740   3.916290   5.273583
    24  H    5.467777   2.947135   2.860121   3.301596   5.259524
    25  H    4.369404   3.376920   4.076433   4.112740   5.781690
    26  H    4.249226   3.377258   4.074348   4.101868   5.643914
                   21         22         23         24         25
    21  C    0.000000
    22  H    1.102691   0.000000
    23  H    1.099030   1.782851   0.000000
    24  H    1.102315   1.770415   1.782051   0.000000
    25  H    4.763219   5.349255   5.008547   5.390720   0.000000
    26  H    2.933277   3.683401   2.671690   3.704776   2.710659
                   26
    26  H    0.000000
 Stoichiometry    C11H13ClO
 Framework group  C1[X(C11H13ClO)]
 Deg. of freedom    72
 Full point group                 C1      NOp   1
 Largest Abelian subgroup         C1      NOp   1
 Largest concise Abelian subgroup C1      NOp   1
                         Standard orientation:                         
 ---------------------------------------------------------------------
 Center     Atomic      Atomic             Coordinates (Angstroms)
 Number     Number       Type             X           Y           Z
 ---------------------------------------------------------------------
      1          6           0       -2.467169    0.314922   -0.219370
      2          6           0        0.988611    1.272131    1.116570
      3          6           0       -0.918780   -1.478289   -0.040810
      4          6           0        1.367871   -0.002519    1.098860
      5          6           0       -2.672319   -0.350138    0.939320
      6          6           0       -1.719740   -1.457418    1.046780
      7          6           0        0.227390   -2.403779   -0.322390
      8          1           0        0.463450   -2.978149    0.587730
      9          1           0       -0.074231   -3.148539   -1.079230
     10          6           0        1.487720   -1.714220   -0.857310
     11          1           0        2.260900   -2.451380   -1.120620
     12          1           0        1.250750   -1.189229   -1.800260
     13          6           0        2.164820   -0.663880    0.008650
     14          8           0        3.314251   -0.349290   -0.189260
     15          1           0        1.058700   -0.628399    1.941120
     16          1           0        0.413921    1.710181    1.933720
     17          6           0       -1.346819   -0.364078   -0.959380
     18          1           0       -1.687670   -0.753728   -1.936680
     19          1           0       -0.530309    0.344571   -1.183030
     20         17           0        1.284232    2.383681   -0.187900
     21          6           0       -3.172329    1.524132   -0.739520
     22          1           0       -2.465878    2.359082   -0.879930
     23          1           0       -3.961009    1.855483   -0.049550
     24          1           0       -3.635299    1.329642   -1.720810
     25          1           0       -1.651520   -2.140048    1.896610
     26          1           0       -3.423279   -0.098918    1.690880
 ---------------------------------------------------------------------
 Rotational constants (GHZ):           0.8867861           0.5793213           0.4150580
 Standard basis: def2SVP (5D, 7F)
 There are   264 symmetry adapted cartesian basis functions of A   symmetry.
 There are   251 symmetry adapted basis functions of A   symmetry.
   251 basis functions,   428 primitive gaussians,   264 cartesian basis functions
    52 alpha electrons       52 beta electrons
       nuclear repulsion energy       873.3866991012 Hartrees.
 NAtoms=   26 NActive=   26 NUniq=   26 SFac= 1.00D+00 NAtFMM=   60 NAOKFM=F Big=F
 Integral buffers will be    131072 words long.
 Raffenetti 2 integral format.
 Two-electron integral symmetry is turned on.
 Nuclear repulsion after empirical dispersion term =      873.3661692697 Hartrees.
 Force inversion solution in PCM.
 ------------------------------------------------------------------------------
 Polarizable Continuum Model (PCM)
 =================================
 Model                : PCM.
 Atomic radii         : UFF (Universal Force Field).
 Polarization charges : Total charges.
 Charge compensation  : None.
 Solution method      : Matrix inversion.
 Cavity type          : Scaled VdW (van der Waals Surface) (Alpha=1.100).
 Cavity algorithm     : GePol (No added spheres)
                        Default sphere list used, NSphG=   26.
                        Lebedev-Laikov grids with approx.  5.0 points / Ang**2.
                        Smoothing algorithm: York/Karplus (Gamma=1.0000).
                        Polarization charges: spherical gaussians, with
                                              point-specific exponents (IZeta= 3).
                        Self-potential: point-specific (ISelfS= 7).
                        Self-field    : sphere-specific E.n sum rule (ISelfD= 2).
 1st derivatives      : Analytical E(r).r(x)/FMM algorithm (CHGder, D1EAlg=3).
                        Cavity 1st derivative terms included.
 2nd derivatives      : Analytical E(r).r(xy)/FMM algorithm (CHGder, D2EAlg=3).
                        Cavity 2nd derivative terms included.
 Solvent              : Toluene, Eps=   2.374100 Eps(inf)=   2.238315
 ------------------------------------------------------------------------------
 One-electron integrals computed using PRISM.
   1 Symmetry operations used in ECPInt.
 ECPInt:  NShTT=    7140 NPrTT=   26096 LenC2=    6946 LenP2D=   19119.
 LDataN:  DoStor=T MaxTD1= 4 Len=   56
 NBasis=   251 RedAO= T EigKep=  5.71D-04  NBF=   251
 NBsUse=   251 1.00D-06 EigRej= -1.00D+00 NBFU=   251
 ExpMin= 1.22D-01 ExpMax= 1.04D+04 ExpMxC= 1.57D+03 IAcc=3 IRadAn=         5 AccDes= 0.00D+00
 Harris functional with IExCor= 4639 and IRadAn=       5 diagonalized for initial guess.
 HarFok:  IExCor= 4639 AccDes= 0.00D+00 IRadAn=         5 IDoV= 1 UseB2=F ITyADJ=14
 ICtDFT=  3500011 ScaDFX=  1.000000  1.000000  1.000000  1.000000
 FoFCou: FMM=F IPFlag=           0 FMFlag=      100000 FMFlg1=           0
         NFxFlg=           0 DoJE=T BraDBF=F KetDBF=T FulRan=T
         wScrn=  0.000000 ICntrl=       500 IOpCl=  0 I1Cent=   200000004 NGrid=           0
         NMat0=    1 NMatS0=      1 NMatT0=    0 NMatD0=    1 NMtDS0=    0 NMtDT0=    0
 Petite list used in FoFCou.
 Requested convergence on RMS density matrix=1.00D-08 within 128 cycles.
 Requested convergence on MAX density matrix=1.00D-06.
 Requested convergence on             energy=1.00D-06.
 No special actions if energy rises.
 Inv3:  Mode=1 IEnd=    12024012.
 Iteration    1 A*A^-1 deviation from unit magnitude is 2.89D-15 for     84.
 Iteration    1 A*A^-1 deviation from orthogonality  is 2.41D-15 for   1343    269.
 Iteration    1 A^-1*A deviation from unit magnitude is 2.89D-15 for     84.
 Iteration    1 A^-1*A deviation from orthogonality  is 1.66D-15 for   1339    619.
 Error on total polarization charges =  0.00625
 SCF Done:  E(RwB97XD) =  -961.702758099     A.U. after   15 cycles
            NFock= 15  Conv=0.48D-08     -V/T= 2.0068
 DoSCS=F DFT=T ScalE2(SS,OS)=  1.000000  1.000000
 Range of M.O.s used for correlation:     1   251
 NBasis=   251 NAE=    52 NBE=    52 NFC=     0 NFV=     0
 NROrb=    251 NOA=    52 NOB=    52 NVA=   199 NVB=   199

 **** Warning!!: The largest alpha MO coefficient is  0.10360366D+02

   1 Symmetry operations used in ECPInt.
 ECPInt:  NShTT=    7140 NPrTT=   26096 LenC2=    6946 LenP2D=   19119.
 LDataN:  DoStor=T MaxTD1= 5 Len=  102
 Symmetrizing basis deriv contribution to polar:
 IMax=3 JMax=2 DiffMx= 0.00D+00
 G2DrvN: will do    27 centers at a time, making    1 passes.
 Calling FoFCou, ICntrl=  3107 FMM=F I1Cent=   0 AccDes= 0.00D+00.
 NEqPCM:  Using equilibrium solvation (IEInf=0, Eps=   2.3741, EpsInf=   2.2383)
 G2PCM: DoFxE=T DoFxN=T DoGrad=T DoDP/DQ/DG/TGxP=FFFF NFrqRd=   0 IEInf=0 SqF1=F DoCFld=F IF1Alg=4.
 End of G2Drv F.D. properties file   721 does not exist.
 End of G2Drv F.D. properties file   722 does not exist.
 End of G2Drv F.D. properties file   788 does not exist.
          IDoAtm=11111111111111111111111111
 NEqPCM:  Using equilibrium solvation (IEInf=0, Eps=   2.3741, EpsInf=   2.2383)
          Differentiating once with respect to electric field.
                with respect to dipole field.
          Differentiating once with respect to nuclear coordinates.
 Keep R1 ints in memory in canonical form, NReq=1021395223.
          There are    81 degrees of freedom in the 1st order CPHF.  IDoFFX=6 NUNeed=     3.
     78 vectors produced by pass  0 Test12= 1.28D-14 1.23D-09 XBig12= 5.86D+01 2.58D+00.
 AX will form    78 AO Fock derivatives at one time.
     78 vectors produced by pass  1 Test12= 1.28D-14 1.23D-09 XBig12= 5.34D+00 4.42D-01.
     78 vectors produced by pass  2 Test12= 1.28D-14 1.23D-09 XBig12= 1.78D-01 5.73D-02.
     78 vectors produced by pass  3 Test12= 1.28D-14 1.23D-09 XBig12= 2.02D-03 5.74D-03.
     78 vectors produced by pass  4 Test12= 1.28D-14 1.23D-09 XBig12= 1.34D-05 4.24D-04.
     78 vectors produced by pass  5 Test12= 1.28D-14 1.23D-09 XBig12= 7.31D-08 3.64D-05.
     65 vectors produced by pass  6 Test12= 1.28D-14 1.23D-09 XBig12= 3.56D-10 1.99D-06.
     20 vectors produced by pass  7 Test12= 1.28D-14 1.23D-09 XBig12= 1.67D-12 1.21D-07.
      3 vectors produced by pass  8 Test12= 1.28D-14 1.23D-09 XBig12= 7.58D-15 7.75D-09.
 InvSVY:  IOpt=1 It=  1 EMax= 3.55D-15
 Solved reduced A of dimension   556 with    81 vectors.
 Isotropic polarizability for W=    0.000000      137.36 Bohr**3.
 End of Minotr F.D. properties file   721 does not exist.
 End of Minotr F.D. properties file   722 does not exist.
 End of Minotr F.D. properties file   788 does not exist.

 **********************************************************************

            Population analysis using the SCF Density.

 **********************************************************************

 Orbital symmetries:
       Occupied  (A) (A) (A) (A) (A) (A) (A) (A) (A) (A) (A) (A)
                 (A) (A) (A) (A) (A) (A) (A) (A) (A) (A) (A) (A)
                 (A) (A) (A) (A) (A) (A) (A) (A) (A) (A) (A) (A)
                 (A) (A) (A) (A) (A) (A) (A) (A) (A) (A) (A) (A)
                 (A) (A) (A) (A)
       Virtual   (A) (A) (A) (A) (A) (A) (A) (A) (A) (A) (A) (A)
                 (A) (A) (A) (A) (A) (A) (A) (A) (A) (A) (A) (A)
                 (A) (A) (A) (A) (A) (A) (A) (A) (A) (A) (A) (A)
                 (A) (A) (A) (A) (A) (A) (A) (A) (A) (A) (A) (A)
                 (A) (A) (A) (A) (A) (A) (A) (A) (A) (A) (A) (A)
                 (A) (A) (A) (A) (A) (A) (A) (A) (A) (A) (A) (A)
                 (A) (A) (A) (A) (A) (A) (A) (A) (A) (A) (A) (A)
                 (A) (A) (A) (A) (A) (A) (A) (A) (A) (A) (A) (A)
                 (A) (A) (A) (A) (A) (A) (A) (A) (A) (A) (A) (A)
                 (A) (A) (A) (A) (A) (A) (A) (A) (A) (A) (A) (A)
                 (A) (A) (A) (A) (A) (A) (A) (A) (A) (A) (A) (A)
                 (A) (A) (A) (A) (A) (A) (A) (A) (A) (A) (A) (A)
                 (A) (A) (A) (A) (A) (A) (A) (A) (A) (A) (A) (A)
                 (A) (A) (A) (A) (A) (A) (A) (A) (A) (A) (A) (A)
                 (A) (A) (A) (A) (A) (A) (A) (A) (A) (A) (A) (A)
                 (A) (A) (A) (A) (A) (A) (A) (A) (A) (A) (A) (A)
                 (A) (A) (A) (A) (A) (A) (A)
 The electronic state is 1-A.
 Alpha  occ. eigenvalues -- -101.68793 -19.25544 -10.40038 -10.36777 -10.32226
 Alpha  occ. eigenvalues --  -10.31259 -10.31231 -10.30185 -10.30079 -10.30049
 Alpha  occ. eigenvalues --  -10.29685 -10.29206 -10.29009  -9.59536  -7.34903
 Alpha  occ. eigenvalues --   -7.33980  -7.33911  -1.14499  -0.97844  -0.96150
 Alpha  occ. eigenvalues --   -0.89929  -0.86025  -0.83820  -0.79555  -0.77587
 Alpha  occ. eigenvalues --   -0.72959  -0.70511  -0.62719  -0.61631  -0.60763
 Alpha  occ. eigenvalues --   -0.59595  -0.57495  -0.55478  -0.54846  -0.53431
 Alpha  occ. eigenvalues --   -0.52541  -0.49932  -0.49800  -0.48956  -0.48601
 Alpha  occ. eigenvalues --   -0.47407  -0.45887  -0.45352  -0.44686  -0.43064
 Alpha  occ. eigenvalues --   -0.42831  -0.41365  -0.40119  -0.38208  -0.34790
 Alpha  occ. eigenvalues --   -0.33873  -0.28291
 Alpha virt. eigenvalues --    0.02933   0.04843   0.07721   0.12607   0.13317
 Alpha virt. eigenvalues --    0.14513   0.15302   0.16455   0.17483   0.18562
 Alpha virt. eigenvalues --    0.19278   0.20641   0.21724   0.22245   0.22714
 Alpha virt. eigenvalues --    0.23747   0.24439   0.24793   0.26455   0.30016
 Alpha virt. eigenvalues --    0.30787   0.31242   0.33810   0.34659   0.36754
 Alpha virt. eigenvalues --    0.38918   0.40361   0.41234   0.42464   0.44769
 Alpha virt. eigenvalues --    0.47613   0.48134   0.50883   0.52177   0.52720
 Alpha virt. eigenvalues --    0.53419   0.54229   0.54925   0.55709   0.56899
 Alpha virt. eigenvalues --    0.58010   0.58532   0.60398   0.62884   0.63485
 Alpha virt. eigenvalues --    0.64850   0.66081   0.68556   0.69053   0.69816
 Alpha virt. eigenvalues --    0.70315   0.70826   0.71230   0.72450   0.73096
 Alpha virt. eigenvalues --    0.73719   0.73897   0.74714   0.75002   0.75888
 Alpha virt. eigenvalues --    0.76328   0.77147   0.77616   0.78329   0.78471
 Alpha virt. eigenvalues --    0.78689   0.79578   0.80028   0.80954   0.82459
 Alpha virt. eigenvalues --    0.83146   0.83340   0.84588   0.86758   0.87079
 Alpha virt. eigenvalues --    0.88572   0.89875   0.91022   0.91879   0.93076
 Alpha virt. eigenvalues --    0.95071   0.97068   0.98639   1.01992   1.04171
 Alpha virt. eigenvalues --    1.06596   1.08204   1.09321   1.10870   1.13705
 Alpha virt. eigenvalues --    1.14768   1.17534   1.18943   1.23662   1.24356
 Alpha virt. eigenvalues --    1.25036   1.26661   1.29887   1.33402   1.34370
 Alpha virt. eigenvalues --    1.34412   1.37717   1.41349   1.43959   1.46067
 Alpha virt. eigenvalues --    1.55223   1.58547   1.59910   1.60849   1.62046
 Alpha virt. eigenvalues --    1.62376   1.65663   1.66111   1.66662   1.69625
 Alpha virt. eigenvalues --    1.70847   1.73597   1.75475   1.77805   1.79287
 Alpha virt. eigenvalues --    1.80789   1.81432   1.82711   1.83049   1.84091
 Alpha virt. eigenvalues --    1.85130   1.85879   1.86650   1.87508   1.88328
 Alpha virt. eigenvalues --    1.89920   1.91040   1.91938   1.94060   1.94483
 Alpha virt. eigenvalues --    1.96324   1.97100   1.99813   2.01381   2.03647
 Alpha virt. eigenvalues --    2.05162   2.06443   2.07714   2.08849   2.10328
 Alpha virt. eigenvalues --    2.14459   2.15606   2.16626   2.17278   2.18749
 Alpha virt. eigenvalues --    2.21562   2.24217   2.25388   2.29172   2.30506
 Alpha virt. eigenvalues --    2.33344   2.34820   2.35790   2.36344   2.39058
 Alpha virt. eigenvalues --    2.41302   2.42957   2.44757   2.48092   2.48564
 Alpha virt. eigenvalues --    2.49450   2.53022   2.56219   2.57714   2.65204
 Alpha virt. eigenvalues --    2.66242   2.68959   2.70763   2.73321   2.74615
 Alpha virt. eigenvalues --    2.76429   2.78439   2.79048   2.79369   2.81910
 Alpha virt. eigenvalues --    2.82214   2.83688   2.87520   2.92062   2.95177
 Alpha virt. eigenvalues --    2.99503   3.01182   3.02049   3.05196   3.08603
 Alpha virt. eigenvalues --    3.11772   3.13241   3.20367   3.21988   3.25884
 Alpha virt. eigenvalues --    3.27062   3.47910   3.48602   3.70740
          Condensed to atoms (all electrons):
               1          2          3          4          5          6
     1  C    5.082945   0.003631  -0.096519  -0.001394   0.590526  -0.002190
     2  C    0.003631   4.720996  -0.006998   0.630797   0.002701  -0.002713
     3  C   -0.096519  -0.006998   5.193497  -0.004919  -0.006467   0.582253
     4  C   -0.001394   0.630797  -0.004919   5.105651  -0.001382  -0.000414
     5  C    0.590526   0.002701  -0.006467  -0.001382   4.963735   0.274173
     6  C   -0.002190  -0.002713   0.582253  -0.000414   0.274173   4.989820
     7  C    0.010391  -0.001946   0.335329   0.013095   0.009893  -0.060839
     8  H   -0.000614   0.000403  -0.015029  -0.002267   0.000691  -0.015231
     9  H    0.000461  -0.000039  -0.000993   0.000002  -0.000653   0.001651
    10  C    0.000509   0.007615  -0.048564  -0.168735  -0.000433   0.002691
    11  H   -0.000012  -0.000303   0.006405   0.011262   0.000012  -0.000149
    12  H   -0.000015  -0.000360  -0.014635   0.002925   0.000074  -0.000151
    13  C    0.000079  -0.031428  -0.006815   0.269338   0.000025   0.001191
    14  O    0.000001   0.000258  -0.000080  -0.080292  -0.000000  -0.000000
    15  H   -0.000017   0.003514   0.004515   0.370438  -0.000882   0.002622
    16  H    0.000306   0.409478  -0.000199  -0.021253   0.001190  -0.000243
    17  C    0.334757  -0.000075   0.333512   0.003589  -0.091787  -0.109233
    18  H    0.003078   0.000154  -0.000983   0.000157   0.000360   0.000608
    19  H   -0.008196  -0.002566   0.001251  -0.009082   0.001287   0.003295
    20  Cl   0.000390   0.286293   0.000374  -0.086072  -0.000122   0.000070
    21  C    0.403553  -0.000141   0.009070   0.000020  -0.063933   0.010143
    22  H   -0.015865  -0.000550   0.000475   0.000053   0.001563  -0.000371
    23  H   -0.010488  -0.000004  -0.000598   0.000001  -0.012165   0.000429
    24  H   -0.015138   0.000026   0.000581  -0.000005   0.002810  -0.000537
    25  H    0.007432   0.000008  -0.065523  -0.000267  -0.053482   0.442425
    26  H   -0.064380  -0.000019   0.007765   0.000006   0.443963  -0.056680
               7          8          9         10         11         12
     1  C    0.010391  -0.000614   0.000461   0.000509  -0.000012  -0.000015
     2  C   -0.001946   0.000403  -0.000039   0.007615  -0.000303  -0.000360
     3  C    0.335329  -0.015029  -0.000993  -0.048564   0.006405  -0.014635
     4  C    0.013095  -0.002267   0.000002  -0.168735   0.011262   0.002925
     5  C    0.009893   0.000691  -0.000653  -0.000433   0.000012   0.000074
     6  C   -0.060839  -0.015231   0.001651   0.002691  -0.000149  -0.000151
     7  C    4.713792   0.380503   0.341887   0.308194  -0.009192  -0.007488
     8  H    0.380503   0.662645  -0.023273  -0.025914  -0.005169   0.006490
     9  H    0.341887  -0.023273   0.648877  -0.006561  -0.005947  -0.008270
    10  C    0.308194  -0.025914  -0.006561   5.091582   0.340897   0.350447
    11  H   -0.009192  -0.005169  -0.005947   0.340897   0.606627  -0.006044
    12  H   -0.007488   0.006490  -0.008270   0.350447  -0.006044   0.592409
    13  C   -0.035943  -0.007865   0.006606   0.295135  -0.008042  -0.004558
    14  O    0.004653   0.000157  -0.000163  -0.088143   0.007677   0.000909
    15  H    0.000333   0.000407   0.000160  -0.002662  -0.000285   0.000101
    16  H    0.000096   0.000004  -0.000003  -0.000400   0.000009   0.000024
    17  C   -0.079838   0.009921  -0.005797  -0.000302   0.000228   0.006703
    18  H    0.004150  -0.000269   0.001157  -0.001972  -0.000048   0.000643
    19  H   -0.010291  -0.000162   0.000149   0.006376  -0.000087   0.001233
    20  Cl   0.000014  -0.000003   0.000001  -0.002292  -0.000003   0.000860
    21  C   -0.000224   0.000006   0.000010   0.000000  -0.000000   0.000011
    22  H    0.000005  -0.000001   0.000003  -0.000011   0.000000  -0.000012
    23  H    0.000007  -0.000000  -0.000000   0.000000   0.000000  -0.000000
    24  H    0.000014   0.000000  -0.000007   0.000002  -0.000000   0.000003
    25  H   -0.012041   0.004818   0.000307   0.000141  -0.000008   0.000001
    26  H   -0.000312   0.000009   0.000006   0.000006  -0.000000  -0.000000
              13         14         15         16         17         18
     1  C    0.000079   0.000001  -0.000017   0.000306   0.334757   0.003078
     2  C   -0.031428   0.000258   0.003514   0.409478  -0.000075   0.000154
     3  C   -0.006815  -0.000080   0.004515  -0.000199   0.333512  -0.000983
     4  C    0.269338  -0.080292   0.370438  -0.021253   0.003589   0.000157
     5  C    0.000025  -0.000000  -0.000882   0.001190  -0.091787   0.000360
     6  C    0.001191  -0.000000   0.002622  -0.000243  -0.109233   0.000608
     7  C   -0.035943   0.004653   0.000333   0.000096  -0.079838   0.004150
     8  H   -0.007865   0.000157   0.000407   0.000004   0.009921  -0.000269
     9  H    0.006606  -0.000163   0.000160  -0.000003  -0.005797   0.001157
    10  C    0.295135  -0.088143  -0.002662  -0.000400  -0.000302  -0.001972
    11  H   -0.008042   0.007677  -0.000285   0.000009   0.000228  -0.000048
    12  H   -0.004558   0.000909   0.000101   0.000024   0.006703   0.000643
    13  C    4.767550   0.695074  -0.022599   0.006804  -0.004661   0.000267
    14  O    0.695074   7.684147   0.001254  -0.000144   0.000017  -0.000001
    15  H   -0.022599   0.001254   0.568520  -0.010879  -0.000279   0.000001
    16  H    0.006804  -0.000144  -0.010879   0.552851  -0.000185   0.000008
    17  C   -0.004661   0.000017  -0.000279  -0.000185   4.857607   0.333009
    18  H    0.000267  -0.000001   0.000001   0.000008   0.333009   0.610565
    19  H    0.000323  -0.000131   0.000043   0.000181   0.331305  -0.015228
    20  Cl   0.008424  -0.000851   0.003677  -0.037236  -0.006504   0.000014
    21  C   -0.000001  -0.000000   0.000001  -0.000001  -0.066862  -0.000773
    22  H    0.000001   0.000000   0.000000  -0.000105  -0.005865  -0.000082
    23  H   -0.000000   0.000000  -0.000000   0.000002   0.008810  -0.000240
    24  H    0.000000   0.000000  -0.000000   0.000002  -0.005646   0.001956
    25  H   -0.000008   0.000000   0.000672  -0.000006   0.014733  -0.000386
    26  H    0.000001  -0.000000  -0.000003   0.000016   0.015157  -0.000379
              19         20         21         22         23         24
     1  C   -0.008196   0.000390   0.403553  -0.015865  -0.010488  -0.015138
     2  C   -0.002566   0.286293  -0.000141  -0.000550  -0.000004   0.000026
     3  C    0.001251   0.000374   0.009070   0.000475  -0.000598   0.000581
     4  C   -0.009082  -0.086072   0.000020   0.000053   0.000001  -0.000005
     5  C    0.001287  -0.000122  -0.063933   0.001563  -0.012165   0.002810
     6  C    0.003295   0.000070   0.010143  -0.000371   0.000429  -0.000537
     7  C   -0.010291   0.000014  -0.000224   0.000005   0.000007   0.000014
     8  H   -0.000162  -0.000003   0.000006  -0.000001  -0.000000   0.000000
     9  H    0.000149   0.000001   0.000010   0.000003  -0.000000  -0.000007
    10  C    0.006376  -0.002292   0.000000  -0.000011   0.000000   0.000002
    11  H   -0.000087  -0.000003  -0.000000   0.000000   0.000000  -0.000000
    12  H    0.001233   0.000860   0.000011  -0.000012  -0.000000   0.000003
    13  C    0.000323   0.008424  -0.000001   0.000001  -0.000000   0.000000
    14  O   -0.000131  -0.000851  -0.000000   0.000000   0.000000   0.000000
    15  H    0.000043   0.003677   0.000001   0.000000  -0.000000  -0.000000
    16  H    0.000181  -0.037236  -0.000001  -0.000105   0.000002   0.000002
    17  C    0.331305  -0.006504  -0.066862  -0.005865   0.008810  -0.005646
    18  H   -0.015228   0.000014  -0.000773  -0.000082  -0.000240   0.001956
    19  H    0.639776   0.020346  -0.000666   0.003124  -0.000241  -0.000294
    20  Cl   0.020346  16.912690  -0.000888   0.003276   0.000003  -0.000001
    21  C   -0.000666  -0.000888   4.520547   0.380050   0.386431   0.383118
    22  H    0.003124   0.003276   0.380050   0.631314  -0.019740  -0.023135
    23  H   -0.000241   0.000003   0.386431  -0.019740   0.628546  -0.020324
    24  H   -0.000294  -0.000001   0.383118  -0.023135  -0.020324   0.631364
    25  H   -0.000337   0.000001  -0.000293   0.000007   0.000006   0.000005
    26  H   -0.000373  -0.000000  -0.010758   0.000136   0.004509   0.000093
              25         26
     1  C    0.007432  -0.064380
     2  C    0.000008  -0.000019
     3  C   -0.065523   0.007765
     4  C   -0.000267   0.000006
     5  C   -0.053482   0.443963
     6  C    0.442425  -0.056680
     7  C   -0.012041  -0.000312
     8  H    0.004818   0.000009
     9  H    0.000307   0.000006
    10  C    0.000141   0.000006
    11  H   -0.000008  -0.000000
    12  H    0.000001  -0.000000
    13  C   -0.000008   0.000001
    14  O    0.000000  -0.000000
    15  H    0.000672  -0.000003
    16  H   -0.000006   0.000016
    17  C    0.014733   0.015157
    18  H   -0.000386  -0.000379
    19  H   -0.000337  -0.000373
    20  Cl   0.000001  -0.000000
    21  C   -0.000293  -0.010758
    22  H    0.000007   0.000136
    23  H    0.000006   0.004509
    24  H    0.000005   0.000093
    25  H    0.659667  -0.003587
    26  H   -0.003587   0.659188
 Mulliken charges:
               1
     1  C   -0.223229
     2  C   -0.018730
     3  C   -0.206706
     4  C   -0.031255
     5  C   -0.061699
     6  C   -0.062620
     7  C    0.095758
     8  H    0.029742
     9  H    0.050428
    10  C   -0.057605
    11  H    0.062171
    12  H    0.078700
    13  C    0.071102
    14  O   -0.224344
    15  H    0.081350
    16  H    0.099682
    17  C    0.127688
    18  H    0.064234
    19  H    0.038963
    20  Cl  -0.102461
    21  C    0.051579
    22  H    0.045730
    23  H    0.035058
    24  H    0.045112
    25  H    0.005715
    26  H    0.005638
 Sum of Mulliken charges =  -0.00000
 Mulliken charges with hydrogens summed into heavy atoms:
               1
     1  C   -0.223229
     2  C    0.080951
     3  C   -0.206706
     4  C    0.050095
     5  C   -0.056062
     6  C   -0.056905
     7  C    0.175928
    10  C    0.083267
    13  C    0.071102
    14  O   -0.224344
    17  C    0.230885
    20  Cl  -0.102461
    21  C    0.177479
 APT charges:
               1
     1  C    0.049354
     2  C    0.328841
     3  C   -0.049336
     4  C   -0.300342
     5  C   -0.072225
     6  C   -0.042887
     7  C    0.143729
     8  H   -0.030433
     9  H   -0.048494
    10  C   -0.092362
    11  H   -0.008262
    12  H    0.027411
    13  C    0.948402
    14  O   -0.758047
    15  H    0.080391
    16  H    0.061601
    17  C   -0.110752
    18  H    0.043921
    19  H    0.054344
    20  Cl  -0.311980
    21  C    0.053371
    22  H   -0.012395
    23  H   -0.010101
    24  H   -0.022641
    25  H    0.041295
    26  H    0.037597
 Sum of APT charges =   0.00000
 APT charges with hydrogens summed into heavy atoms:
               1
     1  C    0.049354
     2  C    0.390442
     3  C   -0.049336
     4  C   -0.219951
     5  C   -0.034628
     6  C   -0.001593
     7  C    0.064802
    10  C   -0.073213
    13  C    0.948402
    14  O   -0.758047
    17  C   -0.012486
    20  Cl  -0.311980
    21  C    0.008234
 Electronic spatial extent (au):  <R**2>=           2794.6182
 Charge=              0.0000 electrons
 Dipole moment (field-independent basis, Debye):
    X=             -3.0669    Y=             -1.3971    Z=              0.4623  Tot=              3.4017
 Quadrupole moment (field-independent basis, Debye-Ang):
   XX=            -98.8831   YY=            -80.9232   ZZ=            -77.0209
   XY=             -5.4572   XZ=              0.9947   YZ=              0.5644
 Traceless Quadrupole moment (field-independent basis, Debye-Ang):
   XX=            -13.2740   YY=              4.6859   ZZ=              8.5881
   XY=             -5.4572   XZ=              0.9947   YZ=              0.5644
 Octapole moment (field-independent basis, Debye-Ang**2):
  XXX=            -40.8372  YYY=              2.0403  ZZZ=              0.2124  XYY=             11.4345
  XXY=              9.4901  XXZ=              2.6587  XZZ=              2.1628  YZZ=              1.2930
  YYZ=             -0.1832  XYZ=              0.4112
 Hexadecapole moment (field-independent basis, Debye-Ang**3):
 XXXX=          -2235.0460 YYYY=          -1237.2454 ZZZZ=           -396.6018 XXXY=            -27.5318
 XXXZ=             -7.6544 YYYX=            -15.8061 YYYZ=             -1.4943 ZZZX=             -5.8377
 ZZZY=             -0.8742 XXYY=           -546.2811 XXZZ=           -388.5553 YYZZ=           -256.5549
 XXYZ=             -6.4934 YYXZ=             -7.6895 ZZXY=              4.6629
 N-N= 8.733661692697D+02 E-N=-4.003712361309D+03  KE= 9.552500927933D+02
  Exact polarizability:     138.394     -15.993     146.994     -14.431     -10.780     126.689
 Approx polarizability:     132.013      -9.322     144.475     -16.251     -15.220     139.026
   1 Symmetry operations used in ECPInt.
 ECPInt:  NShTT=    7140 NPrTT=   26096 LenC2=    6946 LenP2D=   19119.
 LDataN:  DoStor=T MaxTD1= 6 Len=  172
 D2PCM: PCM CHGder 2nd derivatives, FixD1E=F FixD2E=F DoIter=F DoCFld=F I1PDM=0
 Calling FoFJK, ICntrl=    100127 FMM=F ISym2X=0 I1Cent= 0 IOpClX= 0 NMat=1 NMatS=1 NMatT=0.
 Full mass-weighted force constant matrix:
 Low frequencies ---  -27.9805   -1.8963   -0.0025    0.0018    0.0019    7.4539
 Low frequencies ---    9.7813   35.1803   63.1664
 ******    1 imaginary frequencies (negative Signs) ****** 
 Diagonal vibrational polarizability:
       46.5688436      59.3592382      67.8858056
 Harmonic frequencies (cm**-1), IR intensities (KM/Mole), Raman scattering
 activities (A**4/AMU), depolarization ratios for plane and unpolarized
 incident light, reduced masses (AMU), force constants (mDyne/A),
 and normal coordinates:
                      1                      2                      3
                      A                      A                      A
 Frequencies --    -27.7893                35.1436                63.1461
 Red. masses --      6.2947                 6.8828                 5.3708
 Frc consts  --      0.0029                 0.0050                 0.0126
 IR Inten    --      3.4115                 0.3916                 0.5866
  Atom  AN      X      Y      Z        X      Y      Z        X      Y      Z
     1   6    -0.06  -0.01   0.07    -0.18  -0.10  -0.03     0.07  -0.03   0.06
     2   6    -0.04   0.04  -0.08     0.14   0.07   0.01    -0.11   0.10  -0.11
     3   6     0.00   0.04  -0.06    -0.04   0.02   0.04    -0.03  -0.12  -0.03
     4   6    -0.03   0.05   0.02     0.04   0.04  -0.02    -0.21   0.07  -0.07
     5   6     0.00  -0.06   0.05    -0.16  -0.10  -0.03     0.02  -0.10   0.01
     6   6     0.04  -0.04  -0.03    -0.07  -0.02   0.02    -0.04  -0.16  -0.05
     7   6     0.02   0.09  -0.16    -0.02   0.04   0.05    -0.01  -0.11  -0.03
     8   1     0.03  -0.01  -0.22     0.01   0.07   0.06    -0.04  -0.13  -0.03
     9   1     0.03   0.17  -0.24    -0.03   0.01   0.08     0.03  -0.09  -0.06
    10   6     0.01   0.17  -0.08    -0.04   0.03  -0.01    -0.00  -0.07   0.04
    11   1    -0.00   0.21  -0.23    -0.06   0.03  -0.05     0.06  -0.04   0.14
    12   1    -0.02   0.35   0.03    -0.09   0.05   0.01     0.04  -0.13  -0.00
    13   6     0.05  -0.01   0.11     0.01   0.02  -0.03    -0.12   0.03   0.02
    14   8     0.14  -0.19   0.34     0.01  -0.01  -0.06    -0.13   0.09   0.05
    15   1    -0.04   0.10   0.05    -0.04   0.03  -0.06    -0.38   0.09  -0.12
    16   1    -0.08   0.10  -0.14     0.15   0.08   0.01    -0.19   0.13  -0.17
    17   6    -0.07   0.07   0.00    -0.08  -0.01   0.02     0.02  -0.07   0.02
    18   1    -0.09   0.10  -0.00     0.02  -0.02  -0.01    -0.05  -0.03   0.02
    19   1    -0.10   0.10   0.01    -0.12   0.06   0.09     0.05  -0.11  -0.01
    20  17     0.02  -0.05  -0.15     0.28   0.09   0.06     0.14   0.11  -0.04
    21   6    -0.13  -0.01   0.15    -0.28  -0.19  -0.08     0.17   0.07   0.16
    22   1    -0.16   0.02   0.14    -0.37  -0.12  -0.10     0.25   0.02   0.23
    23   1    -0.11  -0.06   0.19    -0.33  -0.24  -0.11     0.19   0.07   0.18
    24   1    -0.16   0.01   0.16    -0.25  -0.26  -0.09     0.17   0.19   0.14
    25   1     0.09  -0.07  -0.07    -0.06  -0.02   0.02    -0.08  -0.21  -0.08
    26   1     0.02  -0.12   0.09    -0.21  -0.15  -0.06     0.03  -0.11   0.03
                      4                      5                      6
                      A                      A                      A
 Frequencies --     90.1267               124.8929               162.9136
 Red. masses --      3.2304                10.3102                 1.1091
 Frc consts  --      0.0155                 0.0948                 0.0173
 IR Inten    --      2.6681                 1.0501                 0.0369
  Atom  AN      X      Y      Z        X      Y      Z        X      Y      Z
     1   6     0.03  -0.00  -0.01     0.02  -0.05  -0.02    -0.01  -0.02  -0.01
     2   6    -0.08  -0.02  -0.01     0.05   0.07  -0.07    -0.02  -0.01  -0.00
     3   6     0.00  -0.02  -0.04    -0.01  -0.07   0.07     0.01   0.00   0.01
     4   6    -0.10  -0.02  -0.03     0.07   0.08  -0.19    -0.02  -0.01  -0.00
     5   6     0.18   0.13   0.09    -0.04  -0.03  -0.02     0.02   0.02   0.02
     6   6     0.16   0.11   0.07    -0.05  -0.04   0.04     0.04   0.03   0.03
     7   6    -0.02  -0.04  -0.08    -0.01  -0.06   0.08     0.00   0.00  -0.01
     8   1    -0.03  -0.07  -0.10     0.10   0.03   0.10     0.01   0.00  -0.01
     9   1    -0.02   0.00  -0.11    -0.04  -0.13   0.16    -0.01   0.01  -0.01
    10   6    -0.01  -0.02  -0.04    -0.09  -0.03  -0.09    -0.01   0.01  -0.02
    11   1     0.01  -0.00  -0.02    -0.13  -0.01  -0.25    -0.01   0.02  -0.03
    12   1     0.01  -0.01  -0.04    -0.25   0.02  -0.03    -0.02   0.03  -0.01
    13   6    -0.05  -0.02   0.00     0.04  -0.10  -0.11    -0.01   0.00  -0.00
    14   8    -0.04  -0.02   0.06     0.16  -0.43   0.06    -0.01   0.01   0.01
    15   1    -0.15  -0.04  -0.07     0.10   0.09  -0.16    -0.02  -0.01  -0.01
    16   1    -0.12  -0.04  -0.03     0.11  -0.05   0.04    -0.03  -0.01  -0.01
    17   6    -0.08  -0.09  -0.09     0.03  -0.09   0.04    -0.03  -0.03  -0.02
    18   1    -0.18  -0.15  -0.03     0.04  -0.11   0.04    -0.05  -0.06   0.01
    19   1    -0.08  -0.13  -0.21     0.04  -0.10   0.03    -0.04  -0.03  -0.06
    20  17     0.03   0.04   0.07    -0.13   0.31   0.09     0.01  -0.01   0.00
    21   6    -0.06  -0.08  -0.07     0.13  -0.00  -0.06     0.01  -0.00  -0.01
    22   1    -0.08  -0.11  -0.37     0.19  -0.03   0.09    -0.07   0.16   0.54
    23   1     0.09   0.05   0.04     0.04  -0.01  -0.16    -0.35  -0.31  -0.27
    24   1    -0.27  -0.25   0.06     0.28   0.06  -0.14     0.49   0.19  -0.27
    25   1     0.27   0.21   0.14    -0.10  -0.03   0.06     0.07   0.06   0.05
    26   1     0.29   0.23   0.17    -0.06   0.00  -0.04     0.03   0.03   0.02
                      7                      8                      9
                      A                      A                      A
 Frequencies --    171.0405               196.2288               205.3699
 Red. masses --      2.7049                 3.5432                 3.0026
 Frc consts  --      0.0466                 0.0804                 0.0746
 IR Inten    --      0.8310                 6.6143                 0.2224
  Atom  AN      X      Y      Z        X      Y      Z        X      Y      Z
     1   6     0.02  -0.05  -0.01    -0.05  -0.05  -0.05     0.10   0.04   0.05
     2   6     0.03   0.02   0.06     0.23   0.13   0.13     0.10   0.07   0.07
     3   6    -0.03  -0.07   0.06    -0.07  -0.07  -0.10     0.05   0.01   0.02
     4   6    -0.01   0.01   0.05     0.11   0.09   0.12    -0.06   0.03   0.02
     5   6    -0.01  -0.00   0.01     0.03  -0.00  -0.01     0.06   0.01   0.02
     6   6    -0.03  -0.03   0.05     0.02  -0.02  -0.04     0.03  -0.02   0.00
     7   6     0.03   0.02   0.01    -0.06  -0.06  -0.08    -0.05  -0.06  -0.10
     8   1     0.19   0.07   0.00    -0.15  -0.13  -0.11    -0.05  -0.18  -0.17
     9   1     0.04  -0.03   0.06     0.01   0.01  -0.18    -0.12   0.05  -0.18
    10   6    -0.13   0.20  -0.13    -0.01  -0.03   0.08    -0.05  -0.03  -0.04
    11   1    -0.12   0.31  -0.41     0.02  -0.03   0.17    -0.01   0.00  -0.03
    12   1    -0.36   0.36   0.02     0.10  -0.05   0.05    -0.04  -0.02  -0.04
    13   6    -0.06   0.06  -0.02    -0.03   0.00   0.07    -0.12  -0.03  -0.00
    14   8    -0.04   0.02   0.01    -0.04  -0.00  -0.00    -0.11  -0.03   0.03
    15   1     0.05   0.00   0.06     0.23   0.16   0.22     0.01   0.07   0.08
    16   1     0.08   0.07   0.07     0.46   0.23   0.24     0.28   0.16   0.15
    17   6    -0.01  -0.10   0.02    -0.12  -0.10  -0.12     0.17   0.12   0.10
    18   1    -0.00  -0.12   0.03    -0.18  -0.12  -0.09     0.30   0.26   0.00
    19   1    -0.00  -0.11   0.02    -0.11  -0.12  -0.17     0.20   0.14   0.30
    20  17     0.03  -0.05  -0.00    -0.03   0.02  -0.03    -0.02   0.01  -0.03
    21   6     0.14  -0.01  -0.08     0.02   0.03   0.05    -0.04  -0.10  -0.08
    22   1     0.25  -0.12  -0.19     0.08  -0.00   0.13    -0.19   0.02  -0.07
    23   1     0.22   0.17  -0.09     0.05   0.03   0.09    -0.18  -0.21  -0.19
    24   1     0.08  -0.04  -0.05     0.01   0.16   0.03     0.10  -0.27  -0.12
    25   1    -0.04   0.01   0.08     0.09   0.02  -0.02    -0.04  -0.10  -0.05
    26   1     0.00   0.05   0.01     0.12   0.06   0.06    -0.00  -0.06  -0.02
                     10                     11                     12
                      A                      A                      A
 Frequencies --    276.5971               307.1401               347.7632
 Red. masses --      2.4304                 3.3994                 2.7269
 Frc consts  --      0.1096                 0.1889                 0.1943
 IR Inten    --      0.8066                 3.2094                 5.8761
  Atom  AN      X      Y      Z        X      Y      Z        X      Y      Z
     1   6     0.02  -0.01  -0.08     0.16   0.12   0.04     0.04   0.10   0.13
     2   6     0.05   0.02   0.05    -0.08  -0.00  -0.03     0.12  -0.00   0.03
     3   6     0.05   0.02  -0.04    -0.12  -0.14  -0.10    -0.05  -0.02  -0.05
     4   6    -0.08  -0.01  -0.03     0.09   0.05   0.08    -0.05  -0.05  -0.10
     5   6     0.04   0.00  -0.08     0.12   0.10   0.02     0.00   0.02   0.09
     6   6     0.05   0.04  -0.05    -0.10  -0.09  -0.10    -0.08  -0.08  -0.06
     7   6     0.08  -0.01   0.16    -0.00  -0.06   0.07     0.05   0.04   0.04
     8   1     0.18   0.30   0.33     0.01   0.07   0.14     0.09   0.22   0.15
     9   1     0.11  -0.27   0.41     0.18  -0.18   0.11     0.10  -0.13   0.19
    10   6    -0.04  -0.01  -0.06    -0.07   0.08   0.07     0.07  -0.04  -0.06
    11   1    -0.00   0.04  -0.11    -0.07   0.15  -0.11     0.06  -0.11   0.09
    12   1    -0.18  -0.05  -0.05    -0.20   0.18   0.16     0.13  -0.18  -0.15
    13   6    -0.08  -0.01  -0.05     0.05   0.03   0.06     0.00   0.02  -0.08
    14   8    -0.06  -0.03   0.05     0.04  -0.03  -0.09     0.02   0.07   0.11
    15   1    -0.01  -0.01  -0.00     0.05   0.04   0.06    -0.00  -0.07  -0.10
    16   1     0.20   0.08   0.12    -0.24  -0.04  -0.12     0.29   0.03   0.14
    17   6     0.05   0.01  -0.08     0.03  -0.01  -0.04    -0.10   0.01   0.02
    18   1     0.09  -0.00  -0.09    -0.08   0.12  -0.05    -0.39  -0.03   0.13
    19   1     0.05   0.02  -0.06     0.15  -0.14  -0.03    -0.09  -0.09  -0.24
    20  17    -0.01  -0.02   0.00     0.01   0.01   0.00    -0.01  -0.01  -0.00
    21   6    -0.08   0.03   0.12    -0.09  -0.04   0.02     0.01  -0.00  -0.08
    22   1    -0.15   0.09   0.16    -0.34   0.18   0.03    -0.04   0.03  -0.15
    23   1    -0.00  -0.13   0.28    -0.22  -0.27  -0.01    -0.11   0.05  -0.25
    24   1    -0.20   0.16   0.15    -0.01  -0.19   0.01     0.15  -0.23  -0.10
    25   1     0.08   0.08  -0.02    -0.16  -0.13  -0.12    -0.11  -0.14  -0.11
    26   1     0.04   0.02  -0.09     0.14   0.14   0.03     0.00  -0.04   0.11
                     13                     14                     15
                      A                      A                      A
 Frequencies --    387.2117               404.6334               434.6472
 Red. masses --      2.0284                 2.2890                 3.8574
 Frc consts  --      0.1792                 0.2208                 0.4294
 IR Inten    --     13.8237                 7.5804                 6.3512
  Atom  AN      X      Y      Z        X      Y      Z        X      Y      Z
     1   6     0.10   0.05  -0.05    -0.06  -0.04  -0.07     0.00  -0.02  -0.04
     2   6     0.05  -0.02  -0.01     0.08  -0.05  -0.03    -0.12   0.14   0.13
     3   6     0.04  -0.00   0.14    -0.11  -0.13  -0.01    -0.05  -0.06   0.03
     4   6    -0.00  -0.03  -0.03     0.00  -0.07  -0.07    -0.05   0.18  -0.11
     5   6    -0.03   0.05  -0.08     0.02   0.09   0.02     0.01   0.05  -0.00
     6   6    -0.09   0.01   0.05    -0.06   0.02   0.04    -0.05  -0.00   0.04
     7   6    -0.01  -0.02  -0.06    -0.01  -0.05  -0.01    -0.00   0.02  -0.04
     8   1     0.01  -0.23  -0.20     0.02  -0.05  -0.02     0.01  -0.05  -0.09
     9   1    -0.12   0.18  -0.20     0.06  -0.06  -0.03     0.03   0.08  -0.11
    10   6     0.02   0.00  -0.03     0.02  -0.01  -0.03     0.05   0.01  -0.00
    11   1     0.00  -0.00  -0.07    -0.02  -0.03  -0.09     0.13  -0.08   0.46
    12   1     0.02   0.04  -0.01    -0.01   0.03  -0.00     0.27  -0.36  -0.26
    13   6     0.02  -0.01  -0.01     0.06  -0.01  -0.02    -0.02   0.20  -0.16
    14   8     0.01   0.05   0.04     0.04   0.11   0.09     0.09  -0.11  -0.02
    15   1    -0.00  -0.03  -0.02    -0.05  -0.08  -0.09     0.11  -0.00  -0.18
    16   1     0.08  -0.01   0.02     0.09  -0.07  -0.01    -0.06   0.14   0.18
    17   6     0.05  -0.10   0.01     0.02  -0.03   0.04     0.02  -0.05   0.02
    18   1    -0.16  -0.39   0.19     0.44   0.29  -0.23     0.18   0.04  -0.06
    19   1     0.07  -0.23  -0.36     0.11   0.05   0.58     0.08  -0.05   0.20
    20  17    -0.00   0.01  -0.00    -0.01   0.02  -0.01     0.02  -0.11   0.04
    21   6    -0.06   0.01   0.06    -0.03   0.02   0.02    -0.01  -0.00   0.02
    22   1    -0.22   0.14   0.06     0.00   0.01   0.09    -0.03   0.02   0.05
    23   1    -0.04  -0.18   0.18     0.01  -0.01   0.07     0.01  -0.06   0.07
    24   1    -0.16   0.03   0.10    -0.06   0.14   0.01    -0.05   0.05   0.02
    25   1    -0.27  -0.01   0.05    -0.04   0.12   0.13    -0.08   0.04   0.08
    26   1    -0.13   0.08  -0.19     0.13   0.24   0.08     0.04   0.14  -0.00
                     16                     17                     18
                      A                      A                      A
 Frequencies --    538.1098               544.7677               554.1752
 Red. masses --      2.5210                 2.4987                 3.4641
 Frc consts  --      0.4301                 0.4369                 0.6268
 IR Inten    --      3.5513                14.3118                 4.4736
  Atom  AN      X      Y      Z        X      Y      Z        X      Y      Z
     1   6     0.08   0.09   0.07     0.00   0.06   0.02    -0.13   0.08   0.00
     2   6     0.01   0.02   0.01    -0.08  -0.05  -0.04     0.00   0.07   0.05
     3   6    -0.07  -0.09  -0.07    -0.03  -0.09   0.00     0.11  -0.08   0.04
     4   6    -0.00   0.02  -0.07     0.10  -0.01   0.16    -0.09   0.04  -0.01
     5   6    -0.12  -0.11  -0.08    -0.06  -0.01  -0.02    -0.00   0.03   0.02
     6   6     0.13   0.12   0.07     0.01   0.03   0.05     0.01  -0.02  -0.02
     7   6    -0.04  -0.09   0.00     0.09   0.00  -0.06     0.18  -0.18  -0.02
     8   1    -0.10  -0.11   0.01     0.26   0.17   0.00     0.19  -0.26  -0.07
     9   1     0.04  -0.08  -0.04     0.09  -0.17   0.11     0.18  -0.11  -0.09
    10   6    -0.04  -0.01   0.04     0.06  -0.02  -0.15     0.10  -0.02   0.01
    11   1    -0.04   0.04  -0.13     0.14  -0.08   0.25     0.18   0.19  -0.35
    12   1    -0.16   0.05   0.10     0.30  -0.24  -0.33    -0.15   0.23   0.22
    13   6     0.04   0.03  -0.02    -0.08  -0.01  -0.01     0.02  -0.04   0.05
    14   8     0.05   0.04   0.02    -0.08  -0.03   0.02    -0.00  -0.04  -0.08
    15   1    -0.03  -0.03  -0.11     0.36   0.10   0.34    -0.21   0.04  -0.06
    16   1     0.00  -0.01   0.02    -0.04   0.01  -0.04    -0.02   0.08   0.04
    17   6    -0.00   0.01   0.00    -0.01  -0.04   0.05    -0.04  -0.00   0.08
    18   1    -0.20   0.22  -0.01    -0.01   0.07   0.01    -0.03  -0.05   0.09
    19   1     0.14  -0.16  -0.00     0.08  -0.12   0.11    -0.10   0.05   0.02
    20  17    -0.00  -0.02   0.01     0.02   0.04  -0.01    -0.01  -0.02   0.01
    21   6     0.00   0.03  -0.00    -0.03   0.06  -0.02    -0.11   0.19  -0.08
    22   1    -0.07   0.07  -0.07    -0.06   0.08  -0.03    -0.06   0.14  -0.08
    23   1    -0.03   0.02  -0.03    -0.04   0.05  -0.02    -0.13   0.27  -0.13
    24   1     0.02  -0.10   0.01    -0.03   0.03  -0.01    -0.08   0.19  -0.10
    25   1     0.36   0.33   0.23     0.05   0.15   0.15    -0.13  -0.03  -0.01
    26   1    -0.36  -0.35  -0.24    -0.12  -0.06  -0.06     0.07  -0.05   0.12
                     19                     20                     21
                      A                      A                      A
 Frequencies --    577.1509               667.5578               704.8356
 Red. masses --      3.0050                 3.6209                 1.8159
 Frc consts  --      0.5898                 0.9507                 0.5315
 IR Inten    --      7.4829                 1.3358                20.7572
  Atom  AN      X      Y      Z        X      Y      Z        X      Y      Z
     1   6     0.06   0.01   0.01    -0.04   0.05  -0.03     0.01  -0.00   0.02
     2   6     0.12   0.00   0.03     0.09  -0.11  -0.06    -0.05  -0.06  -0.10
     3   6    -0.08  -0.04  -0.02     0.02  -0.03   0.03     0.00  -0.01  -0.01
     4   6    -0.16  -0.09   0.02     0.05  -0.10  -0.03    -0.03  -0.03  -0.09
     5   6    -0.04   0.00  -0.02     0.13  -0.10  -0.04    -0.04   0.03   0.01
     6   6    -0.02   0.02   0.04     0.10  -0.13   0.04    -0.03   0.04  -0.03
     7   6     0.08   0.18  -0.03    -0.04   0.05   0.05     0.07   0.01   0.02
     8   1     0.14   0.19  -0.04    -0.10  -0.09  -0.03    -0.03  -0.17  -0.07
     9   1     0.18   0.13  -0.02     0.03   0.18  -0.11     0.16   0.17  -0.17
    10   6     0.09   0.11   0.05    -0.10   0.13   0.14     0.05   0.06   0.12
    11   1     0.07   0.03   0.21    -0.03   0.08   0.48     0.10   0.16  -0.01
    12   1     0.34   0.13   0.00     0.02  -0.20  -0.07    -0.05   0.13   0.19
    13   6    -0.00  -0.05   0.10    -0.09   0.14  -0.06    -0.06   0.01  -0.02
    14   8    -0.03  -0.10  -0.13    -0.02  -0.04   0.04    -0.05  -0.03  -0.01
    15   1    -0.60  -0.10  -0.16    -0.04  -0.22  -0.16     0.59   0.06   0.20
    16   1    -0.02   0.00  -0.06    -0.01  -0.17  -0.10     0.50   0.07   0.21
    17   6    -0.00  -0.04   0.00     0.02  -0.03   0.03    -0.01   0.01  -0.01
    18   1     0.03   0.09  -0.06     0.09  -0.13   0.04    -0.02   0.08  -0.04
    19   1     0.11  -0.13   0.13     0.07  -0.10   0.00    -0.03   0.04   0.03
    20  17    -0.02   0.01  -0.02    -0.00   0.02  -0.01     0.01  -0.00   0.02
    21   6     0.02  -0.03   0.02    -0.09   0.17  -0.08     0.02  -0.04   0.02
    22   1    -0.03   0.01   0.01    -0.09   0.17  -0.08     0.01  -0.03   0.01
    23   1     0.02  -0.09   0.04    -0.10   0.21  -0.10     0.01  -0.04   0.02
    24   1     0.01  -0.06   0.03    -0.10   0.19  -0.09     0.03  -0.05   0.02
    25   1     0.10   0.16   0.15     0.12  -0.16   0.02    -0.00   0.08   0.01
    26   1    -0.09   0.02  -0.08     0.16  -0.21   0.03    -0.03   0.06   0.01
                     22                     23                     24
                      A                      A                      A
 Frequencies --    711.6852               729.2767               811.5488
 Red. masses --      2.9237                 4.6461                 1.7933
 Frc consts  --      0.8725                 1.4559                 0.6959
 IR Inten    --     26.6072                42.8949                 1.2575
  Atom  AN      X      Y      Z        X      Y      Z        X      Y      Z
     1   6     0.03   0.04  -0.02     0.01   0.01  -0.00     0.05   0.05   0.04
     2   6    -0.07   0.08  -0.07    -0.17  -0.10   0.31     0.01   0.00   0.05
     3   6    -0.06   0.01   0.03    -0.02   0.01   0.01     0.05   0.05   0.04
     4   6    -0.05   0.08  -0.07    -0.18  -0.15   0.11     0.07   0.02   0.01
     5   6     0.09  -0.08  -0.04     0.03  -0.03  -0.01    -0.05  -0.04  -0.03
     6   6     0.03  -0.13   0.07     0.01  -0.04   0.02    -0.05  -0.05  -0.04
     7   6    -0.06   0.17  -0.00    -0.05   0.01   0.04     0.05   0.04   0.06
     8   1    -0.04   0.23   0.03    -0.13  -0.08  -0.00    -0.05  -0.24  -0.09
     9   1    -0.14   0.11   0.09    -0.08   0.10  -0.04    -0.11   0.30  -0.13
    10   6     0.01  -0.06  -0.03     0.00  -0.03   0.00     0.03  -0.05  -0.01
    11   1    -0.20  -0.21  -0.22    -0.08  -0.07  -0.13     0.04   0.01  -0.15
    12   1     0.09   0.20   0.09    -0.12  -0.02   0.04    -0.17  -0.02   0.06
    13   6     0.06  -0.16   0.06     0.09   0.03  -0.06    -0.04  -0.01  -0.04
    14   8    -0.01   0.04  -0.02     0.12   0.00  -0.05    -0.04  -0.01   0.03
    15   1     0.28   0.31   0.22     0.38  -0.32   0.21    -0.07  -0.06  -0.11
    16   1     0.29   0.17   0.14     0.27   0.19   0.47    -0.27  -0.10  -0.08
    17   6    -0.01  -0.05   0.00    -0.01  -0.01  -0.02    -0.08  -0.06  -0.08
    18   1     0.14  -0.03  -0.06     0.03  -0.00  -0.03     0.16   0.16  -0.25
    19   1     0.12  -0.15   0.14     0.02  -0.02   0.03    -0.05   0.02   0.27
    20  17     0.00  -0.04   0.04     0.04   0.10  -0.12     0.00   0.00  -0.01
    21   6    -0.04   0.09  -0.05    -0.01   0.03  -0.01     0.02   0.02   0.02
    22   1    -0.10   0.14  -0.06    -0.03   0.04  -0.02    -0.14   0.13  -0.12
    23   1    -0.06   0.06  -0.05    -0.02   0.02  -0.02    -0.08  -0.05  -0.06
    24   1    -0.05   0.07  -0.04    -0.01   0.01  -0.01     0.06  -0.23   0.05
    25   1     0.18  -0.04   0.13     0.07  -0.01   0.03     0.25   0.23   0.16
    26   1     0.13  -0.07  -0.01     0.05  -0.03   0.00     0.23   0.21   0.17
                     25                     26                     27
                      A                      A                      A
 Frequencies --    854.5004               884.7582               895.6166
 Red. masses --      2.6850                 2.4887                 1.9612
 Frc consts  --      1.1551                 1.1478                 0.9268
 IR Inten    --     36.5526                 4.7692                 5.0869
  Atom  AN      X      Y      Z        X      Y      Z        X      Y      Z
     1   6    -0.02  -0.02  -0.04     0.01  -0.00  -0.05    -0.03  -0.02   0.04
     2   6    -0.04  -0.02   0.17     0.03   0.02  -0.07     0.01   0.02  -0.02
     3   6    -0.07  -0.03  -0.03    -0.07  -0.02   0.05     0.01  -0.01  -0.05
     4   6     0.15   0.05  -0.13    -0.04  -0.01   0.09    -0.02   0.00   0.05
     5   6     0.07   0.04   0.01     0.13   0.02  -0.04     0.00   0.08   0.14
     6   6     0.01  -0.01   0.04    -0.03  -0.11   0.12    -0.03   0.02  -0.11
     7   6     0.04   0.09  -0.02     0.05  -0.01   0.08     0.03   0.07   0.07
     8   1    -0.01   0.08  -0.00    -0.03  -0.29  -0.08    -0.09  -0.21  -0.08
     9   1     0.14   0.06  -0.03    -0.03   0.22  -0.13    -0.05   0.32  -0.15
    10   6     0.06  -0.04   0.06     0.06  -0.04  -0.05    -0.01  -0.03  -0.03
    11   1     0.02   0.01  -0.19     0.10   0.03  -0.12    -0.09  -0.09  -0.07
    12   1    -0.00   0.23   0.21    -0.18  -0.13  -0.04    -0.14  -0.12  -0.05
    13   6    -0.07  -0.09  -0.02    -0.01   0.04  -0.05     0.01  -0.01  -0.04
    14   8    -0.11  -0.00   0.04     0.02  -0.01  -0.01     0.01   0.00   0.00
    15   1     0.16  -0.18  -0.29    -0.13   0.08   0.12    -0.08   0.06   0.07
    16   1    -0.39  -0.28   0.07     0.02   0.11  -0.12    -0.01   0.06  -0.06
    17   6     0.01   0.04   0.05    -0.08   0.16  -0.08     0.11  -0.09  -0.03
    18   1    -0.15  -0.01   0.12    -0.27   0.31  -0.07     0.11  -0.10  -0.02
    19   1     0.04  -0.04  -0.10    -0.10   0.18  -0.11     0.22  -0.22  -0.02
    20  17     0.01   0.02  -0.04    -0.01  -0.01   0.02    -0.00  -0.00   0.01
    21   6    -0.01  -0.02  -0.02     0.01  -0.05  -0.01    -0.06   0.02  -0.01
    22   1     0.10  -0.10   0.10     0.12  -0.13   0.09     0.11  -0.11   0.07
    23   1     0.08   0.01   0.07     0.08   0.00   0.05    -0.00   0.18  -0.03
    24   1    -0.06   0.19  -0.04    -0.00   0.12  -0.03    -0.02   0.17  -0.06
    25   1    -0.09  -0.09  -0.01    -0.02   0.04   0.24     0.26   0.13  -0.06
    26   1    -0.26  -0.20  -0.23    -0.25  -0.13  -0.37    -0.39  -0.43  -0.08
                     28                     29                     30
                      A                      A                      A
 Frequencies --    912.6436               923.2382               943.6306
 Red. masses --      1.4356                 2.8774                 1.8191
 Frc consts  --      0.7045                 1.4450                 0.9544
 IR Inten    --     28.1628                 4.0915                 5.2328
  Atom  AN      X      Y      Z        X      Y      Z        X      Y      Z
     1   6    -0.03  -0.02  -0.03     0.02   0.04  -0.04     0.01   0.01   0.01
     2   6    -0.00   0.00   0.00     0.01   0.00  -0.02    -0.01  -0.02   0.03
     3   6    -0.01  -0.03  -0.02     0.07   0.01  -0.03     0.08   0.05   0.07
     4   6     0.00   0.00   0.00    -0.02  -0.01   0.03     0.01   0.00  -0.07
     5   6    -0.00  -0.01  -0.04     0.10   0.04  -0.08     0.06   0.06   0.04
     6   6    -0.06  -0.05  -0.07     0.03   0.05  -0.13    -0.08  -0.08  -0.04
     7   6     0.00   0.01  -0.00    -0.00   0.04   0.01    -0.02  -0.08  -0.06
     8   1    -0.02  -0.02  -0.01    -0.12   0.02   0.02     0.20   0.13   0.02
     9   1     0.01   0.02  -0.02    -0.03   0.09  -0.02    -0.11  -0.25   0.14
    10   6    -0.02  -0.00   0.00    -0.03  -0.03   0.01    -0.06   0.05   0.01
    11   1    -0.04  -0.03   0.01    -0.08  -0.06  -0.02     0.01   0.05   0.22
    12   1    -0.02  -0.03  -0.01    -0.12  -0.08   0.01     0.23   0.07  -0.05
    13   6     0.00  -0.01  -0.00     0.00   0.02  -0.02     0.02  -0.01   0.07
    14   8     0.00   0.00   0.00     0.02   0.00   0.00     0.00   0.01  -0.01
    15   1    -0.01   0.00   0.00    -0.04   0.02   0.04     0.08  -0.04  -0.08
    16   1    -0.00   0.01  -0.00     0.01   0.04  -0.04     0.06  -0.07   0.10
    17   6     0.06   0.07   0.12    -0.19  -0.10   0.24    -0.05  -0.01  -0.06
    18   1    -0.23  -0.10   0.28    -0.09   0.12   0.13     0.10   0.06  -0.14
    19   1     0.02  -0.01  -0.24    -0.23  -0.00   0.44    -0.09   0.10   0.10
    20  17     0.00   0.00  -0.00    -0.00  -0.00   0.00     0.00   0.00  -0.01
    21   6    -0.00  -0.03  -0.02     0.07  -0.04  -0.03    -0.00  -0.00   0.01
    22   1     0.05  -0.06   0.07    -0.11   0.12   0.08     0.03  -0.03  -0.00
    23   1     0.05  -0.05   0.06     0.16  -0.36   0.23    -0.01   0.05  -0.02
    24   1    -0.05   0.11  -0.02    -0.14   0.07   0.05     0.04  -0.03  -0.00
    25   1     0.46   0.49   0.32    -0.13   0.06  -0.12     0.30   0.36   0.28
    26   1     0.29   0.23   0.18    -0.14  -0.34  -0.21    -0.35  -0.28  -0.26
                     31                     32                     33
                      A                      A                      A
 Frequencies --    956.4490               960.4683               991.7136
 Red. masses --      1.8295                 1.3642                 1.5680
 Frc consts  --      0.9861                 0.7415                 0.9086
 IR Inten    --      8.5172                 7.9991                 0.8017
  Atom  AN      X      Y      Z        X      Y      Z        X      Y      Z
     1   6     0.02  -0.01  -0.00     0.01  -0.00  -0.00    -0.04   0.04   0.00
     2   6     0.07   0.00  -0.03    -0.09  -0.04  -0.04     0.00  -0.00  -0.01
     3   6    -0.03   0.07  -0.01    -0.01   0.03  -0.01    -0.01  -0.01   0.01
     4   6    -0.05  -0.03   0.03     0.10   0.02   0.05     0.00  -0.00   0.01
     5   6    -0.01   0.01   0.04    -0.01   0.00   0.01     0.10  -0.04  -0.09
     6   6    -0.02  -0.05   0.01    -0.00  -0.02   0.01    -0.03   0.06  -0.03
     7   6    -0.08  -0.02  -0.06    -0.02   0.00  -0.02    -0.03   0.01  -0.01
     8   1    -0.27   0.25   0.16    -0.09   0.07   0.05    -0.09   0.07   0.04
     9   1    -0.13  -0.23   0.17    -0.05  -0.06   0.06    -0.05  -0.03   0.04
    10   6     0.14  -0.05   0.02     0.05  -0.02   0.00     0.04  -0.02   0.00
    11   1     0.29   0.23  -0.30     0.10   0.07  -0.12     0.06   0.04  -0.09
    12   1    -0.08   0.19   0.20    -0.04   0.07   0.07    -0.01   0.06   0.06
    13   6    -0.04   0.11  -0.03    -0.02   0.03  -0.01    -0.01   0.03  -0.01
    14   8     0.00  -0.03  -0.00    -0.01  -0.01   0.01    -0.00  -0.01   0.00
    15   1     0.25  -0.04   0.13    -0.56  -0.15  -0.33    -0.01  -0.03  -0.01
    16   1    -0.25  -0.04  -0.23     0.56   0.17   0.30     0.01   0.01  -0.02
    17   6     0.01  -0.04   0.02     0.00  -0.01   0.01    -0.00  -0.01   0.02
    18   1     0.14  -0.16   0.03     0.04  -0.05   0.01     0.11  -0.14   0.03
    19   1     0.06  -0.09   0.04     0.02  -0.03   0.02     0.10  -0.12   0.03
    20  17    -0.00  -0.00   0.01     0.00   0.00  -0.00    -0.00   0.00   0.00
    21   6     0.01   0.02  -0.02     0.00   0.01  -0.01    -0.05  -0.03   0.11
    22   1    -0.07   0.08   0.00    -0.02   0.03   0.01     0.24  -0.31  -0.08
    23   1     0.03  -0.07   0.04     0.01  -0.03   0.02    -0.17   0.39  -0.25
    24   1    -0.07   0.05   0.00    -0.03   0.02   0.00     0.32  -0.26  -0.02
    25   1     0.25  -0.00   0.03     0.09  -0.01   0.01    -0.34   0.26   0.14
    26   1    -0.11   0.01  -0.06    -0.04   0.01  -0.02     0.16  -0.21   0.01
                     34                     35                     36
                      A                      A                      A
 Frequencies --   1033.8305              1043.7906              1067.3391
 Red. masses --      1.4227                 1.4050                 2.1308
 Frc consts  --      0.8959                 0.9019                 1.4302
 IR Inten    --     12.0266                 4.4816                 4.2976
  Atom  AN      X      Y      Z        X      Y      Z        X      Y      Z
     1   6    -0.02   0.01  -0.02     0.06   0.06   0.04    -0.04  -0.02  -0.03
     2   6     0.00   0.00  -0.00     0.00  -0.00   0.00    -0.01  -0.01   0.02
     3   6     0.01  -0.00  -0.02     0.04   0.03   0.02    -0.05  -0.00  -0.03
     4   6    -0.01  -0.00   0.01    -0.00   0.00  -0.02     0.01   0.01  -0.06
     5   6    -0.04   0.09  -0.04    -0.04  -0.00  -0.04     0.02   0.02  -0.02
     6   6     0.06  -0.07   0.01     0.02  -0.02  -0.01     0.03   0.01  -0.03
     7   6     0.04   0.02  -0.03    -0.02  -0.02   0.01    -0.08  -0.07   0.16
     8   1     0.01   0.05  -0.01     0.01  -0.02   0.01    -0.20  -0.32   0.03
     9   1     0.16  -0.02  -0.04    -0.17   0.01   0.05    -0.36   0.19   0.02
    10   6    -0.04  -0.02   0.03     0.01   0.02  -0.01     0.09   0.11  -0.12
    11   1    -0.12  -0.09  -0.01     0.07   0.06   0.03     0.34   0.27   0.15
    12   1    -0.11  -0.07   0.02     0.06   0.03  -0.02     0.22   0.01  -0.21
    13   6     0.00  -0.00  -0.02     0.00   0.01   0.03     0.01  -0.05   0.09
    14   8     0.01   0.01   0.01    -0.00  -0.00  -0.00    -0.03  -0.00  -0.02
    15   1    -0.02   0.01   0.02     0.03  -0.01  -0.02     0.03   0.08  -0.01
    16   1    -0.00   0.03  -0.02     0.01  -0.03   0.02     0.01  -0.13   0.11
    17   6    -0.02  -0.01   0.05    -0.03  -0.04   0.01    -0.00   0.01   0.06
    18   1     0.08  -0.14   0.07    -0.15   0.27  -0.07    -0.02  -0.08   0.09
    19   1    -0.03  -0.00   0.04     0.17  -0.23   0.13     0.03  -0.05  -0.00
    20  17    -0.00  -0.00   0.00     0.00   0.00  -0.00     0.00   0.00  -0.01
    21   6    -0.01   0.00   0.08    -0.09  -0.07  -0.03     0.03   0.02   0.04
    22   1     0.06  -0.10  -0.11     0.32  -0.36   0.27    -0.07   0.08  -0.12
    23   1    -0.14   0.19  -0.16     0.13   0.23   0.07    -0.08  -0.04  -0.07
    24   1     0.20  -0.26   0.03    -0.03   0.42  -0.16     0.07  -0.22   0.07
    25   1     0.36  -0.23  -0.13     0.07  -0.16  -0.13     0.24  -0.16  -0.19
    26   1    -0.26   0.47  -0.39     0.09   0.29  -0.00    -0.05   0.05  -0.11
                     37                     38                     39
                      A                      A                      A
 Frequencies --   1129.9542              1160.9698              1170.5497
 Red. masses --      1.3088                 1.2492                 1.5601
 Frc consts  --      0.9845                 0.9921                 1.2595
 IR Inten    --     12.2690                 7.1936                14.1538
  Atom  AN      X      Y      Z        X      Y      Z        X      Y      Z
     1   6    -0.04  -0.07  -0.04     0.05   0.02   0.03     0.08  -0.08   0.01
     2   6     0.01   0.00  -0.02     0.01   0.01  -0.02    -0.01  -0.01   0.02
     3   6     0.05  -0.03   0.02    -0.01  -0.09  -0.01     0.06  -0.04  -0.00
     4   6    -0.00  -0.00   0.01    -0.00  -0.00   0.02     0.01   0.00   0.01
     5   6     0.00   0.02   0.01    -0.01   0.00  -0.01     0.00  -0.01   0.02
     6   6     0.01   0.00  -0.02     0.02   0.02  -0.02    -0.01   0.01  -0.01
     7   6    -0.01   0.03  -0.01    -0.02   0.02   0.04    -0.06   0.02  -0.00
     8   1     0.19   0.04  -0.05     0.20  -0.08  -0.08    -0.32   0.11   0.12
     9   1    -0.33   0.04   0.11    -0.26   0.08   0.08     0.08  -0.03  -0.02
    10   6    -0.01  -0.04   0.01     0.02  -0.02  -0.02     0.04   0.05   0.02
    11   1    -0.09  -0.10  -0.07    -0.14  -0.18  -0.05     0.08   0.09   0.04
    12   1     0.11   0.17   0.09     0.24   0.27   0.09     0.03   0.01  -0.01
    13   6    -0.01   0.06   0.02    -0.01   0.05   0.01     0.00  -0.06  -0.09
    14   8     0.00  -0.01  -0.00    -0.01  -0.01  -0.00     0.00   0.01   0.01
    15   1     0.10  -0.19  -0.09     0.14  -0.29  -0.14    -0.20   0.33   0.18
    16   1     0.02   0.05  -0.04     0.00   0.16  -0.11    -0.03  -0.09   0.05
    17   6     0.04  -0.02   0.01     0.01  -0.01  -0.00     0.05  -0.07   0.01
    18   1    -0.49   0.54  -0.04     0.16  -0.20   0.03    -0.27   0.27  -0.01
    19   1     0.17  -0.18  -0.02    -0.41   0.47  -0.05    -0.36   0.40   0.00
    20  17    -0.00   0.00   0.00    -0.00  -0.00   0.00     0.00   0.00  -0.00
    21   6     0.02   0.04   0.03    -0.03  -0.01  -0.01    -0.05   0.04   0.00
    22   1    -0.08   0.10  -0.14     0.04  -0.05   0.05    -0.03   0.02  -0.05
    23   1    -0.11  -0.00  -0.10     0.03   0.08   0.01    -0.08   0.21  -0.11
    24   1     0.03  -0.15   0.06     0.01   0.09  -0.04     0.01   0.08  -0.04
    25   1    -0.04  -0.03  -0.05     0.07  -0.01  -0.05    -0.14   0.12   0.09
    26   1    -0.01   0.05  -0.02    -0.02   0.02  -0.03    -0.08   0.17  -0.13
                     40                     41                     42
                      A                      A                      A
 Frequencies --   1181.8928              1202.2322              1239.2785
 Red. masses --      1.9586                 1.1954                 2.1239
 Frc consts  --      1.6120                 1.0180                 1.9219
 IR Inten    --     72.1817                 6.3069                 2.5846
  Atom  AN      X      Y      Z        X      Y      Z        X      Y      Z
     1   6     0.03  -0.03   0.02     0.02  -0.03   0.00     0.12  -0.09  -0.05
     2   6     0.01  -0.02  -0.01    -0.01   0.05  -0.01     0.00  -0.00  -0.01
     3   6     0.01  -0.03  -0.04     0.01   0.04  -0.01    -0.12   0.12   0.03
     4   6    -0.01   0.02  -0.05     0.01  -0.01   0.01    -0.00   0.00  -0.00
     5   6    -0.01  -0.01   0.02     0.01  -0.02   0.01     0.07  -0.08  -0.00
     6   6     0.00  -0.01   0.02    -0.01  -0.00   0.01    -0.12   0.11   0.01
     7   6     0.05   0.06  -0.03    -0.00  -0.02   0.01     0.03  -0.03  -0.01
     8   1    -0.30   0.08   0.06    -0.26  -0.00   0.08     0.40  -0.10  -0.14
     9   1    -0.08   0.05   0.02     0.25  -0.03  -0.08     0.29  -0.07  -0.08
    10   6    -0.02  -0.06  -0.07     0.00   0.04  -0.02    -0.01  -0.03  -0.00
    11   1     0.06   0.00  -0.03     0.05   0.06   0.07     0.02   0.00  -0.03
    12   1    -0.52  -0.41  -0.13    -0.04  -0.11  -0.09    -0.11  -0.09  -0.01
    13   6     0.01   0.10   0.22     0.02  -0.08   0.01    -0.00   0.02   0.04
    14   8    -0.00  -0.01  -0.03    -0.02   0.01   0.00     0.00  -0.00  -0.00
    15   1     0.16  -0.13  -0.11     0.24  -0.51  -0.27     0.02  -0.02  -0.02
    16   1     0.07  -0.30   0.18    -0.02   0.54  -0.29     0.01  -0.08   0.04
    17   6     0.02  -0.02   0.00     0.00  -0.01   0.01    -0.00  -0.04   0.04
    18   1     0.01  -0.01   0.00    -0.06   0.06   0.00    -0.16   0.06   0.07
    19   1    -0.15   0.17  -0.02     0.03  -0.04   0.03    -0.13   0.12   0.12
    20  17     0.00   0.00  -0.01    -0.01  -0.00   0.01     0.00   0.00  -0.00
    21   6    -0.02   0.01  -0.01    -0.01   0.01  -0.00    -0.04   0.04   0.02
    22   1    -0.02   0.02  -0.01    -0.02   0.02  -0.02    -0.04   0.02  -0.11
    23   1    -0.02   0.08  -0.03    -0.02   0.04  -0.03    -0.10   0.23  -0.14
    24   1    -0.01   0.06  -0.02    -0.01   0.03  -0.01     0.05   0.09  -0.04
    25   1    -0.21   0.11   0.13    -0.08   0.06   0.06     0.46  -0.22  -0.32
    26   1    -0.06   0.13  -0.08    -0.03   0.08  -0.06     0.11  -0.16   0.04
                     43                     44                     45
                      A                      A                      A
 Frequencies --   1254.3334              1261.6171              1347.9666
 Red. masses --      1.5245                 1.2901                 1.5333
 Frc consts  --      1.4132                 1.2099                 1.6415
 IR Inten    --      0.8800                 8.6184                 9.5196
  Atom  AN      X      Y      Z        X      Y      Z        X      Y      Z
     1   6     0.03  -0.08   0.07    -0.01   0.02  -0.01     0.01  -0.02   0.01
     2   6     0.00  -0.01  -0.00     0.01  -0.00  -0.02    -0.01  -0.07   0.06
     3   6    -0.01   0.06  -0.08     0.04   0.01   0.03     0.01  -0.04   0.03
     4   6    -0.00   0.00   0.01    -0.01   0.01   0.01     0.04  -0.02  -0.07
     5   6     0.05  -0.09   0.05    -0.01   0.01  -0.01     0.02  -0.03   0.01
     6   6    -0.00   0.03  -0.03    -0.00  -0.01   0.00    -0.02   0.04  -0.02
     7   6     0.02  -0.04   0.04    -0.05  -0.04   0.04    -0.01  -0.02  -0.03
     8   1     0.17  -0.13  -0.06    -0.27  -0.06   0.09     0.03   0.05   0.01
     9   1    -0.03   0.04  -0.02     0.52  -0.08  -0.15    -0.25  -0.05   0.10
    10   6    -0.01  -0.01  -0.01     0.07   0.04  -0.06     0.10   0.08   0.03
[...]
 -0.00036490,-0.00069783,0.00073870,0.00059435,0.00082148,-0.00020504,-
 0.00026237,-0.00020169,-0.00002160,-0.00006607,-0.00006202,0.00002166,
 -0.00007648,0.00008326,-0.12811377,-0.15383599,0.03511899,-0.00782096,
 -0.00643082,0.00263541,0.13866786,0.16450886,0.00991833,0.00924673,-0.
 00431815,-0.00060992,-0.00039420,-0.00144128,0.01398204,0.00923293,-0.
 00414282,-0.00027659,0.00009884,-0.00060228,0.00138211,-0.00006910,-0.
 00095184,-0.00027947,0.00149166,-0.00155705,0.00012750,-0.00060586,-0.
 00023066,-0.00007129,-0.00002958,-0.00005968,0.00007199,-0.00014800,0.
 00011622,-0.00009962,-0.00011531,0.00018705,-0.00001739,-0.00008753,-0
 .00002061,0.00017418,-0.00031392,0.00013698,-0.00077513,0.00060313,0.0
 0055134,0.00023096,-0.00012750,-0.00032399,-0.00001345,-0.00001741,0.0
 0001103,-0.00002494,-0.00002075,-0.00006630,0.04151786,0.03830639,-0.0
 4500026,-0.02070308,-0.01767464,0.00552604,-0.04241162,-0.03767312,0.0
 5410956,0.00006059,-0.00007375,-0.00033257,-0.03478124,-0.01024587,0.0
 2868990,0.00001639,-0.00006482,0.00030222,0.00813768,0.00092252,-0.005
 08996,0.00014030,-0.00006037,0.00005413,-0.00013864,-0.00011027,0.0001
 1532,0.00001075,0.00004376,-0.00002228,0.00000150,-0.00002297,-0.00000
 399,-0.00001315,-0.00000189,-0.00000476,0.00112984,-0.00066050,-0.0000
 4496,-0.00012715,-0.00023566,-0.00021578,-0.00002834,0.00006624,-0.000
 00625,-0.00637296,-0.00112314,-0.00222841,0.00029987,0.00200540,0.0001
 6602,0.00556700,0.00229271,0.00315785,0.00211137,-0.01038955,0.0091003
 6,-0.00027357,-0.00019529,0.00013114,-0.00001784,0.00000219,-0.0000214
 1,-0.00039047,-0.00013672,-0.00012851,0.02440365,0.00001904,-0.0001471
 2,-0.00011143,-0.01276379,-0.09200610,0.06847016,-0.00015550,-0.000410
 79,0.00059711,-0.00666065,-0.02717347,0.03247971,0.00034542,-0.0002193
 3,-0.00010685,-0.00045655,-0.00045239,-0.00025386,0.00013966,0.0001738
 9,-0.00002608,-0.00003946,0.00017682,-0.00001068,-0.00017968,-0.000025
 68,-0.00005764,0.00090674,-0.00076055,0.00002220,-0.00007674,-0.000252
 91,-0.00028051,-0.00002697,0.00012745,-0.00003498,-0.00626152,0.001400
 19,0.00421837,0.00334020,-0.00120235,-0.00114032,0.00395130,-0.0036582
 5,-0.00034928,0.00028603,-0.00039310,0.00252816,-0.00044574,0.00005142
 ,0.00039112,0.00005247,0.00005985,-0.00005820,-0.00003090,-0.00035020,
 -0.00033606,0.01812262,0.12473823,0.00054668,-0.00015281,-0.00064590,0
 .02897057,0.06435631,-0.12263320,0.00042897,0.00067860,-0.00080003,0.0
 0084581,0.02035332,-0.00792233,-0.00017090,-0.00017291,0.00058872,0.00
 004300,0.00054409,0.00083813,-0.00011016,-0.00023506,0.00007549,0.0000
 3126,-0.00023185,0.00000733,0.00016803,0.00004082,0.00004261,-0.000826
 53,0.00063956,0.00019822,0.00011701,0.00028163,0.00028530,0.00008830,0
 .00024165,0.00025426,0.00437340,-0.00366884,-0.00756316,-0.00493764,-0
 .00096388,0.00418011,0.00226083,0.00161886,0.00398532,0.00217262,0.022
 94285,-0.01623048,0.00007334,-0.00017510,-0.00027423,-0.00011892,-0.00
 010883,0.00004686,-0.00020853,0.00020166,0.00025493,-0.03379179,-0.105
 80165,0.14509754,-0.11945735,0.07303040,-0.02122276,0.00001453,0.00004
 537,0.00007059,-0.00311461,0.00070884,0.00265326,0.00001141,-0.0000749
 0,-0.00002442,0.00811922,-0.00079671,0.00233746,0.00381455,0.00276618,
 0.00338086,0.00055275,0.00093293,-0.00070031,-0.00012056,0.00023557,-0
 .00000109,0.00005856,0.00001699,-0.00008315,0.00019137,-0.00018239,0.0
 0003647,0.00002388,0.00002259,-0.00004026,0.00003560,-0.00001853,-0.00
 001667,-0.00005579,0.00007828,0.00014203,0.00005640,-0.00002028,-0.000
 06048,-0.00001969,-0.00000960,-0.00002373,-0.00000074,-0.00001507,-0.0
 0004878,-0.00839947,0.01682989,-0.00981306,0.00040312,0.00005669,-0.00
 003578,0.00079139,-0.00042703,-0.00050138,-0.00005178,-0.00003701,-0.0
 0002957,0.56127168,0.07104880,-0.19059835,0.05157968,0.00015340,0.0003
 1143,-0.00030922,0.00043679,-0.00073506,-0.00048092,-0.00000488,-0.000
 21305,0.00004872,0.01089416,-0.00942375,0.00762791,0.00190184,0.003426
 68,0.00364521,0.00039798,0.00045634,0.00082880,0.00012551,-0.00003578,
 -0.00007527,-0.00015713,0.00015964,-0.00010726,0.00004392,-0.00004457,
 -0.00005629,-0.00002930,0.,-0.00000805,-0.00000499,0.00001894,-0.00001
 405,0.00006289,0.00008704,0.00010917,-0.00004289,-0.00005477,-0.000040
 18,-0.00000137,-0.00003075,0.00000204,-0.00000267,0.00000632,0.0000377
 4,0.00527006,-0.00784528,0.00215725,-0.00056467,0.00044268,0.00063297,
 -0.00027843,0.00020264,0.00030167,-0.00008418,-0.00024729,0.00026974,0
 .00490155,0.52497395,-0.01841455,0.04822730,-0.10546210,-0.00002621,-0
 .00006711,0.00000199,0.00251384,-0.00041282,-0.00440966,0.00003554,0.0
 0007951,0.00003036,-0.01277923,0.02453632,-0.00397491,0.00361986,0.003
 23809,-0.00091280,0.00063242,-0.00053234,0.00170653,0.00046233,-0.0003
 3400,-0.00004946,-0.00027749,0.00027435,0.00004900,-0.00011267,-0.0000
 3462,-0.00000011,-0.00000324,-0.00001333,0.00004073,-0.00008399,0.0000
 1651,0.00005723,-0.00002365,-0.00003884,-0.00007410,-0.00000865,0.0000
 1587,0.00001677,0.00001548,-0.00000256,0.00001207,0.00001497,-0.000014
 15,0.00000415,0.00562319,-0.01446260,0.01136297,-0.00039734,0.00004633
 ,-0.00008618,0.00015692,0.00021750,0.00002224,-0.00001841,0.00002480,0
 .00003235,-0.02710207,0.01464233,0.56811867,0.01340909,0.01379732,-0.0
 0186092,-0.00000811,0.00015156,-0.00021395,0.00001228,0.00043676,-0.00
 070953,0.00001293,-0.00002215,0.00006686,-0.00076765,0.00060652,-0.000
 90162,-0.00056073,-0.00010475,-0.00027714,-0.00003097,-0.00017264,0.00
 000510,0.00000620,-0.00001172,0.00000521,-0.00002517,0.00001563,0.0000
 3343,-0.00002126,0.00004029,-0.00004167,-0.00001514,-0.00001660,0.0000
 1134,-0.00000582,-0.00000513,0.00001518,-0.00000996,0.00008580,0.00007
 831,0.00000811,-0.00004649,-0.00003336,0.00000358,-0.00001829,-0.00000
 369,-0.00000780,-0.00003353,0.00001125,0.00036688,-0.00077466,0.000607
 08,0.00008310,-0.00004075,-0.00003717,-0.00011125,0.00018590,0.0000360
 6,0.00029322,-0.00005839,0.00015145,-0.16117657,-0.13024249,0.02263006
 ,0.16892469,-0.01543993,-0.01978662,0.00648355,-0.00008975,-0.00032033
 ,0.00036164,0.00002854,-0.00064946,0.00090739,-0.00003920,0.00009572,-
 0.00003127,0.00137232,-0.00071165,-0.00121262,0.00132713,0.00027896,0.
 00029970,-0.00000323,0.00013994,-0.00015602,0.00004270,0.00000630,0.,0
 .00012964,-0.00008279,-0.00006518,0.00001721,-0.00012329,0.00014246,0.
 00006663,0.00003731,-0.00002620,-0.00000866,0.00000860,-0.00001590,-0.
 00009231,-0.00016663,-0.00015549,0.00009095,0.00010052,0.00006370,-0.0
 0001661,0.00002062,-0.00002327,0.00002898,0.00000716,0.00000340,-0.000
 30301,0.00082481,-0.00016039,-0.00012034,0.00014399,0.00012270,0.00060
 675,-0.00022282,-0.00022196,-0.00011122,0.00020687,-0.00032534,-0.1327
 7677,-0.19636118,0.02297986,0.14063525,0.21283418,0.00767106,0.0110874
 1,-0.00413369,-0.00007088,0.00019950,-0.00012680,0.00005430,-0.0001486
 4,0.00004367,0.00002790,-0.00010443,-0.00004543,-0.00135794,0.00103607
 ,0.00047965,-0.00073285,-0.00041673,-0.00073914,0.00001813,0.00006764,
 0.00007031,-0.00001994,0.00000515,-0.00000348,-0.00004212,0.00001449,0
 .00001738,0.00001560,0.00000695,-0.00004359,-0.00002214,-0.00001257,-0
 .00000550,0.00000588,-0.00000205,-0.00000652,-0.00001231,0.00010924,0.
 00014685,0.00000679,-0.00005313,-0.00006875,0.00000769,-0.00000059,0.0
 0000956,-0.00004197,0.00002345,-0.00005486,0.00023858,-0.00027330,-0.0
 0013273,-0.00004185,-0.00010790,0.00010566,-0.00007493,-0.00007068,0.0
 0027237,0.00015486,-0.00013533,0.00001616,0.02346559,0.02292200,-0.047
 26734,-0.02234596,-0.02899276,0.04868127,-0.01110124,0.00285824,0.0098
 5557,-0.00002876,-0.00000446,0.00007244,-0.00040188,0.00027740,0.00063
 872,0.00001654,-0.00002006,-0.00004477,0.00099401,-0.00133116,-0.00006
 967,-0.00024123,-0.00004821,-0.00005641,0.00012924,0.00015786,-0.00024
 001,-0.00009267,0.00007597,0.00000264,-0.00002276,0.00001790,0.0000274
 9,0.00003329,0.00000866,-0.00003184,-0.00002916,-0.00000140,-0.0000050
 0,0.00002559,-0.00001611,-0.00002168,0.00010411,0.00006332,0.00007324,
 -0.00007913,-0.00003897,-0.00002431,0.00000752,0.00000811,0.00001760,-
 0.00001501,0.00002195,-0.00001038,0.00055882,0.00209195,-0.00183358,-0
 .00009387,0.00013650,0.00019200,0.00036958,-0.00024789,-0.00015781,-0.
 00001372,-0.00001312,-0.00004879,-0.18896367,0.05863217,0.12655601,-0.
 01218433,0.00767283,0.01133037,0.19985615,0.01949759,-0.00794793,-0.01
 940081,-0.00000457,-0.00009248,0.00008183,0.00112613,-0.00032386,-0.00
 086080,0.00000611,0.00004458,-0.00000677,-0.00082277,0.00120031,-0.000
 84450,-0.00004760,-0.00003740,-0.00022044,-0.00000365,-0.00016207,0.00
 045696,0.00014004,-0.00012039,-0.00000542,-0.00000378,0.00000389,-0.00
 001851,-0.00003920,-0.00002705,0.00004020,0.00002844,0.00000460,0.0000
 0325,-0.00003186,0.00001656,0.00002006,-0.00009982,-0.00007814,-0.0000
 7126,0.00007522,0.00004439,0.00001967,-0.00000756,0.00000556,-0.000009
 72,-0.00000110,0.00000793,-0.00001119,0.00134984,-0.00278714,0.0033965
 6,-0.00033545,0.00018874,0.00011200,0.00017325,0.00001247,-0.00005288,
 0.00000332,0.00006014,-0.00005319,0.05745122,-0.07012875,-0.05042899,-
 0.01601499,0.00832751,0.01595237,-0.06625169,0.07444061,-0.01063592,0.
 00373696,0.00869139,0.00001112,0.00002016,-0.00001021,-0.00040216,0.00
 040014,0.00031209,0.00000687,-0.00000737,0.00000107,-0.00081369,0.0000
 1477,0.00084105,-0.00003662,-0.00023247,0.00005793,0.00000548,0.000124
 67,-0.00009122,-0.00002457,0.00002303,0.00000156,0.00001068,-0.0000010
 4,-0.00000215,0.00001793,-0.00000865,-0.00000631,0.00000472,-0.0000009
 7,-0.00000177,-0.00000011,0.00000150,0.00000175,-0.00003149,0.00000180
 ,0.00000772,0.00002363,-0.00000068,-0.00000433,-0.00000623,-0.00000083
 ,-0.00000433,-0.00000709,-0.00000621,-0.00000414,-0.00066833,0.0019819
 1,-0.00025238,-0.00015719,0.00022949,0.00012044,0.00011440,-0.00005678
 ,-0.00014096,0.00000660,-0.00000865,0.00001432,0.12796792,-0.05204080,
 -0.16035214,0.00016090,-0.00099848,-0.00189762,-0.13634855,0.05376960,
 0.16701537,-0.00494225,-0.00251571,-0.01251994,-0.00001112,0.00005044,
 -0.00007917,-0.00014932,0.00058012,-0.00091307,0.00000076,-0.00000412,
 0.00002499,-0.00031697,-0.00001370,0.00050569,-0.00028879,0.00035777,0
 .00047610,0.00022541,0.00001442,0.00026959,0.00001422,-0.00002106,-0.0
 0000844,-0.00013013,0.00012027,0.00005089,-0.00001273,0.00005440,-0.00
 006323,-0.00003732,-0.00001055,0.00001742,-0.00000095,-0.00000857,0.00
 000498,0.00012234,0.00002199,-0.00001252,-0.00010100,-0.00003200,0.000
 01372,0.00001967,-0.00000475,0.00002397,0.00001005,-0.00000013,0.00003
 091,0.00039695,-0.00033955,0.00052874,-0.00016078,0.00031083,0.0001113
 9,0.00007910,-0.00003967,-0.00015249,0.00000074,-0.00002936,0.00005438
 ,-0.09268611,-0.02038768,-0.10019810,-0.00819679,-0.00296265,-0.018543
 47,0.01108127,0.00413683,0.02037936,0.09513071,0.01127356,0.00492229,0
 .02809591,-0.00002050,-0.00010611,0.00009171,-0.00003845,-0.00048359,0
 .00086439,-0.00003464,0.00002654,0.00000308,0.00127700,-0.00184549,-0.
 00041112,-0.00041425,-0.00128780,-0.00049067,-0.00017996,-0.00000306,-
 0.00028071,-0.00003211,0.00001721,0.00002434,0.00012529,-0.00010630,-0
 .00003388,0.00000789,-0.00003777,0.00005303,0.00003582,0.00001356,-0.0
 0001131,0.00000045,0.00001103,-0.00000243,-0.00006943,-0.00006249,-0.0
 0006870,0.00006137,0.00004001,0.00002929,-0.00001232,0.00000606,-0.000
 01840,0.00001778,-0.00001716,0.00001315,-0.00064468,0.00095704,-0.0006
 0168,0.00021152,-0.00011385,-0.00020041,-0.00009153,0.00007931,-0.0000
 2194,0.00001102,0.00010244,-0.00008750,-0.01952048,-0.05359275,-0.0468
 5395,-0.00859250,-0.00422412,-0.02150092,-0.00442358,-0.00261247,-0.00
 659922,0.02053865,0.05817539,-0.00271745,0.00150801,-0.00986165,0.0000
 0073,0.00005219,-0.00008182,-0.00000528,0.00009983,0.00000052,-0.00000
 339,-0.00002432,0.00002408,-0.00164098,0.00021924,0.00111749,0.0003937
 7,0.00072447,0.00037743,0.00000488,-0.00003423,0.00011278,-0.00001235,
 0.00000742,-0.00001496,-0.00007182,0.00006341,-0.00000024,-0.00001333,
 0.00006623,-0.00004180,-0.00004033,-0.00001098,0.00001337,0.00001415,-
 0.00001403,-0.00000501,0.00012992,0.00003246,0.00001166,-0.00010115,-0
 .00002984,0.00000459,0.00002068,-0.00000524,0.00001819,0.00001359,0.00
 000433,0.00002117,0.00022067,0.00000754,-0.00019943,-0.00016461,0.0001
 7825,0.00038219,0.00006091,0.00001286,0.00004523,-0.00001488,-0.000037
 94,0.00004608,-0.09892014,-0.04902505,-0.25903511,0.00261752,0.0012252
 4,0.00432777,-0.00937341,-0.00253084,-0.01427577,0.11000543,0.04775643
 ,0.27712611,-0.00210704,0.00391287,0.00034256,0.00002561,-0.00010405,0
 .00004059,0.00689111,-0.01100418,0.01280998,0.00016324,0.00011271,0.00
 008974,0.00407363,0.00736138,-0.01578689,-0.05155614,0.02128213,-0.008
 39487,-0.00095123,-0.00339429,-0.00160956,-0.00015534,0.00048658,-0.00
 054552,0.00047464,-0.00026651,-0.00036590,-0.00018198,0.00024160,0.000
 04809,-0.00005175,-0.00004643,0.00004355,0.00003725,0.00004193,-0.0000
 2304,-0.00011212,0.00009850,0.00010008,0.00008859,-0.00002538,-0.00004
 929,-0.00005566,-0.00001934,-0.00006271,0.00000440,-0.00000397,-0.0000
 1052,0.00265904,0.00463584,0.00578078,0.00034633,-0.00166206,0.0010475
 2,-0.00033128,0.00048896,-0.00060750,0.00003066,0.00012203,-0.00009630
 ,0.00074968,0.00035619,-0.00063434,-0.00014436,0.00029899,-0.00012436,
 0.00002604,-0.00007618,0.00004470,-0.00004655,0.00010925,-0.00010783,0
 .04006417,0.00292743,-0.00198881,0.00072276,0.00003225,-0.00017091,0.0
 0006957,0.00241958,0.00489397,-0.00319858,0.00023075,0.00007535,0.0000
 7753,-0.00475168,-0.00483144,0.01417529,0.01977829,-0.16302942,0.14667
 189,-0.00234967,-0.00206882,-0.00186747,-0.00029287,0.00029987,0.00011
 692,0.00042173,-0.00019304,-0.00032107,-0.00017995,0.00028893,0.000188
 99,-0.00009661,-0.00007239,0.00005164,0.00001163,-0.00001234,-0.000004
 37,-0.00006234,0.00024124,0.00018931,0.00004050,-0.00008579,-0.0000870
 3,-0.00018958,-0.00001274,-0.00005433,0.00001637,-0.00002578,0.0000245
 1,0.00486467,0.00403382,0.00281247,0.00005603,-0.00114710,0.00088705,-
 0.00064587,0.00092382,-0.00078901,0.00003671,0.00016429,-0.00015341,-0
 .00018986,0.00018575,0.00081245,0.00003099,-0.00012150,0.00010142,-0.0
 0000275,0.00003738,-0.00005035,0.00015924,-0.00027432,0.00013771,-0.02
 191225,0.16265229,0.00146186,-0.00046567,0.00013386,0.00004091,0.00005
 141,-0.00003872,-0.00602342,0.01631819,-0.00913215,0.00006477,0.000032
 65,-0.00000628,0.00150320,-0.00389145,0.00370623,-0.00763646,0.1457207
 1,-0.22829972,-0.00256652,-0.00140577,-0.00035140,0.00058271,-0.000403
 26,-0.00004124,0.00036697,-0.00018308,-0.00020933,0.00000397,0.0001004
 2,0.00026043,-0.00001431,-0.00004046,0.00004132,-0.00013311,-0.0000371
 4,0.00009257,-0.00007697,0.00009451,0.00005171,0.00001068,-0.00004152,
 -0.00003818,0.00007846,0.00009571,-0.00001862,-0.00001149,-0.00001715,
 -0.00000868,0.00556427,0.00301773,-0.00033790,0.00011323,-0.00041864,0
 .00008922,-0.00060787,0.00100849,-0.00129082,0.00003025,-0.00000964,0.
 00007393,0.00010209,-0.00001434,0.00039838,-0.00004479,0.00004670,-0.0
 0002339,-0.00004700,0.00004891,0.00000274,0.00005528,-0.00004340,0.000
 00626,0.00771180,-0.15985970,0.23515805,0.00208329,0.00380993,-0.00062
 253,-0.00003721,0.00007018,0.00002794,-0.00110342,0.00265378,0.0004274
 1,0.00003646,-0.00007757,-0.00010153,-0.18635929,0.05457394,0.14404693
 ,-0.00506186,-0.00257926,0.01089208,0.00021856,-0.00004876,0.00073472,
 0.00001079,-0.00001029,-0.00004923,-0.00021229,0.00016787,0.00006947,0
 .00006893,0.00012496,-0.00010859,-0.00007030,-0.00006376,0.00001702,0.
 00002320,-0.00002938,0.00002759,0.00009884,0.00017891,0.00017998,-0.00
 009348,-0.00009231,-0.00008330,0.00000031,0.00002429,0.00004648,-0.000
 04395,-0.00003177,-0.00001285,0.00476388,0.00435996,0.00344434,-0.0013
 5790,0.00039175,0.00085343,0.00087292,-0.00084794,-0.00061085,0.000005
 30,-0.00005014,0.00001349,-0.00204782,-0.00242460,-0.00218067,0.000145
 83,-0.00035426,0.00043396,0.00006530,-0.00024777,0.00037764,-0.0000003
 9,0.00040482,-0.00029529,0.00005906,-0.00035275,-0.00052851,0.18793525
 ,-0.01005508,0.00842939,0.01022767,0.00002183,-0.00003849,0.00007678,0
 .00356765,-0.00284518,0.00112247,0.00001720,0.00003813,-0.00000403,0.0
 5545754,-0.06677359,-0.04039782,0.01007431,0.00145543,-0.01651735,0.00
 047494,0.00078473,-0.00072058,-0.00004863,0.00004454,0.00003043,0.0000
 7221,-0.00006414,-0.00008144,0.00027731,-0.00038006,-0.00004093,0.0001
 5158,0.00005940,-0.00004133,-0.00000085,0.00001111,0.00000788,-0.00015
 512,-0.00008918,-0.00007608,0.00012223,0.00005604,0.00002620,-0.000020
 25,-0.00000104,-0.00003308,-0.00002331,0.00000017,-0.00002706,0.004101
 90,0.00260981,0.00532143,-0.00152362,0.00066154,0.00071718,0.00050037,
 -0.00040619,-0.00058258,0.00000970,0.00003793,-0.00003871,-0.00300789,
 -0.00096006,-0.00191592,0.00016903,-0.00026211,0.00029335,0.00037657,-
 0.00007700,-0.00029151,0.00002454,0.00041638,-0.00038314,-0.00103432,0
 .00023768,0.00029581,-0.05954983,0.05705475,0.01771508,-0.00977772,-0.
 00781527,0.00000407,-0.00002486,-0.00001464,-0.00080906,0.00216417,-0.
 00010087,0.00000905,0.00001268,-0.00000364,0.14297427,-0.03923543,-0.1
 9050046,-0.00582044,0.00186559,0.00602085,-0.00009620,0.00016835,0.000
 54081,0.00005510,-0.00006471,-0.00000840,-0.00006660,0.00007600,0.0000
 0229,0.00010049,-0.00003508,-0.00003645,0.00002415,-0.00002687,0.00003
 213,-0.00003881,-0.00000093,0.00007580,-0.00012826,-0.00001305,-0.0000
 4186,0.00007143,0.00001587,-0.00000428,-0.00001358,0.00000390,-0.00000
 445,-0.00000591,-0.00001678,-0.00000628,0.00391592,0.00520339,-0.00093
 370,-0.00036149,0.00015496,0.00004446,0.00110330,-0.00089874,-0.001086
 28,0.00001530,0.00002748,0.00003167,-0.00153262,-0.00263379,-0.0002295
 5,0.00004004,-0.00025145,0.00037819,-0.00045289,0.00061397,-0.00002407
 ,-0.00006242,0.00029489,-0.00011913,0.00035922,-0.00065419,-0.00021828
 ,-0.15699913,0.04303238,0.19402138\\0.00000022,-0.00000843,0.00001140,
 -0.00001435,0.00001625,0.00002168,0.00000407,-0.00000142,-0.00000765,0
 .00000359,-0.00000268,0.00000020,0.00000034,-0.00000447,-0.00000492,-0
 .00000131,-0.00000131,0.00000302,0.00000427,-0.00000123,0.00001340,0.0
 0000165,0.00000645,-0.00001001,0.00000403,-0.00000145,-0.00000367,-0.0
 0000767,0.00001585,-0.00001039,0.00000993,-0.00000374,-0.00000482,0.00
 000350,0.00000009,0.00000869,-0.00001061,-0.00000111,0.00000555,0.0000
 0984,0.00000910,-0.00000607,-0.00000014,0.00000114,-0.00000161,0.00000
 776,-0.00000787,-0.00001434,-0.00000078,-0.00000047,0.00000056,0.00000
 250,0.00000109,0.00000064,-0.00000100,0.00000107,-0.00000242,-0.000004
 28,0.00000259,-0.00000251,-0.00001272,-0.00000639,-0.00000259,0.000001
 40,0.00000179,-0.00000358,-0.00000184,-0.00000759,0.00000179,-0.000000
 63,0.00000064,0.00000477,0.00000336,-0.00000320,0.00000137,-0.00000113
 ,-0.00000469,0.00000148\\\@
 The archive entry for this job was punched.


          EVOLUTION
 IN THE BEGINNING GOD MADE MAN.
 HE WORKED THE DIRT WITH HIS HANDS.
 THEN GOD DECIDED TO GIVE MAN SCIENCE,
 MAN SHOULD BE USEFUL (LIKE AN APPLIANCE.)
 BUT SOON MAN'S KNOWLEDGE GREW TOO GREAT,
 TO THE HEADING SCIENCE HE COULDN'T RELATE
 SO GOD SAID "LETS HAVE DIFFERENT FIELDS,
 WE'LL DIVIDE THEM UP, SEE WHAT IT YIELDS."
 ENTER PHYSICS, CHEMISTRY, BIO
 THEY SPRANG UP AROUND THE NILE.
 BUT CHEMISTRY SURPASSED THE REST
 FAR AND AWAY IT WAS THE BEST.
 EXPERIMENT WAS GOD'S DECREE
 EXPERIMENT DID CHEMISTS WITH LOTS OF GLEE
 BUT SOON THEIR TESTS BEGAN TO BOG,
 THEY FOUND THEMSELVES DEEP IN A FOG.
 "GIVE US SOME HELP" THEY CRIED TO GOD.
 GOD LOOKED AROUND, THEN GAVE THE NOD.
 ENTER EINSTEIN, HEISENBERG, BOHR,
 REACTION PATHS WERE CLEAR ONCE MORE.
 WITH THEORISTS GOD SEND DIRECTION
 AND THEN HE STOPPED, HE'D MADE PERFECTION.
          -- THOMAS A. HOLME, 1981
 Job cpu time:       0 days  0 hours 33 minutes 46.1 seconds.
 Elapsed time:       0 days  0 hours  2 minutes 50.5 seconds.
 File lengths (MBytes):  RWF=    268 Int=      0 D2E=      0 Chk=     12 Scr=      1
 Normal termination of Gaussian 16 at Sat Dec 30 20:57:53 2023.
