Unloading slurm/anatra/current
  ERROR: No such file or directory on
    '/cm/local/modulefiles/slurm/anatra/current'
environment: line 0: unalias: gv: not found
environment: line 0: unalias: sl: not found
 Entering Gaussian System, Link 0=g16
 Initial command:
 /apps/gaussian/g16/C.01/g16/l1.exe "/local/jobs/1152786/Gau-3960091.inp" -scrdir="/local/jobs/1152786/"
 Entering Link 1 = /apps/gaussian/g16/C.01/g16/l1.exe PID=   3960092.
  
 Copyright (c) 1988-2019, Gaussian, Inc.  All Rights Reserved.
  
 This is part of the Gaussian(R) 16 program.  It is based on
 the Gaussian(R) 09 system (copyright 2009, Gaussian, Inc.),
 the Gaussian(R) 03 system (copyright 2003, Gaussian, Inc.),
 the Gaussian(R) 98 system (copyright 1998, Gaussian, Inc.),
 the Gaussian(R) 94 system (copyright 1995, Gaussian, Inc.),
 the Gaussian 92(TM) system (copyright 1992, Gaussian, Inc.),
 the Gaussian 90(TM) system (copyright 1990, Gaussian, Inc.),
 the Gaussian 88(TM) system (copyright 1988, Gaussian, Inc.),
 the Gaussian 86(TM) system (copyright 1986, Carnegie Mellon
 University), and the Gaussian 82(TM) system (copyright 1983,
 Carnegie Mellon University). Gaussian is a federally registered
 trademark of Gaussian, Inc.
  
 This software contains proprietary and confidential information,
 including trade secrets, belonging to Gaussian, Inc.
  
 This software is provided under written license and may be
 used, copied, transmitted, or stored only in accord with that
 written license.
  
 The following legend is applicable only to US Government
 contracts under FAR:
  
                    RESTRICTED RIGHTS LEGEND
  
 Use, reproduction and disclosure by the US Government is
 subject to restrictions as set forth in subparagraphs (a)
 and (c) of the Commercial Computer Software - Restricted
 Rights clause in FAR 52.227-19.
  
 Gaussian, Inc.
 340 Quinnipiac St., Bldg. 40, Wallingford CT 06492
  
  
 ---------------------------------------------------------------
 Warning -- This program may not be used in any manner that
 competes with the business of Gaussian, Inc. or will provide
 assistance to any competitor of Gaussian, Inc.  The licensee
 of this program is prohibited from giving any competitor of
 Gaussian, Inc. access to this program.  By using this program,
 the user acknowledges that Gaussian, Inc. is engaged in the
 business of creating and licensing software in the field of
 computational chemistry and represents and warrants to the
 licensee that it is not a competitor of Gaussian, Inc. and that
 it will not use this program in any manner prohibited above.
 ---------------------------------------------------------------
  

 Cite this work as:
 Gaussian 16, Revision C.01,
 M. J. Frisch, G. W. Trucks, H. B. Schlegel, G. E. Scuseria, 
 M. A. Robb, J. R. Cheeseman, G. Scalmani, V. Barone, 
 G. A. Petersson, H. Nakatsuji, X. Li, M. Caricato, A. V. Marenich, 
 J. Bloino, B. G. Janesko, R. Gomperts, B. Mennucci, H. P. Hratchian, 
 J. V. Ortiz, A. F. Izmaylov, J. L. Sonnenberg, D. Williams-Young, 
 F. Ding, F. Lipparini, F. Egidi, J. Goings, B. Peng, A. Petrone, 
 T. Henderson, D. Ranasinghe, V. G. Zakrzewski, J. Gao, N. Rega, 
 G. Zheng, W. Liang, M. Hada, M. Ehara, K. Toyota, R. Fukuda, 
 J. Hasegawa, M. Ishida, T. Nakajima, Y. Honda, O. Kitao, H. Nakai, 
 T. Vreven, K. Throssell, J. A. Montgomery, Jr., J. E. Peralta, 
 F. Ogliaro, M. J. Bearpark, J. J. Heyd, E. N. Brothers, K. N. Kudin, 
 V. N. Staroverov, T. A. Keith, R. Kobayashi, J. Normand, 
 K. Raghavachari, A. P. Rendell, J. C. Burant, S. S. Iyengar, 
 J. Tomasi, M. Cossi, J. M. Millam, M. Klene, C. Adamo, R. Cammi, 
 J. W. Ochterski, R. L. Martin, K. Morokuma, O. Farkas, 
 J. B. Foresman, and D. J. Fox, Gaussian, Inc., Wallingford CT, 2019.
 
 ******************************************
 Gaussian 16:  ES64L-G16RevC.01  3-Jul-2019
                22-Dec-2023 
 ******************************************
 %chk=imda-1_1_opt_sqm.chk
 %nprocshared=12
 Will use up to   12 processors via shared memory.
 %mem=48GB
 ----------------------------------------------------------------------
 # wb97xd chkbasis guess=read geom=allchk scrf=(iefpcm,solvent=toluene)
  opt=(readfc,ts,noeigen,maxcycles=50,maxstep=10)
 ----------------------------------------------------------------------
 1/5=1,6=50,8=10,10=3,11=1,18=20,26=3,29=7,38=1/1,3;
 2/9=110,12=2,40=1/2;
 3/5=7,6=2,11=2,14=-4,25=1,30=1,67=1,70=2201,71=1,72=13,74=-58,116=-2/1,2,3;
 4/5=1/1;
 5/5=2,38=6,53=13/2;
 6/7=2,8=2,9=2,10=2,28=1/1;
 7//1,2,3,16;
 1/5=1,6=50,8=10,11=1,18=20,26=3/3(2);
 2/9=110/2;
 99//99;
 2/9=110/2;
 3/5=7,6=1,11=2,14=-2,25=1,30=1,70=2205,71=1,72=13,74=-58,82=7/1,2,3;
 4/5=5,16=3,69=1/1;
 5/5=2,38=5,53=13/2;
 7//1,2,3,16;
 1/5=1,6=50,8=10,11=1,18=20,26=3/3(-5);
 2/9=110/2;
 6/7=2,8=2,9=2,10=2,19=2,28=1/1;
 99/9=1/99;
 Structure from the checkpoint file:  "imda-1_1_opt_sqm.chk"
 -----------------------
 3a_exo_ts_26_reopt2.out
 -----------------------
 Charge =  0 Multiplicity = 1
 Redundant internal coordinates found in file.  (old form).
 C,0,-1.6790334096,-0.6070934931,3.6221654206
 C,0,2.0228106244,-1.5108596719,3.3894990686
 C,0,-0.9015462195,-1.1468305238,1.4431244975
 C,0,1.9029723364,-1.7998650748,2.0970970429
 C,0,-1.9626665164,-1.899181607,3.3445684056
 C,0,-1.4869416433,-2.2296807484,1.9994943882
 C,0,-0.2326996385,-1.0474948638,0.1044107186
 H,0,-0.1094509458,-2.0574044181,-0.3180208676
 H,0,-0.8886425601,-0.5043630186,-0.5981114603
 C,0,1.1107264095,-0.3091334587,0.1173781211
 H,0,1.5069113828,-0.1867145875,-0.9017436317
 H,0,0.9645055959,0.7168795271,0.5009074698
 C,0,2.2424139891,-0.8777914953,0.9580858429
 O,0,3.3909224636,-0.58114108,0.730445884
 H,0,1.5095989256,-2.7874794305,1.8384338038
 H,0,1.7724511288,-2.2154596027,4.1834335989
 C,0,-1.0004208531,-0.0059555994,2.4214231964
 H,0,-1.5860033284,0.8350160545,2.0054707116
 H,0,-0.0156808281,0.4134453072,2.6916737935
 Cl,0,2.5141106653,0.0484596339,3.9844181148
 C,0,-1.9428727307,0.1582469244,4.8769742419
 H,0,-0.9996101839,0.5161414192,5.3221229104
 H,0,-2.4599491691,-0.4614453193,5.6229552916
 H,0,-2.5621769366,1.049252105,4.6829941798
 H,0,-1.5672110785,-3.2148836564,1.5349807652
 H,0,-2.4586174798,-2.5992633217,4.0197184918
 Recover connectivity data from disk.

 GradGradGradGradGradGradGradGradGradGradGradGradGradGradGradGradGradGrad
 Berny optimization.
 Initialization pass.
 Force constant matrix read from checkpoint file:
 "imda-1_1_opt_sqm.chk"
                           ----------------------------
                           !    Initial Parameters    !
                           ! (Angstroms and Degrees)  !
 --------------------------                            --------------------------
 ! Name  Definition              Value          Derivative Info.                !
 --------------------------------------------------------------------------------
 ! R1    R(1,5)                  1.3517         D2E/DX2 =    0.6053             !
 ! R2    R(1,17)                 1.5045         D2E/DX2 =    0.3184             !
 ! R3    R(1,21)                 1.4933         D2E/DX2 =    0.3622             !
 ! R4    R(2,4)                  1.3297         D2E/DX2 =    0.6879             !
 ! R5    R(2,16)                 1.0906         D2E/DX2 =    0.2817             !
 ! R6    R(2,20)                 1.7398         D2E/DX2 =    0.2211             !
 ! R7    R(3,6)                  1.3509         D2E/DX2 =    0.6034             !
 ! R8    R(3,7)                  1.4998         D2E/DX2 =    0.3579             !
 ! R9    R(3,17)                 1.5061         D2E/DX2 =    0.3153             !
 ! R10   R(4,13)                 1.5043         D2E/DX2 =    0.4578             !
 ! R11   R(4,15)                 1.0941         D2E/DX2 =    0.2886             !
 ! R12   R(5,6)                  1.4645         D2E/DX2 =    0.3745             !
 ! R13   R(5,26)                 1.0917         D2E/DX2 =    0.2758             !
 ! R14   R(6,25)                 1.0922         D2E/DX2 =    0.2755             !
 ! R15   R(7,8)                  1.1016         D2E/DX2 =    0.2753             !
 ! R16   R(7,9)                  1.104          D2E/DX2 =    0.2751             !
 ! R17   R(7,10)                 1.533          D2E/DX2 =    0.3499             !
 ! R18   R(10,11)                1.1003         D2E/DX2 =    0.275              !
 ! R19   R(10,12)                1.1051         D2E/DX2 =    0.2814             !
 ! R20   R(10,13)                1.5202         D2E/DX2 =    0.3393             !
 ! R21   R(13,14)                1.2078         D2E/DX2 =    0.7981             !
 ! R22   R(17,18)                1.106          D2E/DX2 =    0.2763             !
 ! R23   R(17,19)                1.1039         D2E/DX2 =    0.2798             !
 ! R24   R(21,22)                1.1027         D2E/DX2 =    0.2707             !
 ! R25   R(21,23)                1.099          D2E/DX2 =    0.271              !
 ! R26   R(21,24)                1.1023         D2E/DX2 =    0.2705             !
 ! A1    A(5,1,17)             108.2207         D2E/DX2 =    0.0819             !
 ! A2    A(5,1,21)             128.7139         D2E/DX2 =    0.0837             !
 ! A3    A(17,1,21)            123.0615         D2E/DX2 =    0.0856             !
 ! A4    A(4,2,16)             123.1219         D2E/DX2 =    0.0881             !
 ! A5    A(4,2,20)             123.5457         D2E/DX2 =    0.1306             !
 ! A6    A(16,2,20)            113.2621         D2E/DX2 =    0.0894             !
 ! A7    A(6,3,7)              127.878          D2E/DX2 =    0.0866             !
 ! A8    A(6,3,17)             108.1335         D2E/DX2 =    0.0821             !
 ! A9    A(7,3,17)             123.9789         D2E/DX2 =    0.0911             !
 ! A10   A(2,4,13)             125.6177         D2E/DX2 =    0.1245             !
 ! A11   A(2,4,15)             117.2823         D2E/DX2 =    0.0876             !
 ! A12   A(13,4,15)            117.0933         D2E/DX2 =    0.0851             !
 ! A13   A(1,5,6)              109.6448         D2E/DX2 =    0.0752             !
 ! A14   A(1,5,26)             125.5423         D2E/DX2 =    0.07               !
 ! A15   A(6,5,26)             124.8084         D2E/DX2 =    0.0683             !
 ! A16   A(3,6,5)              109.764          D2E/DX2 =    0.075              !
 ! A17   A(3,6,25)             125.4346         D2E/DX2 =    0.069              !
 ! A18   A(5,6,25)             124.7728         D2E/DX2 =    0.0673             !
 ! A19   A(3,7,8)              109.3572         D2E/DX2 =    0.0581             !
 ! A20   A(3,7,9)              109.6102         D2E/DX2 =    0.0708             !
 ! A21   A(3,7,10)             114.5292         D2E/DX2 =    0.2839             !
 ! A22   A(8,7,9)              105.8711         D2E/DX2 =    0.0192             !
 ! A23   A(8,7,10)             110.2883         D2E/DX2 =    0.0729             !
 ! A24   A(9,7,10)             106.8045         D2E/DX2 =    0.0585             !
 ! A25   A(7,10,11)            111.1805         D2E/DX2 =    0.069              !
 ! A26   A(7,10,12)            109.5218         D2E/DX2 =    0.0551             !
 ! A27   A(7,10,13)            118.4827         D2E/DX2 =    0.2203             !
 ! A28   A(11,10,12)           105.4153         D2E/DX2 =    0.0179             !
 ! A29   A(11,10,13)           106.6075         D2E/DX2 =    0.0649             !
 ! A30   A(12,10,13)           104.7073         D2E/DX2 =    0.0527             !
 ! A31   A(4,13,10)            118.6899         D2E/DX2 =    0.2287             !
 ! A32   A(4,13,14)            120.519          D2E/DX2 =    0.1628             !
 ! A33   A(10,13,14)           120.7822         D2E/DX2 =    0.1613             !
 ! A34   A(1,17,3)             104.2021         D2E/DX2 =    0.0785             !
 ! A35   A(1,17,18)            111.4171         D2E/DX2 =    0.0298             !
 ! A36   A(1,17,19)            111.0243         D2E/DX2 =    0.0343             !
 ! A37   A(3,17,18)            111.4972         D2E/DX2 =    0.0292             !
 ! A38   A(3,17,19)            112.8448         D2E/DX2 =    0.034              !
 ! A39   A(18,17,19)           105.9916         D2E/DX2 =    0.0168             !
 ! A40   A(1,21,22)            110.758          D2E/DX2 =    0.0901             !
 ! A41   A(1,21,23)            111.3771         D2E/DX2 =    0.0971             !
 ! A42   A(1,21,24)            111.4489         D2E/DX2 =    0.091              !
 ! A43   A(22,21,23)           108.1465         D2E/DX2 =    0.0437             !
 ! A44   A(22,21,24)           106.8151         D2E/DX2 =    0.0427             !
 ! A45   A(23,21,24)           108.1127         D2E/DX2 =    0.0438             !
 ! D1    D(17,1,5,6)             0.9079         D2E/DX2 =    0.0092             !
 ! D2    D(17,1,5,26)         -179.8321         D2E/DX2 =    0.0067             !
 ! D3    D(21,1,5,6)          -178.3765         D2E/DX2 =    0.0085             !
 ! D4    D(21,1,5,26)            0.8835         D2E/DX2 =    0.0061             !
 ! D5    D(5,1,17,3)            -1.6736         D2E/DX2 =    0.0093             !
 ! D6    D(5,1,17,18)          118.6787         D2E/DX2 =    0.0135             !
 ! D7    D(5,1,17,19)         -123.43           D2E/DX2 =    0.0137             !
 ! D8    D(21,1,17,3)          177.6602         D2E/DX2 =    0.0077             !
 ! D9    D(21,1,17,18)         -61.9875         D2E/DX2 =    0.0123             !
 ! D10   D(21,1,17,19)          55.9038         D2E/DX2 =    0.0125             !
 ! D11   D(5,1,21,22)          118.7539         D2E/DX2 =    0.0115             !
 ! D12   D(5,1,21,23)           -1.6465         D2E/DX2 =    0.0116             !
 ! D13   D(5,1,21,24)         -122.4759         D2E/DX2 =    0.0113             !
 ! D14   D(17,1,21,22)         -60.4351         D2E/DX2 =    0.0118             !
 ! D15   D(17,1,21,23)         179.1646         D2E/DX2 =    0.0115             !
 ! D16   D(17,1,21,24)          58.3351         D2E/DX2 =    0.0117             !
 ! D17   D(16,2,4,13)         -179.434          D2E/DX2 =    0.0217             !
 ! D18   D(16,2,4,15)            1.5442         D2E/DX2 =    0.02               !
 ! D19   D(20,2,4,13)            3.82           D2E/DX2 =    0.0341             !
 ! D20   D(20,2,4,15)         -175.2017         D2E/DX2 =    0.0521             !
 ! D21   D(7,3,6,5)            177.4875         D2E/DX2 =    0.0087             !
 ! D22   D(7,3,6,25)            -0.6394         D2E/DX2 =    0.0067             !
 ! D23   D(17,3,6,5)            -1.4045         D2E/DX2 =    0.0099             !
 ! D24   D(17,3,6,25)         -179.5314         D2E/DX2 =    0.0071             !
 ! D25   D(6,3,7,8)            -10.6125         D2E/DX2 =    0.0188             !
 ! D26   D(6,3,7,9)            105.0377         D2E/DX2 =    0.0129             !
 ! D27   D(6,3,7,10)          -134.9661         D2E/DX2 =    0.0203             !
 ! D28   D(17,3,7,8)           168.1178         D2E/DX2 =    0.0217             !
 ! D29   D(17,3,7,9)           -76.2321         D2E/DX2 =    0.0146             !
 ! D30   D(17,3,7,10)           43.7641         D2E/DX2 =    0.0247             !
 ! D31   D(6,3,17,1)             1.8705         D2E/DX2 =    0.0094             !
 ! D32   D(6,3,17,18)         -118.428          D2E/DX2 =    0.0132             !
 ! D33   D(6,3,17,19)          122.414          D2E/DX2 =    0.0146             !
 ! D34   D(7,3,17,1)          -177.0749         D2E/DX2 =    0.0079             !
 ! D35   D(7,3,17,18)           62.6267         D2E/DX2 =    0.0118             !
 ! D36   D(7,3,17,19)          -56.5314         D2E/DX2 =    0.0127             !
 ! D37   D(2,4,13,10)         -109.9848         D2E/DX2 =    0.0259             !
 ! D38   D(2,4,13,14)           68.9408         D2E/DX2 =    0.0188             !
 ! D39   D(15,4,13,10)          69.0386         D2E/DX2 =    0.0146             !
 ! D40   D(15,4,13,14)        -112.0358         D2E/DX2 =    0.0111             !
 ! D41   D(1,5,6,3)              0.3245         D2E/DX2 =    0.0102             !
 ! D42   D(1,5,6,25)           178.4666         D2E/DX2 =    0.0074             !
 ! D43   D(26,5,6,3)          -178.9421         D2E/DX2 =    0.0073             !
 ! D44   D(26,5,6,25)           -0.8001         D2E/DX2 =    0.008              !
 ! D45   D(3,7,10,11)         -174.7489         D2E/DX2 =    0.0189             !
 ! D46   D(3,7,10,12)          -58.6554         D2E/DX2 =    0.0158             !
 ! D47   D(3,7,10,13)           61.2669         D2E/DX2 =    0.0264             !
 ! D48   D(8,7,10,11)           61.3931         D2E/DX2 =    0.0149             !
 ! D49   D(8,7,10,12)          177.4866         D2E/DX2 =    0.0185             !
 ! D50   D(8,7,10,13)          -62.5911         D2E/DX2 =    0.0183             !
 ! D51   D(9,7,10,11)          -53.2026         D2E/DX2 =    0.0162             !
 ! D52   D(9,7,10,12)           62.8909         D2E/DX2 =    0.0135             !
 ! D53   D(9,7,10,13)         -177.1868         D2E/DX2 =    0.0286             !
 ! D54   D(7,10,13,4)          -21.8783         D2E/DX2 =    0.0268             !
 ! D55   D(7,10,13,14)         159.199          D2E/DX2 =    0.029              !
 ! D56   D(11,10,13,4)        -148.0906         D2E/DX2 =    0.0159             !
 ! D57   D(11,10,13,14)         32.9867         D2E/DX2 =    0.016              !
 ! D58   D(12,10,13,4)         100.4977         D2E/DX2 =    0.0168             !
 ! D59   D(12,10,13,14)        -78.425          D2E/DX2 =    0.017              !
 --------------------------------------------------------------------------------
 Trust Radius=1.00D-01 FncErr=1.00D-07 GrdErr=1.00D-06 EigMax=2.50D+02 EigMin=1.00D-04
 Number of steps in this run=     50 maximum allowed number of steps=    156.
 Search for a saddle point of order  1.
 GradGradGradGradGradGradGradGradGradGradGradGradGradGradGradGradGradGrad

                          Input orientation:                          
 ---------------------------------------------------------------------
 Center     Atomic      Atomic             Coordinates (Angstroms)
 Number     Number       Type             X           Y           Z
 ---------------------------------------------------------------------
      1          6           0       -1.679033   -0.607093    3.622165
      2          6           0        2.022811   -1.510860    3.389499
      3          6           0       -0.901546   -1.146831    1.443124
      4          6           0        1.902972   -1.799865    2.097097
      5          6           0       -1.962667   -1.899182    3.344568
      6          6           0       -1.486942   -2.229681    1.999494
      7          6           0       -0.232700   -1.047495    0.104411
      8          1           0       -0.109451   -2.057404   -0.318021
      9          1           0       -0.888643   -0.504363   -0.598111
     10          6           0        1.110726   -0.309133    0.117378
     11          1           0        1.506911   -0.186715   -0.901744
     12          1           0        0.964506    0.716880    0.500907
     13          6           0        2.242414   -0.877791    0.958086
     14          8           0        3.390922   -0.581141    0.730446
     15          1           0        1.509599   -2.787479    1.838434
     16          1           0        1.772451   -2.215460    4.183434
     17          6           0       -1.000421   -0.005956    2.421423
     18          1           0       -1.586003    0.835016    2.005471
     19          1           0       -0.015681    0.413445    2.691674
     20         17           0        2.514111    0.048460    3.984418
     21          6           0       -1.942873    0.158247    4.876974
     22          1           0       -0.999610    0.516141    5.322123
     23          1           0       -2.459949   -0.461445    5.622955
     24          1           0       -2.562177    1.049252    4.682994
     25          1           0       -1.567211   -3.214884    1.534981
     26          1           0       -2.458617   -2.599263    4.019718
 ---------------------------------------------------------------------
                    Distance matrix (angstroms):
                    1          2          3          4          5
     1  C    0.000000
     2  C    3.817666   0.000000
     3  C    2.375715   3.531679   0.000000
     4  C    4.071769   1.329732   2.952873   0.000000
     5  C    1.351665   4.004602   2.303801   4.063153   0.000000
     6  C    2.302770   3.842809   1.350852   3.418448   1.464503
     7  C    3.828894   4.011713   1.499793   3.016282   3.770514
     8  H    4.482417   4.311723   2.134992   3.154199   4.107798
     9  H    4.294882   5.038912   2.139994   4.090915   4.317843
    10  C    4.489440   3.603168   2.551192   2.601773   4.731676
    11  H    5.549118   4.520429   3.495840   3.428143   5.744709
    12  H    4.299239   3.798262   2.800596   3.124507   4.847527
    13  C    4.748510   2.522057   3.192512   1.504256   4.941785
    14  O    5.836709   3.131560   4.387847   2.359453   6.101785
    15  H    4.254781   2.073390   2.943063   1.094089   3.887691
    16  H    3.848975   1.090630   3.975113   2.131327   3.841202
    17  C    1.504548   3.513095   1.506134   3.428264   2.315690
    18  H    2.168418   4.521306   2.170813   4.373093   3.067718
    19  H    2.161957   2.888833   2.185885   2.988895   3.092777
    20  Cl   4.259511   1.739765   4.421946   2.711416   4.923845
    21  C    1.493286   4.552488   3.818234   5.133463   2.565477
    22  H    2.147819   4.120533   4.221578   4.918299   3.266800
    23  H    2.152720   5.117102   4.513243   5.766986   2.739603
    24  H    2.156103   5.408273   4.251732   5.894225   3.293032
    25  H    3.342067   4.385338   2.174486   3.789515   2.272018
    26  H    2.175900   4.654567   3.342584   4.833113   1.091746
                    6          7          8          9         10
     6  C    0.000000
     7  C    2.561646   0.000000
     8  H    2.701488   1.101615   0.000000
     9  H    3.175254   1.103989   1.759980   0.000000
    10  C    3.738816   1.533016   2.175973   2.132491   0.000000
    11  H    4.642634   2.186215   2.540244   2.435523   1.100254
    12  H    4.115528   2.168762   3.085560   2.476577   1.105069
    13  C    4.101247   2.623690   2.924244   3.516350   1.520157
    14  O    5.302992   3.706756   3.940971   4.481700   2.376791
    15  H    3.052267   3.011642   2.793677   4.111075   3.043572
    16  H    3.923447   4.692888   4.881560   5.733450   4.539247
    17  C    2.315098   2.653817   3.536499   3.062433   3.139663
    18  H    3.066303   2.998217   3.993109   3.009799   3.485158
    19  H    3.103198   2.979157   3.895145   3.525212   2.901364
    20  Cl   5.013807   4.878580   5.461568   5.734450   4.129329
    21  C    3.766957   5.211129   5.937889   5.614892   5.674211
    22  H    4.337844   5.500694   6.263126   6.008570   5.676616
    23  H    4.147634   5.979835   6.585372   6.416581   6.563863
    24  H    4.371350   5.548535   6.377878   5.753652   6.015005
    25  H    1.092173   2.919765   2.626488   3.515318   4.198134
    26  H    2.272015   4.763647   4.962678   5.308275   5.763087
                   11         12         13         14         15
    11  H    0.000000
    12  H    1.754456   0.000000
    13  C    2.116014   2.094048   0.000000
    14  O    2.523710   2.761348   1.207846   0.000000
    15  H    3.777904   3.790334   2.226867   3.104021   0.000000
    16  H    5.481363   4.776232   3.523221   4.148924   2.428028
    17  C    4.166873   2.841093   3.662981   4.740690   3.791695
    18  H    4.365999   2.963573   4.322905   5.329257   4.767927
    19  H    3.948560   2.419152   3.125958   4.054696   3.646974
    20  Cl   4.994430   3.870776   3.176546   3.428342   3.695517
    21  C    6.738961   5.283453   5.826464   6.796305   5.461647
    22  H    6.746345   5.209814   5.612360   6.447038   5.417207
    23  H    7.640887   6.273015   6.636759   7.627822   5.957378
    24  H    7.019572   5.480676   6.377502   7.329407   6.276256
    25  H    4.955569   4.789328   4.506445   5.671593   3.121140
    26  H    6.765102   5.924239   5.868284   7.007799   4.532126
                   16         17         18         19         20
    16  H    0.000000
    17  C    3.959218   0.000000
    18  H    5.032707   1.105964   0.000000
    19  H    3.511966   1.103923   1.764797   0.000000
    20  Cl   2.390606   3.846797   4.620156   2.864306   0.000000
    21  C    4.463083   2.635320   2.971684   2.924847   4.546802
    22  H    4.054945   2.947311   3.383152   2.810325   3.788722
    23  H    4.802291   3.547887   3.940912   3.915647   5.261756
    24  H    5.449487   2.944019   2.857961   3.294579   5.220947
    25  H    4.377956   3.377018   4.077181   4.112172   5.771165
    26  H    4.251594   3.377296   4.075896   4.099763   5.633801
                   21         22         23         24         25
    21  C    0.000000
    22  H    1.102719   0.000000
    23  H    1.099033   1.782909   0.000000
    24  H    1.102296   1.770398   1.782185   0.000000
    25  H    4.763198   5.346510   5.008986   5.392847   0.000000
    26  H    2.933384   3.678411   2.672197   3.709761   2.710630
                   26
    26  H    0.000000
 Stoichiometry    C11H13ClO
 Framework group  C1[X(C11H13ClO)]
 Deg. of freedom    72
 Full point group                 C1      NOp   1
 Largest Abelian subgroup         C1      NOp   1
 Largest concise Abelian subgroup C1      NOp   1
                         Standard orientation:                         
 ---------------------------------------------------------------------
 Center     Atomic      Atomic             Coordinates (Angstroms)
 Number     Number       Type             X           Y           Z
 ---------------------------------------------------------------------
      1          6           0       -2.470017    0.291092   -0.212883
      2          6           0        0.969617    1.278382    1.117062
      3          6           0       -0.898143   -1.482740   -0.049314
      4          6           0        1.372508    0.011215    1.104680
      5          6           0       -2.667633   -0.387635    0.939192
      6          6           0       -1.701082   -1.483526    1.037005
      7          6           0        0.259205   -2.391392   -0.339616
      8          1           0        0.503060   -2.972210    0.564121
      9          1           0       -0.033724   -3.131728   -1.104394
     10          6           0        1.510140   -1.679825   -0.867796
     11          1           0        2.289847   -2.403197   -1.149488
     12          1           0        1.261706   -1.138376   -1.798543
     13          6           0        2.180577   -0.640519    0.016078
     14          8           0        3.333539   -0.328091   -0.162698
     15          1           0        1.079020   -0.616635    1.951263
     16          1           0        0.391352    1.711913    1.933845
     17          6           0       -1.339833   -0.365665   -0.957880
     18          1           0       -1.672866   -0.749767   -1.940077
     19          1           0       -0.533376    0.357248   -1.171580
     20         17           0        1.238866    2.385701   -0.197522
     21          6           0       -3.189278    1.496775   -0.721698
     22          1           0       -2.494014    2.343874   -0.844259
     23          1           0       -3.988357    1.806589   -0.033686
     24          1           0       -3.641091    1.309577   -1.709564
     25          1           0       -1.625078   -2.173652    1.880089
     26          1           0       -3.421890   -0.152788    1.692753
 ---------------------------------------------------------------------
 Rotational constants (GHZ):           0.8909703           0.5796042           0.4160088
 Basis read from chk: "imda-1_1_opt_sqm.chk" (5D, 7F)
 Pseudo-potential data read from chk file.
 There are   264 symmetry adapted cartesian basis functions of A   symmetry.
 There are   251 symmetry adapted basis functions of A   symmetry.
   251 basis functions,   428 primitive gaussians,   264 cartesian basis functions
    52 alpha electrons       52 beta electrons
       nuclear repulsion energy       873.9096719594 Hartrees.
 NAtoms=   26 NActive=   26 NUniq=   26 SFac= 1.00D+00 NAtFMM=   60 NAOKFM=F Big=F
 Integral buffers will be    131072 words long.
 Raffenetti 2 integral format.
 Two-electron integral symmetry is turned on.
 Nuclear repulsion after empirical dispersion term =      873.8891052207 Hartrees.
 ------------------------------------------------------------------------------
 Polarizable Continuum Model (PCM)
 =================================
 Model                : PCM.
 Atomic radii         : UFF (Universal Force Field).
 Polarization charges : Total charges.
 Charge compensation  : None.
 Solution method      : On-the-fly selection.
 Cavity type          : Scaled VdW (van der Waals Surface) (Alpha=1.100).
 Cavity algorithm     : GePol (No added spheres)
                        Default sphere list used, NSphG=   26.
                        Lebedev-Laikov grids with approx.  5.0 points / Ang**2.
                        Smoothing algorithm: York/Karplus (Gamma=1.0000).
                        Polarization charges: spherical gaussians, with
                                              point-specific exponents (IZeta= 3).
                        Self-potential: point-specific (ISelfS= 7).
                        Self-field    : sphere-specific E.n sum rule (ISelfD= 2).
 1st derivatives      : Analytical E(r).r(x)/FMM algorithm (CHGder, D1EAlg=3).
                        Cavity 1st derivative terms included.
 Solvent              : Toluene, Eps=   2.374100 Eps(inf)=   2.238315
 ------------------------------------------------------------------------------
 One-electron integrals computed using PRISM.
   1 Symmetry operations used in ECPInt.
 ECPInt:  NShTT=    7140 NPrTT=   26096 LenC2=    6948 LenP2D=   19128.
 LDataN:  DoStor=T MaxTD1= 4 Len=   56
 NBasis=   251 RedAO= T EigKep=  5.72D-04  NBF=   251
 NBsUse=   251 1.00D-06 EigRej= -1.00D+00 NBFU=   251
 Initial guess from the checkpoint file:  "imda-1_1_opt_sqm.chk"
 B after Tr=    -0.000000   -0.000000   -0.000000
         Rot=    1.000000   -0.000000    0.000000    0.000000 Ang=   0.00 deg.
 Requested convergence on RMS density matrix=1.00D-08 within 128 cycles.
 Requested convergence on MAX density matrix=1.00D-06.
 Requested convergence on             energy=1.00D-06.
 No special actions if energy rises.
 Inv3:  Mode=1 IEnd=    12036027.
 Iteration    1 A*A^-1 deviation from unit magnitude is 3.33D-15 for   1636.
 Iteration    1 A*A^-1 deviation from orthogonality  is 1.55D-15 for   1438    700.
 Iteration    1 A^-1*A deviation from unit magnitude is 3.33D-15 for   1636.
 Iteration    1 A^-1*A deviation from orthogonality  is 1.65D-15 for   1342    664.
 Error on total polarization charges =  0.00639
 SCF Done:  E(RwB97XD) =  -961.702744340     A.U. after    1 cycles
            NFock=  1  Conv=0.32D-08     -V/T= 2.0068

 **********************************************************************

            Population analysis using the SCF Density.

 **********************************************************************

 Orbital symmetries:
       Occupied  (A) (A) (A) (A) (A) (A) (A) (A) (A) (A) (A) (A)
                 (A) (A) (A) (A) (A) (A) (A) (A) (A) (A) (A) (A)
                 (A) (A) (A) (A) (A) (A) (A) (A) (A) (A) (A) (A)
                 (A) (A) (A) (A) (A) (A) (A) (A) (A) (A) (A) (A)
                 (A) (A) (A) (A)
       Virtual   (A) (A) (A) (A) (A) (A) (A) (A) (A) (A) (A) (A)
                 (A) (A) (A) (A) (A) (A) (A) (A) (A) (A) (A) (A)
                 (A) (A) (A) (A) (A) (A) (A) (A) (A) (A) (A) (A)
                 (A) (A) (A) (A) (A) (A) (A) (A) (A) (A) (A) (A)
                 (A) (A) (A) (A) (A) (A) (A) (A) (A) (A) (A) (A)
                 (A) (A) (A) (A) (A) (A) (A) (A) (A) (A) (A) (A)
                 (A) (A) (A) (A) (A) (A) (A) (A) (A) (A) (A) (A)
                 (A) (A) (A) (A) (A) (A) (A) (A) (A) (A) (A) (A)
                 (A) (A) (A) (A) (A) (A) (A) (A) (A) (A) (A) (A)
                 (A) (A) (A) (A) (A) (A) (A) (A) (A) (A) (A) (A)
                 (A) (A) (A) (A) (A) (A) (A) (A) (A) (A) (A) (A)
                 (A) (A) (A) (A) (A) (A) (A) (A) (A) (A) (A) (A)
                 (A) (A) (A) (A) (A) (A) (A) (A) (A) (A) (A) (A)
                 (A) (A) (A) (A) (A) (A) (A) (A) (A) (A) (A) (A)
                 (A) (A) (A) (A) (A) (A) (A) (A) (A) (A) (A) (A)
                 (A) (A) (A) (A) (A) (A) (A) (A) (A) (A) (A) (A)
                 (A) (A) (A) (A) (A) (A) (A)
 The electronic state is 1-A.
 Alpha  occ. eigenvalues -- -101.68823 -19.25579 -10.40061 -10.36762 -10.32249
 Alpha  occ. eigenvalues --  -10.31263 -10.31231 -10.30163 -10.30069 -10.30037
 Alpha  occ. eigenvalues --  -10.29680 -10.29193 -10.28998  -9.59563  -7.34929
 Alpha  occ. eigenvalues --   -7.34007  -7.33940  -1.14532  -0.97862  -0.96139
 Alpha  occ. eigenvalues --   -0.89934  -0.86032  -0.83815  -0.79546  -0.77583
 Alpha  occ. eigenvalues --   -0.72953  -0.70512  -0.62713  -0.61627  -0.60779
 Alpha  occ. eigenvalues --   -0.59581  -0.57497  -0.55506  -0.54904  -0.53428
 Alpha  occ. eigenvalues --   -0.52513  -0.49927  -0.49804  -0.48979  -0.48606
 Alpha  occ. eigenvalues --   -0.47412  -0.45853  -0.45367  -0.44676  -0.43055
 Alpha  occ. eigenvalues --   -0.42815  -0.41372  -0.40150  -0.38213  -0.34810
 Alpha  occ. eigenvalues --   -0.33880  -0.28280
 Alpha virt. eigenvalues --    0.03072   0.04864   0.07521   0.12592   0.13332
 Alpha virt. eigenvalues --    0.14522   0.15317   0.16473   0.17486   0.18563
 Alpha virt. eigenvalues --    0.19284   0.20671   0.21712   0.22254   0.22735
 Alpha virt. eigenvalues --    0.23725   0.24404   0.24820   0.26446   0.30040
 Alpha virt. eigenvalues --    0.30809   0.31233   0.33816   0.34633   0.36773
 Alpha virt. eigenvalues --    0.38932   0.40360   0.41255   0.42461   0.44745
 Alpha virt. eigenvalues --    0.47634   0.48137   0.50881   0.52202   0.52711
 Alpha virt. eigenvalues --    0.53385   0.54222   0.54901   0.55739   0.56944
 Alpha virt. eigenvalues --    0.58019   0.58529   0.60271   0.62920   0.63393
 Alpha virt. eigenvalues --    0.64914   0.66090   0.68569   0.69084   0.69812
 Alpha virt. eigenvalues --    0.70341   0.70826   0.71293   0.72452   0.73047
 Alpha virt. eigenvalues --    0.73714   0.73865   0.74729   0.75080   0.75890
 Alpha virt. eigenvalues --    0.76335   0.77105   0.77642   0.78301   0.78478
 Alpha virt. eigenvalues --    0.78705   0.79615   0.80024   0.80995   0.82426
 Alpha virt. eigenvalues --    0.83168   0.83299   0.84546   0.86831   0.87114
 Alpha virt. eigenvalues --    0.88606   0.89980   0.91070   0.91958   0.93097
 Alpha virt. eigenvalues --    0.95173   0.96928   0.98554   1.02096   1.04163
 Alpha virt. eigenvalues --    1.06512   1.08563   1.09207   1.10884   1.13629
 Alpha virt. eigenvalues --    1.14910   1.17828   1.19030   1.23653   1.24356
 Alpha virt. eigenvalues --    1.25082   1.26705   1.29914   1.33428   1.34275
 Alpha virt. eigenvalues --    1.34493   1.37577   1.41341   1.44135   1.46226
 Alpha virt. eigenvalues --    1.55281   1.58571   1.59948   1.60853   1.62052
 Alpha virt. eigenvalues --    1.62376   1.65664   1.66284   1.66684   1.69744
 Alpha virt. eigenvalues --    1.70942   1.73711   1.75448   1.77851   1.79265
 Alpha virt. eigenvalues --    1.80775   1.81385   1.82666   1.83029   1.84081
 Alpha virt. eigenvalues --    1.85171   1.85942   1.86694   1.87398   1.88349
 Alpha virt. eigenvalues --    1.89897   1.91067   1.91875   1.93980   1.94538
 Alpha virt. eigenvalues --    1.96273   1.97045   1.99844   2.01427   2.03596
 Alpha virt. eigenvalues --    2.05134   2.06509   2.07633   2.08873   2.10379
 Alpha virt. eigenvalues --    2.14444   2.15687   2.16638   2.17330   2.18817
 Alpha virt. eigenvalues --    2.21488   2.24238   2.25445   2.29187   2.30479
 Alpha virt. eigenvalues --    2.33374   2.34859   2.35757   2.36363   2.39193
 Alpha virt. eigenvalues --    2.41215   2.42970   2.44743   2.48079   2.48647
 Alpha virt. eigenvalues --    2.49548   2.53069   2.56237   2.57734   2.65114
 Alpha virt. eigenvalues --    2.66253   2.69026   2.70721   2.73329   2.74680
 Alpha virt. eigenvalues --    2.76297   2.78452   2.79029   2.79412   2.81965
 Alpha virt. eigenvalues --    2.82233   2.83742   2.87517   2.92089   2.95286
 Alpha virt. eigenvalues --    2.99497   3.01259   3.02009   3.05004   3.08633
 Alpha virt. eigenvalues --    3.11842   3.13129   3.20433   3.22177   3.25877
 Alpha virt. eigenvalues --    3.27077   3.47832   3.48526   3.70668
          Condensed to atoms (all electrons):
               1          2          3          4          5          6
     1  C    5.083057   0.003621  -0.096637  -0.001447   0.590731  -0.002390
     2  C    0.003621   4.721826  -0.007042   0.631561   0.002709  -0.002778
     3  C   -0.096637  -0.007042   5.192834  -0.004362  -0.006278   0.582017
     4  C   -0.001447   0.631561  -0.004362   5.106824  -0.001341  -0.000279
     5  C    0.590731   0.002709  -0.006278  -0.001341   4.963710   0.274224
     6  C   -0.002390  -0.002778   0.582017  -0.000279   0.274224   4.989775
     7  C    0.010444  -0.002101   0.334682   0.012436   0.009883  -0.060782
     8  H   -0.000609   0.000401  -0.014984  -0.002379   0.000682  -0.015151
     9  H    0.000454  -0.000040  -0.000871   0.000008  -0.000644   0.001574
    10  C    0.000518   0.007483  -0.048297  -0.168338  -0.000438   0.002695
    11  H   -0.000013  -0.000301   0.006371   0.011491   0.000012  -0.000152
    12  H   -0.000012  -0.000342  -0.014661   0.002588   0.000074  -0.000130
    13  C    0.000082  -0.031266  -0.007173   0.266829   0.000031   0.001166
    14  O    0.000000   0.000102  -0.000081  -0.079801  -0.000000  -0.000000
    15  H   -0.000021   0.003629   0.004325   0.370935  -0.000834   0.002549
    16  H    0.000322   0.409769  -0.000195  -0.021448   0.001187  -0.000256
    17  C    0.334814   0.000167   0.333647   0.003726  -0.092047  -0.108893
    18  H    0.003120   0.000158  -0.000978   0.000157   0.000439   0.000590
    19  H   -0.008357  -0.003036   0.001351  -0.009257   0.001204   0.003308
    20  Cl   0.000413   0.286056   0.000410  -0.086659  -0.000128   0.000073
    21  C    0.403620  -0.000133   0.009077   0.000014  -0.063965   0.010147
    22  H   -0.015841  -0.000577   0.000463   0.000060   0.001405  -0.000362
    23  H   -0.010483  -0.000004  -0.000598   0.000001  -0.012157   0.000427
    24  H   -0.015154   0.000027   0.000593  -0.000005   0.002952  -0.000545
    25  H    0.007433   0.000009  -0.065525  -0.000251  -0.053525   0.442476
    26  H   -0.064366  -0.000019   0.007757   0.000007   0.443905  -0.056670
               7          8          9         10         11         12
     1  C    0.010444  -0.000609   0.000454   0.000518  -0.000013  -0.000012
     2  C   -0.002101   0.000401  -0.000040   0.007483  -0.000301  -0.000342
     3  C    0.334682  -0.014984  -0.000871  -0.048297   0.006371  -0.014661
     4  C    0.012436  -0.002379   0.000008  -0.168338   0.011491   0.002588
     5  C    0.009883   0.000682  -0.000644  -0.000438   0.000012   0.000074
     6  C   -0.060782  -0.015151   0.001574   0.002695  -0.000152  -0.000130
     7  C    4.713114   0.380957   0.342256   0.310561  -0.009300  -0.007920
     8  H    0.380957   0.662509  -0.023335  -0.026663  -0.005007   0.006521
     9  H    0.342256  -0.023335   0.648625  -0.006908  -0.006070  -0.008157
    10  C    0.310561  -0.026663  -0.006908   5.087988   0.340676   0.350049
    11  H   -0.009300  -0.005007  -0.006070   0.340676   0.607621  -0.006168
    12  H   -0.007920   0.006521  -0.008157   0.350049  -0.006168   0.592760
    13  C   -0.036076  -0.007605   0.006601   0.296553  -0.008383  -0.003956
    14  O    0.004562   0.000175  -0.000163  -0.088273   0.007946   0.000869
    15  H    0.000369   0.000378   0.000152  -0.002392  -0.000287   0.000102
    16  H    0.000096   0.000004  -0.000003  -0.000407   0.000009   0.000027
    17  C   -0.079889   0.009897  -0.005778  -0.000420   0.000238   0.006704
    18  H    0.004200  -0.000269   0.001164  -0.002021  -0.000049   0.000667
    19  H   -0.010351  -0.000166   0.000155   0.006508  -0.000090   0.001365
    20  Cl   0.000003  -0.000003   0.000001  -0.002395  -0.000001   0.001017
    21  C   -0.000224   0.000006   0.000010  -0.000000  -0.000000   0.000011
    22  H    0.000005  -0.000001   0.000003  -0.000011   0.000000  -0.000013
    23  H    0.000007  -0.000000  -0.000000   0.000000   0.000000  -0.000000
    24  H    0.000014   0.000000  -0.000007   0.000002  -0.000000   0.000003
    25  H   -0.012043   0.004809   0.000308   0.000137  -0.000008   0.000001
    26  H   -0.000312   0.000009   0.000006   0.000006  -0.000000  -0.000000
              13         14         15         16         17         18
     1  C    0.000082   0.000000  -0.000021   0.000322   0.334814   0.003120
     2  C   -0.031266   0.000102   0.003629   0.409769   0.000167   0.000158
     3  C   -0.007173  -0.000081   0.004325  -0.000195   0.333647  -0.000978
     4  C    0.266829  -0.079801   0.370935  -0.021448   0.003726   0.000157
     5  C    0.000031  -0.000000  -0.000834   0.001187  -0.092047   0.000439
     6  C    0.001166  -0.000000   0.002549  -0.000256  -0.108893   0.000590
     7  C   -0.036076   0.004562   0.000369   0.000096  -0.079889   0.004200
     8  H   -0.007605   0.000175   0.000378   0.000004   0.009897  -0.000269
     9  H    0.006601  -0.000163   0.000152  -0.000003  -0.005778   0.001164
    10  C    0.296553  -0.088273  -0.002392  -0.000407  -0.000420  -0.002021
    11  H   -0.008383   0.007946  -0.000287   0.000009   0.000238  -0.000049
    12  H   -0.003956   0.000869   0.000102   0.000027   0.006704   0.000667
    13  C    4.767585   0.695497  -0.022794   0.006790  -0.004670   0.000274
    14  O    0.695497   7.682931   0.001156  -0.000147   0.000018  -0.000001
    15  H   -0.022794   0.001156   0.567048  -0.010835  -0.000242   0.000001
    16  H    0.006790  -0.000147  -0.010835   0.552702  -0.000206   0.000008
    17  C   -0.004670   0.000018  -0.000242  -0.000206   4.858722   0.332911
    18  H    0.000274  -0.000001   0.000001   0.000008   0.332911   0.610531
    19  H    0.000265  -0.000128   0.000032   0.000199   0.330992  -0.015154
    20  Cl   0.008922  -0.000849   0.003670  -0.037218  -0.007134   0.000017
    21  C   -0.000000  -0.000000   0.000001   0.000002  -0.066936  -0.000825
    22  H    0.000000   0.000000  -0.000000  -0.000113  -0.005790  -0.000078
    23  H   -0.000000   0.000000  -0.000000   0.000002   0.008816  -0.000241
    24  H    0.000000   0.000000  -0.000000   0.000003  -0.005737   0.001978
    25  H   -0.000007   0.000000   0.000644  -0.000006   0.014739  -0.000385
    26  H    0.000001  -0.000000  -0.000003   0.000016   0.015164  -0.000378
              19         20         21         22         23         24
     1  C   -0.008357   0.000413   0.403620  -0.015841  -0.010483  -0.015154
     2  C   -0.003036   0.286056  -0.000133  -0.000577  -0.000004   0.000027
     3  C    0.001351   0.000410   0.009077   0.000463  -0.000598   0.000593
     4  C   -0.009257  -0.086659   0.000014   0.000060   0.000001  -0.000005
     5  C    0.001204  -0.000128  -0.063965   0.001405  -0.012157   0.002952
     6  C    0.003308   0.000073   0.010147  -0.000362   0.000427  -0.000545
     7  C   -0.010351   0.000003  -0.000224   0.000005   0.000007   0.000014
     8  H   -0.000166  -0.000003   0.000006  -0.000001  -0.000000   0.000000
     9  H    0.000155   0.000001   0.000010   0.000003  -0.000000  -0.000007
    10  C    0.006508  -0.002395  -0.000000  -0.000011   0.000000   0.000002
    11  H   -0.000090  -0.000001  -0.000000   0.000000   0.000000  -0.000000
    12  H    0.001365   0.001017   0.000011  -0.000013  -0.000000   0.000003
    13  C    0.000265   0.008922  -0.000000   0.000000  -0.000000   0.000000
    14  O   -0.000128  -0.000849  -0.000000   0.000000   0.000000   0.000000
    15  H    0.000032   0.003670   0.000001  -0.000000  -0.000000  -0.000000
    16  H    0.000199  -0.037218   0.000002  -0.000113   0.000002   0.000003
    17  C    0.330992  -0.007134  -0.066936  -0.005790   0.008816  -0.005737
    18  H   -0.015154   0.000017  -0.000825  -0.000078  -0.000241   0.001978
    19  H    0.639866   0.021590  -0.000563   0.003111  -0.000239  -0.000302
    20  Cl   0.021590  16.912326  -0.000948   0.003483   0.000003  -0.000001
    21  C   -0.000563  -0.000948   4.520668   0.379810   0.386393   0.383152
    22  H    0.003111   0.003483   0.379810   0.631513  -0.019663  -0.023145
    23  H   -0.000239   0.000003   0.386393  -0.019663   0.628575  -0.020400
    24  H   -0.000302  -0.000001   0.383152  -0.023145  -0.020400   0.631595
    25  H   -0.000337   0.000001  -0.000293   0.000007   0.000006   0.000005
    26  H   -0.000374  -0.000000  -0.010761   0.000140   0.004508   0.000089
              25         26
     1  C    0.007433  -0.064366
     2  C    0.000009  -0.000019
     3  C   -0.065525   0.007757
     4  C   -0.000251   0.000007
     5  C   -0.053525   0.443905
     6  C    0.442476  -0.056670
     7  C   -0.012043  -0.000312
     8  H    0.004809   0.000009
     9  H    0.000308   0.000006
    10  C    0.000137   0.000006
    11  H   -0.000008  -0.000000
    12  H    0.000001  -0.000000
    13  C   -0.000007   0.000001
    14  O    0.000000  -0.000000
    15  H    0.000644  -0.000003
    16  H   -0.000006   0.000016
    17  C    0.014739   0.015164
    18  H   -0.000385  -0.000378
    19  H   -0.000337  -0.000374
    20  Cl   0.000001  -0.000000
    21  C   -0.000293  -0.010761
    22  H    0.000007   0.000140
    23  H    0.000006   0.004508
    24  H    0.000005   0.000089
    25  H    0.659798  -0.003589
    26  H   -0.003589   0.659306
 Mulliken charges:
               1
     1  C   -0.223299
     2  C   -0.019877
     3  C   -0.205844
     4  C   -0.031070
     5  C   -0.061788
     6  C   -0.062633
     7  C    0.095409
     8  H    0.029824
     9  H    0.050660
    10  C   -0.056611
    11  H    0.061464
    12  H    0.078602
    13  C    0.071333
    14  O   -0.223814
    15  H    0.082416
    16  H    0.099697
    17  C    0.127190
    18  H    0.064165
    19  H    0.038410
    20  Cl  -0.102649
    21  C    0.051736
    22  H    0.045593
    23  H    0.035050
    24  H    0.044883
    25  H    0.005596
    26  H    0.005559
 Sum of Mulliken charges =  -0.00000
 Mulliken charges with hydrogens summed into heavy atoms:
               1
     1  C   -0.223299
     2  C    0.079821
     3  C   -0.205844
     4  C    0.051346
     5  C   -0.056230
     6  C   -0.057037
     7  C    0.175893
    10  C    0.083455
    13  C    0.071333
    14  O   -0.223814
    17  C    0.229765
    20  Cl  -0.102649
    21  C    0.177261
 Electronic spatial extent (au):  <R**2>=           2789.2356
 Charge=             -0.0000 electrons
 Dipole moment (field-independent basis, Debye):
    X=             -3.0402    Y=             -1.3884    Z=              0.4360  Tot=              3.3705
 Quadrupole moment (field-independent basis, Debye-Ang):
   XX=            -98.8895   YY=            -81.0743   ZZ=            -77.0028
   XY=             -5.5371   XZ=              0.8249   YZ=              0.5472
 Traceless Quadrupole moment (field-independent basis, Debye-Ang):
   XX=            -13.2340   YY=              4.5813   ZZ=              8.6527
   XY=             -5.5371   XZ=              0.8249   YZ=              0.5472
 Octapole moment (field-independent basis, Debye-Ang**2):
  XXX=            -41.8865  YYY=              2.4361  ZZZ=              0.2470  XYY=             11.4797
  XXY=              9.1297  XXZ=              2.2779  XZZ=              2.3412  YZZ=              1.2530
  YYZ=             -0.0299  XYZ=              0.5172
 Hexadecapole moment (field-independent basis, Debye-Ang**3):
 XXXX=          -2238.4700 YYYY=          -1230.9013 ZZZZ=           -396.0107 XXXY=            -28.5239
 XXXZ=             -9.5406 YYYX=            -16.0866 YYYZ=             -2.0143 ZZZX=             -5.3737
 ZZZY=             -1.1566 XXYY=           -545.7799 XXZZ=           -388.4684 YYZZ=           -255.1203
 XXYZ=             -6.6359 YYXZ=             -7.7616 ZZXY=              4.2555
 N-N= 8.738891052207D+02 E-N=-4.004746417858D+03  KE= 9.552493798031D+02
   1 Symmetry operations used in ECPInt.
 ECPInt:  NShTT=    7140 NPrTT=   26096 LenC2=    6948 LenP2D=   19128.
 LDataN:  DoStor=T MaxTD1= 5 Len=  102
 D1PCM: PCM CHGder 1st derivatives, ID1Alg=3 FixD1E=F DoIter=F DoCFld=F I1PDM=0.
 Calling FoFJK, ICntrl=      2127 FMM=F ISym2X=0 I1Cent= 0 IOpClX= 0 NMat=1 NMatS=1 NMatT=0.
 ***** Axes restored to original set *****
 -------------------------------------------------------------------
 Center     Atomic                   Forces (Hartrees/Bohr)
 Number     Number              X              Y              Z
 -------------------------------------------------------------------
      1        6          -0.000125363   -0.000016306   -0.000033012
      2        6           0.000005851    0.000129427   -0.000061829
      3        6          -0.000158191   -0.000081963   -0.000118957
      4        6           0.000019623    0.000065012    0.000155131
      5        6          -0.000016171    0.000017685    0.000073580
      6        6           0.000155420   -0.000044779    0.000025196
      7        6          -0.000047841    0.000257904    0.000040369
      8        1          -0.000024818   -0.000109295   -0.000015596
      9        1           0.000094205   -0.000036421    0.000040745
     10        6           0.000205516    0.000200688   -0.000014780
     11        1          -0.000062572   -0.000032909    0.000042736
     12        1           0.000037280    0.000008698   -0.000061691
     13        6          -0.000311816   -0.000171256   -0.000203123
     14        8           0.000058334   -0.000013557    0.000044263
     15        1           0.000095875   -0.000019085   -0.000004386
     16        1          -0.000083494   -0.000068327    0.000073216
     17        6           0.000010370   -0.000101105    0.000068701
     18        1          -0.000007790   -0.000040352    0.000019001
     19        1          -0.000066283    0.000106476   -0.000114105
     20       17           0.000216116   -0.000079391    0.000013918
     21        6           0.000042556   -0.000000717    0.000012049
     22        1          -0.000010279    0.000029563    0.000014376
     23        1           0.000020714    0.000001588    0.000009820
     24        1          -0.000008657   -0.000014901   -0.000000270
     25        1          -0.000002827    0.000001463    0.000006348
     26        1          -0.000035757    0.000011859   -0.000011698
 -------------------------------------------------------------------
 Cartesian Forces:  Max     0.000311816 RMS     0.000090549

 GradGradGradGradGradGradGradGradGradGradGradGradGradGradGradGradGradGrad
 Berny optimization.
 FormGI is forming the generalized inverse of G from B-inverse, IUseBI=4.
 Internal  Forces:  Max     0.000704562 RMS     0.000123705
 Search for a saddle point.
 Step number   1 out of a maximum of   50
 All quantities printed in internal units (Hartrees-Bohrs-Radians)
 Swapping is turned off.
 Second derivative matrix not updated -- first step.
 ITU=  0
     Eigenvalues ---   -0.00111   0.00112   0.00404   0.00431   0.00986
     Eigenvalues ---    0.01209   0.01245   0.01656   0.01979   0.02357
     Eigenvalues ---    0.02433   0.02914   0.03388   0.03429   0.03523
     Eigenvalues ---    0.03774   0.04141   0.04493   0.04512   0.04559
     Eigenvalues ---    0.04921   0.05122   0.06610   0.06909   0.07103
     Eigenvalues ---    0.07669   0.08312   0.09118   0.09300   0.09734
     Eigenvalues ---    0.10539   0.10765   0.10869   0.11622   0.11725
     Eigenvalues ---    0.11855   0.12624   0.12915   0.13126   0.17109
     Eigenvalues ---    0.17211   0.19104   0.19395   0.21484   0.23087
     Eigenvalues ---    0.25410   0.25675   0.26275   0.26418   0.26441
     Eigenvalues ---    0.26513   0.26794   0.26987   0.27291   0.27346
     Eigenvalues ---    0.27971   0.28483   0.28786   0.29308   0.31631
     Eigenvalues ---    0.33231   0.35940   0.36385   0.39719   0.39940
     Eigenvalues ---    0.42554   0.46005   0.62403   0.70828   0.75302
     Eigenvalues ---    0.82232   0.83341
 Eigenvectors required to have negative eigenvalues:
                          D40       D39       D59       D58       D55
   1                   -0.33160  -0.32348   0.30492   0.29717   0.29637
                          D38       D54       D57       D37       D56
   1                   -0.29471   0.28862   0.28829  -0.28659   0.28054
 RFO step:  Lambda0=1.522012852D-06 Lambda=-1.16076210D-05.
 Linear search not attempted -- option 19 set.
 Iteration  1 RMS(Cart)=  0.01064498 RMS(Int)=  0.00006246
 Iteration  2 RMS(Cart)=  0.00007517 RMS(Int)=  0.00000173
 Iteration  3 RMS(Cart)=  0.00000000 RMS(Int)=  0.00000173
 Variable       Old X    -DE/DX   Delta X   Delta X   Delta X     New X
                                 (Linear)    (Quad)   (Total)
    R1        2.55428  -0.00003   0.00000  -0.00010  -0.00010   2.55418
    R2        2.84318   0.00005   0.00000  -0.00001  -0.00001   2.84318
    R3        2.82190   0.00002   0.00000   0.00005   0.00005   2.82195
    R4        2.51283   0.00004   0.00000   0.00022   0.00022   2.51305
    R5        2.06099   0.00012   0.00000   0.00120   0.00120   2.06219
    R6        3.28768  -0.00000   0.00000  -0.00159  -0.00159   3.28609
    R7        2.55274   0.00002   0.00000   0.00012   0.00012   2.55286
    R8        2.83420   0.00004   0.00000   0.00025   0.00025   2.83444
    R9        2.84618  -0.00001   0.00000  -0.00008  -0.00008   2.84610
   R10        2.84263   0.00007   0.00000  -0.00016  -0.00016   2.84248
   R11        2.06753  -0.00002   0.00000  -0.00045  -0.00045   2.06708
   R12        2.76751   0.00005   0.00000   0.00017   0.00016   2.76767
   R13        2.06310   0.00000   0.00000  -0.00006  -0.00006   2.06304
   R14        2.06391  -0.00000   0.00000  -0.00007  -0.00007   2.06383
   R15        2.08175   0.00010   0.00000   0.00109   0.00109   2.08284
   R16        2.08624  -0.00010   0.00000  -0.00088  -0.00088   2.08536
   R17        2.89698   0.00018   0.00000  -0.00036  -0.00036   2.89662
   R18        2.07918  -0.00007   0.00000  -0.00060  -0.00060   2.07858
   R19        2.08828  -0.00002   0.00000   0.00014   0.00014   2.08842
   R20        2.87268   0.00008   0.00000  -0.00012  -0.00012   2.87256
   R21        2.28250   0.00005   0.00000   0.00022   0.00022   2.28272
   R22        2.08997  -0.00003   0.00000   0.00032   0.00032   2.09029
   R23        2.08611  -0.00005   0.00000  -0.00029  -0.00029   2.08583
   R24        2.08384   0.00000   0.00000   0.00001   0.00001   2.08385
   R25        2.07687  -0.00000   0.00000   0.00004   0.00004   2.07691
   R26        2.08304  -0.00001   0.00000  -0.00014  -0.00014   2.08290
    A1        1.88881  -0.00000   0.00000  -0.00006  -0.00006   1.88875
    A2        2.24648  -0.00001   0.00000   0.00005   0.00005   2.24653
    A3        2.14783   0.00001   0.00000  -0.00001  -0.00001   2.14782
    A4        2.14888  -0.00005   0.00000  -0.00187  -0.00187   2.14701
    A5        2.15628   0.00007   0.00000   0.00174   0.00174   2.15802
    A6        1.97680  -0.00001   0.00000   0.00013   0.00013   1.97693
    A7        2.23189  -0.00009   0.00000  -0.00085  -0.00086   2.23104
    A8        1.88728  -0.00004   0.00000  -0.00043  -0.00043   1.88686
    A9        2.16384   0.00013   0.00000   0.00126   0.00126   2.16510
   A10        2.19244   0.00003   0.00000   0.00083   0.00083   2.19327
   A11        2.04696  -0.00001   0.00000  -0.00047  -0.00047   2.04649
   A12        2.04366  -0.00003   0.00000  -0.00034  -0.00034   2.04332
   A13        1.91366  -0.00002   0.00000  -0.00020  -0.00020   1.91346
   A14        2.19113   0.00001   0.00000   0.00026   0.00026   2.19139
   A15        2.17832   0.00001   0.00000  -0.00006  -0.00006   2.17825
   A16        1.91574   0.00003   0.00000   0.00030   0.00029   1.91604
   A17        2.18925  -0.00001   0.00000   0.00011   0.00011   2.18935
   A18        2.17770  -0.00002   0.00000  -0.00042  -0.00042   2.17728
   A19        1.90864  -0.00021   0.00000  -0.00186  -0.00186   1.90678
   A20        1.91306  -0.00021   0.00000   0.00244   0.00244   1.91550
   A21        1.99891   0.00070   0.00000   0.00009   0.00009   1.99900
   A22        1.84780   0.00009   0.00000  -0.00035  -0.00034   1.84745
   A23        1.92489  -0.00031   0.00000  -0.00077  -0.00077   1.92413
   A24        1.86409  -0.00010   0.00000   0.00051   0.00051   1.86460
   A25        1.94047  -0.00015   0.00000   0.00034   0.00034   1.94081
   A26        1.91152   0.00016   0.00000   0.00034   0.00034   1.91186
   A27        2.06791  -0.00002   0.00000  -0.00212  -0.00212   2.06580
   A28        1.83984  -0.00002   0.00000  -0.00061  -0.00061   1.83924
   A29        1.86065  -0.00001   0.00000   0.00172   0.00172   1.86238
   A30        1.82749   0.00005   0.00000   0.00044   0.00044   1.82793
   A31        2.07153   0.00041   0.00000  -0.00014  -0.00014   2.07139
   A32        2.10345  -0.00028   0.00000  -0.00033  -0.00033   2.10312
   A33        2.10805  -0.00013   0.00000   0.00045   0.00044   2.10849
   A34        1.81867   0.00003   0.00000   0.00027   0.00026   1.81893
   A35        1.94459  -0.00005   0.00000  -0.00365  -0.00366   1.94094
   A36        1.93774   0.00009   0.00000   0.00385   0.00384   1.94158
   A37        1.94599  -0.00003   0.00000  -0.00281  -0.00282   1.94317
   A38        1.96951   0.00000   0.00000   0.00301   0.00300   1.97251
   A39        1.84990  -0.00004   0.00000  -0.00068  -0.00068   1.84923
   A40        1.93309   0.00005   0.00000   0.00009   0.00009   1.93318
   A41        1.94390  -0.00000   0.00000  -0.00007  -0.00007   1.94383
   A42        1.94515  -0.00002   0.00000   0.00027   0.00027   1.94542
   A43        1.88751  -0.00002   0.00000  -0.00045  -0.00045   1.88706
   A44        1.86427  -0.00001   0.00000  -0.00017  -0.00017   1.86411
   A45        1.88692   0.00000   0.00000   0.00030   0.00030   1.88723
    D1        0.01585  -0.00001   0.00000   0.00308   0.00308   0.01892
    D2       -3.13866   0.00002   0.00000   0.00282   0.00282  -3.13584
    D3       -3.11326  -0.00001   0.00000   0.00442   0.00442  -3.10883
    D4        0.01542   0.00001   0.00000   0.00417   0.00417   0.01959
    D5       -0.02921   0.00002   0.00000  -0.00375  -0.00375  -0.03295
    D6        2.07133  -0.00002   0.00000  -0.00886  -0.00885   2.06248
    D7       -2.15426  -0.00004   0.00000  -0.00957  -0.00957  -2.16383
    D8        3.10076   0.00002   0.00000  -0.00500  -0.00500   3.09576
    D9       -1.08189  -0.00002   0.00000  -0.01011  -0.01011  -1.09199
   D10        0.97571  -0.00004   0.00000  -0.01082  -0.01083   0.96488
   D11        2.07265   0.00002   0.00000  -0.02239  -0.02239   2.05026
   D12       -0.02874   0.00001   0.00000  -0.02183  -0.02183  -0.05057
   D13       -2.13761   0.00002   0.00000  -0.02236  -0.02236  -2.15997
   D14       -1.05479   0.00002   0.00000  -0.02086  -0.02086  -1.07565
   D15        3.12701   0.00001   0.00000  -0.02031  -0.02031   3.10670
   D16        1.01814   0.00002   0.00000  -0.02084  -0.02084   0.99730
   D17       -3.13171   0.00001   0.00000  -0.00094  -0.00094  -3.13265
   D18        0.02695  -0.00010   0.00000  -0.00221  -0.00221   0.02474
   D19        0.06667  -0.00026   0.00000  -0.00098  -0.00098   0.06569
   D20       -3.05785  -0.00037   0.00000  -0.00226  -0.00226  -3.06011
   D21        3.09774   0.00005   0.00000  -0.00260  -0.00259   3.09515
   D22       -0.01116   0.00003   0.00000  -0.00204  -0.00204  -0.01320
   D23       -0.02451   0.00002   0.00000  -0.00135  -0.00135  -0.02586
   D24       -3.13341  -0.00001   0.00000  -0.00079  -0.00079  -3.13421
   D25       -0.18522   0.00015   0.00000  -0.00290  -0.00290  -0.18812
   D26        1.83325   0.00002   0.00000  -0.00299  -0.00299   1.83026
   D27       -2.35560   0.00021   0.00000  -0.00048  -0.00048  -2.35608
   D28        2.93421   0.00019   0.00000  -0.00435  -0.00435   2.92986
   D29       -1.33050   0.00006   0.00000  -0.00444  -0.00445  -1.33495
   D30        0.76383   0.00025   0.00000  -0.00193  -0.00193   0.76190
   D31        0.03265  -0.00003   0.00000   0.00305   0.00305   0.03570
   D32       -2.06696   0.00003   0.00000   0.00873   0.00873  -2.05823
   D33        2.13653   0.00010   0.00000   0.00952   0.00952   2.14605
   D34       -3.09054  -0.00005   0.00000   0.00426   0.00426  -3.08628
   D35        1.09304   0.00000   0.00000   0.00994   0.00994   1.10298
   D36       -0.98666   0.00007   0.00000   0.01073   0.01074  -0.97592
   D37       -1.91960  -0.00026   0.00000  -0.01967  -0.01967  -1.93927
   D38        1.20324  -0.00024   0.00000  -0.02117  -0.02117   1.18208
   D39        1.20495  -0.00016   0.00000  -0.01840  -0.01840   1.18655
   D40       -1.95539  -0.00013   0.00000  -0.01989  -0.01989  -1.97529
   D41        0.00566  -0.00000   0.00000  -0.00112  -0.00112   0.00454
   D42        3.11483   0.00002   0.00000  -0.00166  -0.00166   3.11317
   D43       -3.12313  -0.00003   0.00000  -0.00087  -0.00087  -3.12400
   D44       -0.01396  -0.00001   0.00000  -0.00141  -0.00141  -0.01538
   D45       -3.04994  -0.00005   0.00000  -0.00400  -0.00400  -3.05395
   D46       -1.02373  -0.00006   0.00000  -0.00434  -0.00434  -1.02806
   D47        1.06931   0.00012   0.00000  -0.00498  -0.00498   1.06433
   D48        1.07151  -0.00005   0.00000  -0.00098  -0.00098   1.07053
   D49        3.09773  -0.00006   0.00000  -0.00132  -0.00132   3.09641
   D50       -1.09242   0.00012   0.00000  -0.00197  -0.00197  -1.09439
   D51       -0.92856   0.00006   0.00000  -0.00047  -0.00047  -0.92903
   D52        1.09765   0.00004   0.00000  -0.00081  -0.00081   1.09685
   D53       -3.09249   0.00023   0.00000  -0.00146  -0.00146  -3.09395
   D54       -0.38185  -0.00025   0.00000   0.00895   0.00895  -0.37289
   D55        2.77855  -0.00027   0.00000   0.01046   0.01046   2.78901
   D56       -2.58467  -0.00002   0.00000   0.00857   0.00857  -2.57610
   D57        0.57573  -0.00004   0.00000   0.01008   0.01008   0.58580
   D58        1.75402  -0.00002   0.00000   0.00838   0.00838   1.76239
   D59       -1.36877  -0.00004   0.00000   0.00988   0.00988  -1.35889
         Item               Value     Threshold  Converged?
 Maximum Force            0.000705     0.000450     NO 
 RMS     Force            0.000124     0.000300     YES
 Maximum Displacement     0.045138     0.001800     NO 
 RMS     Displacement     0.010642     0.001200     NO 
 Predicted change in Energy=-5.068635D-06
 GradGradGradGradGradGradGradGradGradGradGradGradGradGradGradGradGradGrad

                          Input orientation:                          
 ---------------------------------------------------------------------
 Center     Atomic      Atomic             Coordinates (Angstroms)
 Number     Number       Type             X           Y           Z
 ---------------------------------------------------------------------
      1          6           0       -1.677156   -0.607338    3.620811
      2          6           0        2.022239   -1.512562    3.393458
      3          6           0       -0.901946   -1.147187    1.440763
      4          6           0        1.894734   -1.793927    2.099987
      5          6           0       -1.960287   -1.899679    3.344140
      6          6           0       -1.485184   -2.230420    1.998811
      7          6           0       -0.232064   -1.050191    0.102250
      8          1           0       -0.104310   -2.062574   -0.314390
      9          1           0       -0.887763   -0.513753   -0.604900
     10          6           0        1.109228   -0.308332    0.114036
     11          1           0        1.508118   -0.191486   -0.904342
     12          1           0        0.959572    0.720063    0.490000
     13          6           0        2.237682   -0.870105    0.963555
     14          8           0        3.386272   -0.565751    0.746113
     15          1           0        1.492628   -2.776995    1.838447
     16          1           0        1.767125   -2.220386    4.183876
     17          6           0       -1.003608   -0.005388    2.417629
     18          1           0       -1.598997    0.828683    2.001247
     19          1           0       -0.022202    0.424919    2.682183
     20         17           0        2.530817    0.037013    3.996804
     21          6           0       -1.935894    0.157236    4.877181
     22          1           0       -0.989543    0.496821    5.330068
     23          1           0       -2.468079   -0.456718    5.617290
     24          1           0       -2.538291    1.059694    4.683323
     25          1           0       -1.564021   -3.216344    1.535674
     26          1           0       -2.455170   -2.599893    4.019885
 ---------------------------------------------------------------------
                    Distance matrix (angstroms):
                    1          2          3          4          5
     1  C    0.000000
     2  C    3.815316   0.000000
     3  C    2.375919   3.535163   0.000000
     4  C    4.059469   1.329847   2.945211   0.000000
     5  C    1.351613   4.001600   2.304163   4.052195   0.000000
     6  C    2.302636   3.842184   1.350917   3.409488   1.464589
     7  C    3.829449   4.015934   1.499923   3.011207   3.770707
     8  H    4.480777   4.309625   2.134180   3.146039   4.105609
     9  H    4.299829   5.045057   2.141537   4.086263   4.320418
    10  C    4.488965   3.610868   2.551217   2.601540   4.731583
    11  H    5.549406   4.525555   3.495897   3.426847   5.744332
    12  H    4.303057   3.813652   2.802824   3.128375   4.851261
    13  C    4.738777   2.522617   3.187753   1.504174   4.934587
    14  O    5.822707   3.124976   4.382856   2.359254   6.092192
    15  H    4.234591   2.073003   2.923767   1.093853   3.867740
    16  H    3.844741   1.091265   3.974967   2.130902   3.834267
    17  C    1.504545   3.518461   1.506090   3.420549   2.315598
    18  H    2.165929   4.531338   2.168890   4.369666   3.062327
    19  H    2.164589   2.905079   2.187828   2.989460   3.098082
    20  Cl   4.273592   1.738924   4.440669   2.711984   4.934244
    21  C    1.493314   4.544940   3.818316   5.117964   2.565485
    22  H    2.147915   4.105960   4.223402   4.898979   3.260287
    23  H    2.152714   5.120858   4.513635   5.761396   2.739928
    24  H    2.156265   5.392465   4.249958   5.870986   3.299301
    25  H    3.341782   4.383549   2.174571   3.782156   2.271823
    26  H    2.175969   4.649935   3.342862   4.822578   1.091715
                    6          7          8          9         10
     6  C    0.000000
     7  C    2.561288   0.000000
     8  H    2.699238   1.102193   0.000000
     9  H    3.175401   1.103525   1.759842   0.000000
    10  C    3.738686   1.532827   2.175681   2.132379   0.000000
    11  H    4.641703   2.186055   2.539476   2.435933   1.099936
    12  H    4.118093   2.168904   3.085767   2.476642   1.105144
    13  C    4.096578   2.621818   2.922337   3.515032   1.520092
    14  O    5.298251   3.706967   3.943261   4.482780   2.377123
    15  H    3.031802   2.995129   2.774043   4.093711   3.035603
    16  H    3.918179   4.693164   4.874584   5.735277   4.544488
    17  C    2.314755   2.654783   3.536196   3.067171   3.140445
    18  H    3.061220   3.000810   3.994451   3.016619   3.491254
    19  H    3.107755   2.979269   3.895358   3.526360   2.900547
    20  Cl   5.026082   4.897252   5.471614   5.758968   4.149225
    21  C    3.766837   5.211611   5.935880   5.621568   5.672484
    22  H    4.333680   5.504280   6.260515   6.021251   5.679797
    23  H    4.147951   5.980606   6.584149   6.419993   6.565436
    24  H    4.374984   5.545857   6.375732   5.758930   6.004521
    25  H    1.092134   2.919081   2.623867   3.513315   4.198077
    26  H    2.272031   4.763575   4.959960   5.310121   5.762972
                   11         12         13         14         15
    11  H    0.000000
    12  H    1.753857   0.000000
    13  C    2.117032   2.094386   0.000000
    14  O    2.528149   2.758222   1.207962   0.000000
    15  H    3.769348   3.785746   2.226381   3.109451   0.000000
    16  H    5.483929   4.789896   3.523514   4.144595   2.426149
    17  C    4.168800   2.845366   3.656232   4.730647   3.774712
    18  H    4.374626   2.973540   4.322359   5.326604   4.752427
    19  H    3.947783   2.420052   3.120552   4.043203   3.641271
    20  Cl   5.011921   3.902953   3.179526   3.414984   3.695265
    21  C    6.738608   5.286573   5.812972   6.775979   5.440440
    22  H    6.751291   5.222560   5.599098   6.425687   5.391703
    23  H    7.642786   6.278750   6.631163   7.616671   5.945632
    24  H    7.011481   5.471229   6.353795   7.296858   6.249944
    25  H    4.953936   4.791373   4.503899   5.670490   3.102870
    26  H    6.764325   5.928124   5.861415   6.998412   4.513884
                   16         17         18         19         20
    16  H    0.000000
    17  C    3.962677   0.000000
    18  H    5.038994   1.106135   0.000000
    19  H    3.529081   1.103771   1.764364   0.000000
    20  Cl   2.390412   3.871402   4.654498   2.897690   0.000000
    21  C    4.454897   2.635337   2.972429   2.924361   4.554232
    22  H    4.036854   2.955454   3.400384   2.819967   3.792354
    23  H    4.806470   3.547704   3.934886   3.921027   5.278135
    24  H    5.435529   2.936498   2.851170   3.276920   5.216612
    25  H    4.370519   3.376706   4.071882   4.117096   5.780069
    26  H    4.242487   3.377234   4.069774   4.105882   5.640379
                   21         22         23         24         25
    21  C    0.000000
    22  H    1.102727   0.000000
    23  H    1.099054   1.782639   0.000000
    24  H    1.102222   1.770233   1.782338   0.000000
    25  H    4.762877   5.339948   5.009236   5.398277   0.000000
    26  H    2.933660   3.668008   2.673026   3.720165   2.710252
                   26
    26  H    0.000000
 Stoichiometry    C11H13ClO
 Framework group  C1[X(C11H13ClO)]
 Deg. of freedom    72
 Full point group                 C1      NOp   1
 Largest Abelian subgroup         C1      NOp   1
 Largest concise Abelian subgroup C1      NOp   1
                         Standard orientation:                         
 ---------------------------------------------------------------------
 Center     Atomic      Atomic             Coordinates (Angstroms)
 Number     Number       Type             X           Y           Z
 ---------------------------------------------------------------------
      1          6           0       -2.465960    0.305171   -0.217527
      2          6           0        0.975390    1.275231    1.113916
      3          6           0       -0.909472   -1.481655   -0.045505
      4          6           0        1.362367    0.003026    1.098494
      5          6           0       -2.669753   -0.366314    0.937650
      6          6           0       -1.712138   -1.469631    1.041030
      7          6           0        0.241976   -2.400278   -0.328468
      8          1           0        0.482257   -2.972931    0.582116
      9          1           0       -0.054061   -3.147204   -1.084928
     10          6           0        1.497456   -1.701431   -0.862268
     11          1           0        2.273851   -2.431552   -1.134286
     12          1           0        1.254006   -1.169424   -1.799842
     13          6           0        2.168752   -0.655268    0.012708
     14          8           0        3.320563   -0.341326   -0.171534
     15          1           0        1.056644   -0.623815    1.941178
     16          1           0        0.396571    1.710789    1.930075
     17          6           0       -1.343728   -0.367121   -0.960679
     18          1           0       -1.687840   -0.758514   -1.936350
     19          1           0       -0.531912    0.345087   -1.188769
     20         17           0        1.266365    2.386676   -0.191412
     21          6           0       -3.171525    1.517306   -0.730258
     22          1           0       -2.470751    2.362155   -0.835857
     23          1           0       -3.980137    1.826494   -0.053154
     24          1           0       -3.607880    1.338770   -1.726557
     25          1           0       -1.641459   -2.155232    1.888209
     26          1           0       -3.422185   -0.121725    1.689889
 ---------------------------------------------------------------------
 Rotational constants (GHZ):           0.8875658           0.5806859           0.4156813
 Basis read from rwf:  (5D, 7F)
 Pseudo-potential data read from rwf file.
 There are   264 symmetry adapted cartesian basis functions of A   symmetry.
 There are   251 symmetry adapted basis functions of A   symmetry.
   251 basis functions,   428 primitive gaussians,   264 cartesian basis functions
    52 alpha electrons       52 beta electrons
       nuclear repulsion energy       873.7761500652 Hartrees.
 NAtoms=   26 NActive=   26 NUniq=   26 SFac= 1.00D+00 NAtFMM=   60 NAOKFM=F Big=F
 Integral buffers will be    131072 words long.
 Raffenetti 2 integral format.
 Two-electron integral symmetry is turned on.
 Nuclear repulsion after empirical dispersion term =      873.7555825486 Hartrees.
 ------------------------------------------------------------------------------
 Polarizable Continuum Model (PCM)
 =================================
 Model                : PCM.
 Atomic radii         : UFF (Universal Force Field).
 Polarization charges : Total charges.
 Charge compensation  : None.
 Solution method      : On-the-fly selection.
 Cavity type          : Scaled VdW (van der Waals Surface) (Alpha=1.100).
 Cavity algorithm     : GePol (No added spheres)
                        Default sphere list used, NSphG=   26.
                        Lebedev-Laikov grids with approx.  5.0 points / Ang**2.
                        Smoothing algorithm: York/Karplus (Gamma=1.0000).
                        Polarization charges: spherical gaussians, with
                                              point-specific exponents (IZeta= 3).
                        Self-potential: point-specific (ISelfS= 7).
                        Self-field    : sphere-specific E.n sum rule (ISelfD= 2).
 1st derivatives      : Analytical E(r).r(x)/FMM algorithm (CHGder, D1EAlg=3).
                        Cavity 1st derivative terms included.
 Solvent              : Toluene, Eps=   2.374100 Eps(inf)=   2.238315
 ------------------------------------------------------------------------------
 One-electron integrals computed using PRISM.
   1 Symmetry operations used in ECPInt.
 ECPInt:  NShTT=    7140 NPrTT=   26096 LenC2=    6947 LenP2D=   19125.
 LDataN:  DoStor=T MaxTD1= 4 Len=   56
 NBasis=   251 RedAO= T EigKep=  5.72D-04  NBF=   251
 NBsUse=   251 1.00D-06 EigRej= -1.00D+00 NBFU=   251
 Initial guess from the checkpoint file:  "imda-1_1_opt_sqm.chk"
 B after Tr=     0.000000   -0.000000   -0.000000
         Rot=    0.999993    0.000990    0.000444    0.003579 Ang=   0.43 deg.
 ExpMin= 1.22D-01 ExpMax= 1.04D+04 ExpMxC= 1.57D+03 IAcc=3 IRadAn=         5 AccDes= 0.00D+00
 Harris functional with IExCor= 4639 and IRadAn=       5 diagonalized for initial guess.
 HarFok:  IExCor= 4639 AccDes= 0.00D+00 IRadAn=         5 IDoV= 1 UseB2=F ITyADJ=14
 ICtDFT=  3500011 ScaDFX=  1.000000  1.000000  1.000000  1.000000
 FoFCou: FMM=F IPFlag=           0 FMFlag=      100000 FMFlg1=           0
         NFxFlg=           0 DoJE=T BraDBF=F KetDBF=T FulRan=T
         wScrn=  0.000000 ICntrl=       500 IOpCl=  0 I1Cent=   200000004 NGrid=           0
         NMat0=    1 NMatS0=      1 NMatT0=    0 NMatD0=    1 NMtDS0=    0 NMtDT0=    0
 Petite list used in FoFCou.
 Requested convergence on RMS density matrix=1.00D-08 within 128 cycles.
 Requested convergence on MAX density matrix=1.00D-06.
 Requested convergence on             energy=1.00D-06.
 No special actions if energy rises.
 Inv3:  Mode=1 IEnd=    11988003.
 Iteration    1 A*A^-1 deviation from unit magnitude is 3.11D-15 for   1262.
 Iteration    1 A*A^-1 deviation from orthogonality  is 2.15D-15 for   1384      7.
 Iteration    1 A^-1*A deviation from unit magnitude is 3.33D-15 for     28.
 Iteration    1 A^-1*A deviation from orthogonality  is 2.42D-15 for   1340     18.
 Error on total polarization charges =  0.00630
 SCF Done:  E(RwB97XD) =  -961.702746109     A.U. after   11 cycles
            NFock= 11  Conv=0.84D-08     -V/T= 2.0068
   1 Symmetry operations used in ECPInt.
 ECPInt:  NShTT=    7140 NPrTT=   26096 LenC2=    6947 LenP2D=   19125.
 LDataN:  DoStor=T MaxTD1= 5 Len=  102
 D1PCM: PCM CHGder 1st derivatives, ID1Alg=3 FixD1E=F DoIter=F DoCFld=F I1PDM=0.
 Calling FoFJK, ICntrl=      2127 FMM=F ISym2X=0 I1Cent= 0 IOpClX= 0 NMat=1 NMatS=1 NMatT=0.
 ***** Axes restored to original set *****
 -------------------------------------------------------------------
 Center     Atomic                   Forces (Hartrees/Bohr)
 Number     Number              X              Y              Z
 -------------------------------------------------------------------
      1        6           0.000046725    0.000050816    0.000032979
      2        6          -0.000172749   -0.000361871    0.000209953
      3        6          -0.000203457   -0.000085729   -0.000073510
      4        6           0.000198150    0.000072435   -0.000118244
      5        6           0.000033506   -0.000040610   -0.000071772
      6        6           0.000020173   -0.000000337    0.000088957
      7        6           0.000109986   -0.000321367   -0.000050345
      8        1          -0.000082910    0.000230918    0.000022730
      9        1          -0.000166668    0.000128163   -0.000019399
     10        6           0.000020971    0.000147373    0.000310172
     11        1           0.000060079   -0.000084536   -0.000143680
     12        1           0.000057854   -0.000065998   -0.000047270
     13        6           0.000024649   -0.000071495    0.000152707
     14        8          -0.000033685    0.000081734   -0.000104530
     15        1          -0.000004950   -0.000087813    0.000043576
     16        1           0.000060761    0.000216450   -0.000195003
     17        6          -0.000147386    0.000107753   -0.000046371
     18        1           0.000061702   -0.000008440    0.000018404
     19        1           0.000110665   -0.000051005    0.000003615
     20       17           0.000090664    0.000138078    0.000020974
     21        6          -0.000105411   -0.000005268    0.000000810
     22        1           0.000038690    0.000053710   -0.000033189
     23        1           0.000047820    0.000002043    0.000015329
     24        1          -0.000040595   -0.000031232    0.000004499
     25        1          -0.000011526   -0.000016457   -0.000037402
     26        1          -0.000013060    0.000002686    0.000016008
 -------------------------------------------------------------------
 Cartesian Forces:  Max     0.000361871 RMS     0.000111793

 GradGradGradGradGradGradGradGradGradGradGradGradGradGradGradGradGradGrad
 Berny optimization.
 FormGI is forming the generalized inverse of G from B-inverse, IUseBI=4.
 Internal  Forces:  Max     0.000653071 RMS     0.000110991
 Search for a saddle point.
 Step number   2 out of a maximum of   50
 All quantities printed in internal units (Hartrees-Bohrs-Radians)
 Swapping is turned off.
[...]
     23          1           0       -3.961006    1.855479   -0.049551
     24          1           0       -3.635299    1.329638   -1.720811
     25          1           0       -1.651515   -2.140048    1.896608
     26          1           0       -3.423279   -0.098918    1.690884
 ---------------------------------------------------------------------
 Rotational constants (GHZ):           0.8867875           0.5793213           0.4150582

 **********************************************************************

            Population analysis using the SCF Density.

 **********************************************************************

 Orbital symmetries:
       Occupied  (A) (A) (A) (A) (A) (A) (A) (A) (A) (A) (A) (A)
                 (A) (A) (A) (A) (A) (A) (A) (A) (A) (A) (A) (A)
                 (A) (A) (A) (A) (A) (A) (A) (A) (A) (A) (A) (A)
                 (A) (A) (A) (A) (A) (A) (A) (A) (A) (A) (A) (A)
                 (A) (A) (A) (A)
       Virtual   (A) (A) (A) (A) (A) (A) (A) (A) (A) (A) (A) (A)
                 (A) (A) (A) (A) (A) (A) (A) (A) (A) (A) (A) (A)
                 (A) (A) (A) (A) (A) (A) (A) (A) (A) (A) (A) (A)
                 (A) (A) (A) (A) (A) (A) (A) (A) (A) (A) (A) (A)
                 (A) (A) (A) (A) (A) (A) (A) (A) (A) (A) (A) (A)
                 (A) (A) (A) (A) (A) (A) (A) (A) (A) (A) (A) (A)
                 (A) (A) (A) (A) (A) (A) (A) (A) (A) (A) (A) (A)
                 (A) (A) (A) (A) (A) (A) (A) (A) (A) (A) (A) (A)
                 (A) (A) (A) (A) (A) (A) (A) (A) (A) (A) (A) (A)
                 (A) (A) (A) (A) (A) (A) (A) (A) (A) (A) (A) (A)
                 (A) (A) (A) (A) (A) (A) (A) (A) (A) (A) (A) (A)
                 (A) (A) (A) (A) (A) (A) (A) (A) (A) (A) (A) (A)
                 (A) (A) (A) (A) (A) (A) (A) (A) (A) (A) (A) (A)
                 (A) (A) (A) (A) (A) (A) (A) (A) (A) (A) (A) (A)
                 (A) (A) (A) (A) (A) (A) (A) (A) (A) (A) (A) (A)
                 (A) (A) (A) (A) (A) (A) (A) (A) (A) (A) (A) (A)
                 (A) (A) (A) (A) (A) (A) (A)
 The electronic state is 1-A.
 Alpha  occ. eigenvalues -- -101.68793 -19.25544 -10.40038 -10.36777 -10.32226
 Alpha  occ. eigenvalues --  -10.31259 -10.31231 -10.30185 -10.30079 -10.30049
 Alpha  occ. eigenvalues --  -10.29685 -10.29206 -10.29009  -9.59536  -7.34903
 Alpha  occ. eigenvalues --   -7.33980  -7.33911  -1.14499  -0.97844  -0.96150
 Alpha  occ. eigenvalues --   -0.89929  -0.86025  -0.83820  -0.79555  -0.77587
 Alpha  occ. eigenvalues --   -0.72959  -0.70511  -0.62719  -0.61631  -0.60763
 Alpha  occ. eigenvalues --   -0.59595  -0.57495  -0.55478  -0.54846  -0.53431
 Alpha  occ. eigenvalues --   -0.52541  -0.49932  -0.49800  -0.48956  -0.48601
 Alpha  occ. eigenvalues --   -0.47407  -0.45887  -0.45352  -0.44687  -0.43064
 Alpha  occ. eigenvalues --   -0.42831  -0.41365  -0.40119  -0.38208  -0.34790
 Alpha  occ. eigenvalues --   -0.33873  -0.28291
 Alpha virt. eigenvalues --    0.02933   0.04843   0.07721   0.12607   0.13317
 Alpha virt. eigenvalues --    0.14514   0.15302   0.16455   0.17483   0.18562
 Alpha virt. eigenvalues --    0.19278   0.20641   0.21724   0.22245   0.22714
 Alpha virt. eigenvalues --    0.23747   0.24439   0.24793   0.26455   0.30016
 Alpha virt. eigenvalues --    0.30787   0.31242   0.33810   0.34659   0.36754
 Alpha virt. eigenvalues --    0.38918   0.40361   0.41234   0.42464   0.44769
 Alpha virt. eigenvalues --    0.47613   0.48135   0.50883   0.52178   0.52720
 Alpha virt. eigenvalues --    0.53419   0.54229   0.54925   0.55709   0.56899
 Alpha virt. eigenvalues --    0.58010   0.58532   0.60398   0.62884   0.63485
 Alpha virt. eigenvalues --    0.64850   0.66081   0.68556   0.69053   0.69816
 Alpha virt. eigenvalues --    0.70315   0.70826   0.71230   0.72450   0.73096
 Alpha virt. eigenvalues --    0.73720   0.73897   0.74715   0.75002   0.75888
 Alpha virt. eigenvalues --    0.76328   0.77147   0.77616   0.78329   0.78471
 Alpha virt. eigenvalues --    0.78689   0.79578   0.80028   0.80954   0.82459
 Alpha virt. eigenvalues --    0.83147   0.83340   0.84588   0.86759   0.87079
 Alpha virt. eigenvalues --    0.88572   0.89875   0.91022   0.91879   0.93076
 Alpha virt. eigenvalues --    0.95071   0.97068   0.98639   1.01992   1.04171
 Alpha virt. eigenvalues --    1.06596   1.08204   1.09321   1.10870   1.13705
 Alpha virt. eigenvalues --    1.14768   1.17534   1.18943   1.23662   1.24355
 Alpha virt. eigenvalues --    1.25036   1.26660   1.29887   1.33402   1.34370
 Alpha virt. eigenvalues --    1.34412   1.37717   1.41349   1.43959   1.46067
 Alpha virt. eigenvalues --    1.55223   1.58547   1.59911   1.60849   1.62046
 Alpha virt. eigenvalues --    1.62376   1.65663   1.66111   1.66662   1.69625
 Alpha virt. eigenvalues --    1.70847   1.73597   1.75475   1.77805   1.79287
 Alpha virt. eigenvalues --    1.80789   1.81432   1.82711   1.83049   1.84091
 Alpha virt. eigenvalues --    1.85130   1.85879   1.86650   1.87508   1.88328
 Alpha virt. eigenvalues --    1.89920   1.91040   1.91938   1.94060   1.94483
 Alpha virt. eigenvalues --    1.96324   1.97100   1.99813   2.01381   2.03647
 Alpha virt. eigenvalues --    2.05162   2.06443   2.07714   2.08849   2.10328
 Alpha virt. eigenvalues --    2.14459   2.15606   2.16626   2.17278   2.18749
 Alpha virt. eigenvalues --    2.21562   2.24217   2.25388   2.29172   2.30506
 Alpha virt. eigenvalues --    2.33344   2.34821   2.35790   2.36344   2.39058
 Alpha virt. eigenvalues --    2.41302   2.42957   2.44757   2.48092   2.48564
 Alpha virt. eigenvalues --    2.49450   2.53022   2.56219   2.57714   2.65204
 Alpha virt. eigenvalues --    2.66242   2.68959   2.70763   2.73321   2.74615
 Alpha virt. eigenvalues --    2.76429   2.78439   2.79048   2.79369   2.81910
 Alpha virt. eigenvalues --    2.82214   2.83688   2.87520   2.92062   2.95178
 Alpha virt. eigenvalues --    2.99503   3.01182   3.02049   3.05196   3.08603
 Alpha virt. eigenvalues --    3.11772   3.13242   3.20367   3.21988   3.25884
 Alpha virt. eigenvalues --    3.27062   3.47910   3.48603   3.70741
          Condensed to atoms (all electrons):
               1          2          3          4          5          6
     1  C    5.082948   0.003631  -0.096519  -0.001394   0.590526  -0.002191
     2  C    0.003631   4.721001  -0.006998   0.630797   0.002701  -0.002713
     3  C   -0.096519  -0.006998   5.193493  -0.004919  -0.006467   0.582256
     4  C   -0.001394   0.630797  -0.004919   5.105647  -0.001382  -0.000414
     5  C    0.590526   0.002701  -0.006467  -0.001382   4.963738   0.274173
     6  C   -0.002191  -0.002713   0.582256  -0.000414   0.274173   4.989816
     7  C    0.010391  -0.001946   0.335329   0.013095   0.009893  -0.060838
     8  H   -0.000614   0.000403  -0.015030  -0.002267   0.000691  -0.015231
     9  H    0.000461  -0.000039  -0.000993   0.000002  -0.000653   0.001651
    10  C    0.000509   0.007615  -0.048563  -0.168736  -0.000433   0.002691
    11  H   -0.000012  -0.000303   0.006405   0.011262   0.000012  -0.000149
    12  H   -0.000015  -0.000360  -0.014635   0.002925   0.000074  -0.000151
    13  C    0.000079  -0.031428  -0.006815   0.269339   0.000025   0.001191
    14  O    0.000001   0.000258  -0.000080  -0.080291  -0.000000  -0.000000
    15  H   -0.000017   0.003514   0.004515   0.370439  -0.000882   0.002622
    16  H    0.000306   0.409477  -0.000199  -0.021253   0.001190  -0.000243
    17  C    0.334757  -0.000075   0.333511   0.003589  -0.091787  -0.109232
    18  H    0.003077   0.000154  -0.000983   0.000157   0.000360   0.000607
    19  H   -0.008196  -0.002566   0.001251  -0.009082   0.001287   0.003295
    20  Cl   0.000390   0.286293   0.000374  -0.086072  -0.000122   0.000070
    21  C    0.403554  -0.000141   0.009070   0.000020  -0.063934   0.010144
    22  H   -0.015865  -0.000550   0.000475   0.000053   0.001563  -0.000371
    23  H   -0.010488  -0.000004  -0.000598   0.000001  -0.012165   0.000429
    24  H   -0.015137   0.000026   0.000581  -0.000005   0.002810  -0.000537
    25  H    0.007432   0.000008  -0.065523  -0.000267  -0.053482   0.442425
    26  H   -0.064380  -0.000019   0.007764   0.000006   0.443962  -0.056680
               7          8          9         10         11         12
     1  C    0.010391  -0.000614   0.000461   0.000509  -0.000012  -0.000015
     2  C   -0.001946   0.000403  -0.000039   0.007615  -0.000303  -0.000360
     3  C    0.335329  -0.015030  -0.000993  -0.048563   0.006405  -0.014635
     4  C    0.013095  -0.002267   0.000002  -0.168736   0.011262   0.002925
     5  C    0.009893   0.000691  -0.000653  -0.000433   0.000012   0.000074
     6  C   -0.060838  -0.015231   0.001651   0.002691  -0.000149  -0.000151
     7  C    4.713796   0.380502   0.341889   0.308194  -0.009192  -0.007488
     8  H    0.380502   0.662646  -0.023273  -0.025914  -0.005169   0.006490
     9  H    0.341889  -0.023273   0.648876  -0.006561  -0.005946  -0.008270
    10  C    0.308194  -0.025914  -0.006561   5.091582   0.340898   0.350446
    11  H   -0.009192  -0.005169  -0.005946   0.340898   0.606627  -0.006044
    12  H   -0.007488   0.006490  -0.008270   0.350446  -0.006044   0.592410
    13  C   -0.035943  -0.007865   0.006606   0.295136  -0.008042  -0.004559
    14  O    0.004653   0.000157  -0.000163  -0.088144   0.007677   0.000909
    15  H    0.000333   0.000407   0.000160  -0.002662  -0.000285   0.000101
    16  H    0.000096   0.000004  -0.000003  -0.000400   0.000009   0.000024
    17  C   -0.079838   0.009921  -0.005797  -0.000302   0.000228   0.006703
    18  H    0.004150  -0.000269   0.001157  -0.001972  -0.000048   0.000643
    19  H   -0.010291  -0.000162   0.000149   0.006376  -0.000087   0.001233
    20  Cl   0.000014  -0.000003   0.000001  -0.002292  -0.000003   0.000860
    21  C   -0.000224   0.000006   0.000010   0.000000  -0.000000   0.000011
    22  H    0.000005  -0.000001   0.000003  -0.000011   0.000000  -0.000012
    23  H    0.000007  -0.000000  -0.000000   0.000000   0.000000  -0.000000
    24  H    0.000014   0.000000  -0.000007   0.000002  -0.000000   0.000003
    25  H   -0.012041   0.004818   0.000307   0.000141  -0.000008   0.000001
    26  H   -0.000312   0.000009   0.000006   0.000006  -0.000000  -0.000000
              13         14         15         16         17         18
     1  C    0.000079   0.000001  -0.000017   0.000306   0.334757   0.003077
     2  C   -0.031428   0.000258   0.003514   0.409477  -0.000075   0.000154
     3  C   -0.006815  -0.000080   0.004515  -0.000199   0.333511  -0.000983
     4  C    0.269339  -0.080291   0.370439  -0.021253   0.003589   0.000157
     5  C    0.000025  -0.000000  -0.000882   0.001190  -0.091787   0.000360
     6  C    0.001191  -0.000000   0.002622  -0.000243  -0.109232   0.000607
     7  C   -0.035943   0.004653   0.000333   0.000096  -0.079838   0.004150
     8  H   -0.007865   0.000157   0.000407   0.000004   0.009921  -0.000269
     9  H    0.006606  -0.000163   0.000160  -0.000003  -0.005797   0.001157
    10  C    0.295136  -0.088144  -0.002662  -0.000400  -0.000302  -0.001972
    11  H   -0.008042   0.007677  -0.000285   0.000009   0.000228  -0.000048
    12  H   -0.004559   0.000909   0.000101   0.000024   0.006703   0.000643
    13  C    4.767545   0.695078  -0.022600   0.006804  -0.004661   0.000267
    14  O    0.695078   7.684140   0.001254  -0.000144   0.000017  -0.000001
    15  H   -0.022600   0.001254   0.568519  -0.010879  -0.000279   0.000001
    16  H    0.006804  -0.000144  -0.010879   0.552850  -0.000185   0.000008
    17  C   -0.004661   0.000017  -0.000279  -0.000185   4.857607   0.333009
    18  H    0.000267  -0.000001   0.000001   0.000008   0.333009   0.610564
    19  H    0.000323  -0.000131   0.000043   0.000181   0.331306  -0.015227
    20  Cl   0.008424  -0.000851   0.003677  -0.037237  -0.006504   0.000014
    21  C   -0.000001  -0.000000   0.000001  -0.000001  -0.066862  -0.000773
    22  H    0.000001   0.000000   0.000000  -0.000105  -0.005865  -0.000082
    23  H   -0.000000   0.000000  -0.000000   0.000002   0.008810  -0.000240
    24  H    0.000000   0.000000  -0.000000   0.000002  -0.005646   0.001956
    25  H   -0.000008   0.000000   0.000672  -0.000006   0.014733  -0.000386
    26  H    0.000001  -0.000000  -0.000003   0.000016   0.015157  -0.000379
              19         20         21         22         23         24
     1  C   -0.008196   0.000390   0.403554  -0.015865  -0.010488  -0.015137
     2  C   -0.002566   0.286293  -0.000141  -0.000550  -0.000004   0.000026
     3  C    0.001251   0.000374   0.009070   0.000475  -0.000598   0.000581
     4  C   -0.009082  -0.086072   0.000020   0.000053   0.000001  -0.000005
     5  C    0.001287  -0.000122  -0.063934   0.001563  -0.012165   0.002810
     6  C    0.003295   0.000070   0.010144  -0.000371   0.000429  -0.000537
     7  C   -0.010291   0.000014  -0.000224   0.000005   0.000007   0.000014
     8  H   -0.000162  -0.000003   0.000006  -0.000001  -0.000000   0.000000
     9  H    0.000149   0.000001   0.000010   0.000003  -0.000000  -0.000007
    10  C    0.006376  -0.002292   0.000000  -0.000011   0.000000   0.000002
    11  H   -0.000087  -0.000003  -0.000000   0.000000   0.000000  -0.000000
    12  H    0.001233   0.000860   0.000011  -0.000012  -0.000000   0.000003
    13  C    0.000323   0.008424  -0.000001   0.000001  -0.000000   0.000000
    14  O   -0.000131  -0.000851  -0.000000   0.000000   0.000000   0.000000
    15  H    0.000043   0.003677   0.000001   0.000000  -0.000000  -0.000000
    16  H    0.000181  -0.037237  -0.000001  -0.000105   0.000002   0.000002
    17  C    0.331306  -0.006504  -0.066862  -0.005865   0.008810  -0.005646
    18  H   -0.015227   0.000014  -0.000773  -0.000082  -0.000240   0.001956
    19  H    0.639776   0.020346  -0.000666   0.003124  -0.000241  -0.000294
    20  Cl   0.020346  16.912691  -0.000888   0.003276   0.000003  -0.000001
    21  C   -0.000666  -0.000888   4.520546   0.380050   0.386430   0.383118
    22  H    0.003124   0.003276   0.380050   0.631315  -0.019740  -0.023135
    23  H   -0.000241   0.000003   0.386430  -0.019740   0.628546  -0.020324
    24  H   -0.000294  -0.000001   0.383118  -0.023135  -0.020324   0.631364
    25  H   -0.000337   0.000001  -0.000293   0.000007   0.000006   0.000005
    26  H   -0.000373  -0.000000  -0.010758   0.000136   0.004509   0.000093
              25         26
     1  C    0.007432  -0.064380
     2  C    0.000008  -0.000019
     3  C   -0.065523   0.007764
     4  C   -0.000267   0.000006
     5  C   -0.053482   0.443962
     6  C    0.442425  -0.056680
     7  C   -0.012041  -0.000312
     8  H    0.004818   0.000009
     9  H    0.000307   0.000006
    10  C    0.000141   0.000006
    11  H   -0.000008  -0.000000
    12  H    0.000001  -0.000000
    13  C   -0.000008   0.000001
    14  O    0.000000  -0.000000
    15  H    0.000672  -0.000003
    16  H   -0.000006   0.000016
    17  C    0.014733   0.015157
    18  H   -0.000386  -0.000379
    19  H   -0.000337  -0.000373
    20  Cl   0.000001  -0.000000
    21  C   -0.000293  -0.010758
    22  H    0.000007   0.000136
    23  H    0.000006   0.004509
    24  H    0.000005   0.000093
    25  H    0.659667  -0.003587
    26  H   -0.003587   0.659187
 Mulliken charges:
               1
     1  C   -0.223233
     2  C   -0.018735
     3  C   -0.206704
     4  C   -0.031253
     5  C   -0.061699
     6  C   -0.062620
     7  C    0.095753
     8  H    0.029743
     9  H    0.050428
    10  C   -0.057605
    11  H    0.062170
    12  H    0.078701
    13  C    0.071102
    14  O   -0.224340
    15  H    0.081350
    16  H    0.099684
    17  C    0.127690
    18  H    0.064235
    19  H    0.038962
    20  Cl  -0.102461
    21  C    0.051581
    22  H    0.045730
    23  H    0.035057
    24  H    0.045112
    25  H    0.005715
    26  H    0.005638
 Sum of Mulliken charges =  -0.00000
 Mulliken charges with hydrogens summed into heavy atoms:
               1
     1  C   -0.223233
     2  C    0.080948
     3  C   -0.206704
     4  C    0.050097
     5  C   -0.056061
     6  C   -0.056905
     7  C    0.175924
    10  C    0.083266
    13  C    0.071102
    14  O   -0.224340
    17  C    0.230886
    20  Cl  -0.102461
    21  C    0.177479
 Electronic spatial extent (au):  <R**2>=           2794.6165
 Charge=              0.0000 electrons
 Dipole moment (field-independent basis, Debye):
    X=             -3.0669    Y=             -1.3971    Z=              0.4624  Tot=              3.4017
 Quadrupole moment (field-independent basis, Debye-Ang):
   XX=            -98.8830   YY=            -80.9233   ZZ=            -77.0210
   XY=             -5.4572   XZ=              0.9947   YZ=              0.5644
 Traceless Quadrupole moment (field-independent basis, Debye-Ang):
   XX=            -13.2739   YY=              4.6858   ZZ=              8.5881
   XY=             -5.4572   XZ=              0.9947   YZ=              0.5644
 Octapole moment (field-independent basis, Debye-Ang**2):
  XXX=            -40.8368  YYY=              2.0405  ZZZ=              0.2125  XYY=             11.4345
  XXY=              9.4901  XXZ=              2.6586  XZZ=              2.1628  YZZ=              1.2930
  YYZ=             -0.1832  XYZ=              0.4111
 Hexadecapole moment (field-independent basis, Debye-Ang**3):
 XXXX=          -2235.0446 YYYY=          -1237.2434 ZZZZ=           -396.6019 XXXY=            -27.5320
 XXXZ=             -7.6547 YYYX=            -15.8060 YYYZ=             -1.4938 ZZZX=             -5.8381
 ZZZY=             -0.8741 XXYY=           -546.2809 XXZZ=           -388.5552 YYZZ=           -256.5547
 XXYZ=             -6.4932 YYXZ=             -7.6896 ZZXY=              4.6628
 N-N= 8.733664526557D+02 E-N=-4.003712942468D+03  KE= 9.552501140352D+02
 Unable to Open any file for archive entry.
 1\1\GINC-NODE-003\FTS\RwB97XD\Gen\C11H13Cl1O1\JP2658\22-Dec-2023\0\\# 
 wb97xd chkbasis guess=read geom=allchk scrf=(iefpcm,solvent=toluene) o
 pt=(readfc,ts,noeigen,maxcycles=50,maxstep=10)\\3a_exo_ts_26_reopt2.ou
 t\\0,1\C,-1.6782731621,-0.605495831,3.6217524636\C,2.0298089781,-1.522
 3442567,3.3917237197\C,-0.9028534476,-1.1467846852,1.4421390212\C,1.89
 95023599,-1.797497392,2.0970462783\C,-1.9604449964,-1.8983012534,3.346
 0775219\C,-1.4852537371,-2.229968853,2.0010074351\C,-0.2339328467,-1.0
 49137487,0.1032768541\H,-0.1103710215,-2.0603359354,-0.3164446967\H,-0
 .8899512919,-0.5084776945,-0.6008319871\C,1.1092414456,-0.3103214431,0
 .1134474941\H,1.5085399941,-0.2006428369,-0.9058985387\H,0.962011833,0
 .7207129292,0.4825369651\C,2.2386370011,-0.8669034842,0.9656485965\O,3
 .3848943452,-0.5501960254,0.753271025\H,1.4942641382,-2.7784959154,1.8
 322159702\H,1.7748709848,-2.2328426338,4.1791868578\C,-1.0021350284,-0
 .0049267433,2.4192536531\H,-1.59094082,0.8336985334,2.0031447472\H,-0.
 0177389688,0.4179531328,2.6857405053\Cl,2.5423581704,0.0236344853,4.00
 14954818\C,-1.9433221792,0.1613750828,4.8753998864\H,-1.0016752619,0.5
 294579632,5.315561128\H,-2.4515144091,-0.4607334036,5.6254580549\H,-2.
 5718631133,1.0459079787,4.6813977417\H,-1.5642309091,-3.2160310695,1.5
 380886556\H,-2.4557280575,-2.5979031621,4.0222051659\\Version=ES64L-G1
 6RevC.01\State=1-A\HF=-961.7027581\RMSD=3.880e-09\RMSF=5.243e-06\Dipol
 e=-1.2886785,-0.3604926,0.0211116\Quadrupole=-10.2761274,5.8450716,4.4
 310558,-2.6527155,2.3593334,-0.1778879\PG=C01 [X(C11H13Cl1O1)]\\@
 The archive entry for this job was punched.


 NOTHING PUZZLES ME MORE THAN TIME AND SPACE; AND YET NOTHING TROUBLES ME LESS
                                                          -- CHARLES LAMB (1810)
 Job cpu time:       0 days  1 hours  3 minutes  9.0 seconds.
 Elapsed time:       0 days  0 hours  5 minutes 22.4 seconds.
 File lengths (MBytes):  RWF=    112 Int=      0 D2E=      0 Chk=     12 Scr=      1
 Normal termination of Gaussian 16 at Fri Dec 22 23:47:35 2023.
