Unloading slurm/anatra/current
  ERROR: No such file or directory on
    '/cm/local/modulefiles/slurm/anatra/current'
environment: line 0: unalias: gv: not found
environment: line 0: unalias: sl: not found
 Entering Gaussian System, Link 0=g16
 Initial command:
 /apps/gaussian/g16/C.01/g16/l1.exe "/local/jobs/1153184/Gau-1741383.inp" -scrdir="/local/jobs/1153184/"
 Entering Link 1 = /apps/gaussian/g16/C.01/g16/l1.exe PID=   1741385.
  
 Copyright (c) 1988-2019, Gaussian, Inc.  All Rights Reserved.
  
 This is part of the Gaussian(R) 16 program.  It is based on
 the Gaussian(R) 09 system (copyright 2009, Gaussian, Inc.),
 the Gaussian(R) 03 system (copyright 2003, Gaussian, Inc.),
 the Gaussian(R) 98 system (copyright 1998, Gaussian, Inc.),
 the Gaussian(R) 94 system (copyright 1995, Gaussian, Inc.),
 the Gaussian 92(TM) system (copyright 1992, Gaussian, Inc.),
 the Gaussian 90(TM) system (copyright 1990, Gaussian, Inc.),
 the Gaussian 88(TM) system (copyright 1988, Gaussian, Inc.),
 the Gaussian 86(TM) system (copyright 1986, Carnegie Mellon
 University), and the Gaussian 82(TM) system (copyright 1983,
 Carnegie Mellon University). Gaussian is a federally registered
 trademark of Gaussian, Inc.
  
 This software contains proprietary and confidential information,
 including trade secrets, belonging to Gaussian, Inc.
  
 This software is provided under written license and may be
 used, copied, transmitted, or stored only in accord with that
 written license.
  
 The following legend is applicable only to US Government
 contracts under FAR:
  
                    RESTRICTED RIGHTS LEGEND
  
 Use, reproduction and disclosure by the US Government is
 subject to restrictions as set forth in subparagraphs (a)
 and (c) of the Commercial Computer Software - Restricted
 Rights clause in FAR 52.227-19.
  
 Gaussian, Inc.
 340 Quinnipiac St., Bldg. 40, Wallingford CT 06492
  
  
 ---------------------------------------------------------------
 Warning -- This program may not be used in any manner that
 competes with the business of Gaussian, Inc. or will provide
 assistance to any competitor of Gaussian, Inc.  The licensee
 of this program is prohibited from giving any competitor of
 Gaussian, Inc. access to this program.  By using this program,
 the user acknowledges that Gaussian, Inc. is engaged in the
 business of creating and licensing software in the field of
 computational chemistry and represents and warrants to the
 licensee that it is not a competitor of Gaussian, Inc. and that
 it will not use this program in any manner prohibited above.
 ---------------------------------------------------------------
  

 Cite this work as:
 Gaussian 16, Revision C.01,
 M. J. Frisch, G. W. Trucks, H. B. Schlegel, G. E. Scuseria, 
 M. A. Robb, J. R. Cheeseman, G. Scalmani, V. Barone, 
 G. A. Petersson, H. Nakatsuji, X. Li, M. Caricato, A. V. Marenich, 
 J. Bloino, B. G. Janesko, R. Gomperts, B. Mennucci, H. P. Hratchian, 
 J. V. Ortiz, A. F. Izmaylov, J. L. Sonnenberg, D. Williams-Young, 
 F. Ding, F. Lipparini, F. Egidi, J. Goings, B. Peng, A. Petrone, 
 T. Henderson, D. Ranasinghe, V. G. Zakrzewski, J. Gao, N. Rega, 
 G. Zheng, W. Liang, M. Hada, M. Ehara, K. Toyota, R. Fukuda, 
 J. Hasegawa, M. Ishida, T. Nakajima, Y. Honda, O. Kitao, H. Nakai, 
 T. Vreven, K. Throssell, J. A. Montgomery, Jr., J. E. Peralta, 
 F. Ogliaro, M. J. Bearpark, J. J. Heyd, E. N. Brothers, K. N. Kudin, 
 V. N. Staroverov, T. A. Keith, R. Kobayashi, J. Normand, 
 K. Raghavachari, A. P. Rendell, J. C. Burant, S. S. Iyengar, 
 J. Tomasi, M. Cossi, J. M. Millam, M. Klene, C. Adamo, R. Cammi, 
 J. W. Ochterski, R. L. Martin, K. Morokuma, O. Farkas, 
 J. B. Foresman, and D. J. Fox, Gaussian, Inc., Wallingford CT, 2019.
 
 ******************************************
 Gaussian 16:  ES64L-G16RevC.01  3-Jul-2019
                30-Dec-2023 
 ******************************************
 %chk=TS-898_opt_dft_freq.chk
 %nprocshared=12
 Will use up to   12 processors via shared memory.
 %mem=48GB
 -----------------------------------------------------------
 # wb97xd def2svp scrf=(iefpcm,solvent=toluene) freq=noraman
 -----------------------------------------------------------
 1/10=4,30=1,38=1/1,3;
 2/12=2,17=6,18=5,40=1/2;
 3/5=43,7=101,11=2,25=1,30=1,70=2201,71=2,72=13,74=-58,140=1/1,2,3;
 4//1;
 5/5=2,38=5,53=13,98=1/2;
 8/6=4,10=90,11=11/1;
 11/6=1,8=1,9=11,15=111,16=1/1,2,10;
 10/6=1/2;
 6/7=2,8=2,9=2,10=2,28=1/1;
 7/8=1,10=1,25=1/1,2,3,16;
 1/10=4,30=1/3;
 99//99;
 ------------------
 TS-898_opt_dft.out
 ------------------
 Symbolic Z-matrix:
 Charge =  0 Multiplicity = 1
 C                    -0.58903  -0.47534  -0.15237 
 C                    -1.83161   0.04224   0.36718 
 O                    -1.95838   0.88158   1.26642 
 C                     0.65098  -0.02294   0.35309 
 C                     0.68377   2.14246  -1.28324 
 H                     1.01281   2.5502   -2.24798 
 H                    -0.36655   1.8218   -1.35232 
 H                     0.77029   2.91491  -0.51048 
 N                     1.47467   0.9759   -0.9001 
 H                     1.58535   0.32743  -1.68164 
 H                     2.41502   1.21777  -0.58095 
 Cl                    1.99879  -1.30286   0.42962 
 C                     0.76342   0.83871   1.58403 
 H                     0.12792   1.72559   1.49122 
 H                     0.38293   0.2762    2.44631 
 H                     1.81139   1.11113   1.77246 
 C                    -0.61068  -1.43944  -1.32096 
 H                     0.39359  -1.83419  -1.53 
 H                    -1.24674  -2.31937  -1.13207 
 H                    -0.98429  -0.98051  -2.25551 
 C                    -3.10757  -0.51545  -0.26397 
 H                    -3.18752  -1.60285  -0.10923 
 H                    -3.96807  -0.0218    0.20449 
 H                    -3.13678  -0.34294  -1.35107 
 

 GradGradGradGradGradGradGradGradGradGradGradGradGradGradGradGradGradGrad
 Berny optimization.
 Initialization pass.
 Trust Radius=3.00D-01 FncErr=1.00D-07 GrdErr=1.00D-07 EigMax=2.50D+02 EigMin=1.00D-04
 Number of steps in this run=      2 maximum allowed number of steps=      2.
 GradGradGradGradGradGradGradGradGradGradGradGradGradGradGradGradGradGrad

                          Input orientation:                          
 ---------------------------------------------------------------------
 Center     Atomic      Atomic             Coordinates (Angstroms)
 Number     Number       Type             X           Y           Z
 ---------------------------------------------------------------------
      1          6           0       -0.589030   -0.475340   -0.152370
      2          6           0       -1.831610    0.042240    0.367180
      3          8           0       -1.958380    0.881580    1.266420
      4          6           0        0.650980   -0.022940    0.353090
      5          6           0        0.683770    2.142460   -1.283240
      6          1           0        1.012810    2.550200   -2.247980
      7          1           0       -0.366550    1.821800   -1.352320
      8          1           0        0.770290    2.914910   -0.510480
      9          7           0        1.474670    0.975900   -0.900100
     10          1           0        1.585350    0.327430   -1.681640
     11          1           0        2.415020    1.217770   -0.580950
     12         17           0        1.998790   -1.302860    0.429620
     13          6           0        0.763420    0.838710    1.584030
     14          1           0        0.127920    1.725590    1.491220
     15          1           0        0.382930    0.276200    2.446310
     16          1           0        1.811390    1.111130    1.772460
     17          6           0       -0.610680   -1.439440   -1.320960
     18          1           0        0.393590   -1.834190   -1.530000
     19          1           0       -1.246740   -2.319370   -1.132070
     20          1           0       -0.984290   -0.980510   -2.255510
     21          6           0       -3.107570   -0.515450   -0.263970
     22          1           0       -3.187520   -1.602850   -0.109230
     23          1           0       -3.968070   -0.021800    0.204490
     24          1           0       -3.136780   -0.342940   -1.351070
 ---------------------------------------------------------------------
                    Distance matrix (angstroms):
                    1          2          3          4          5
     1  C    0.000000
     2  C    1.442854   0.000000
     3  O    2.393599   1.236606   0.000000
     4  C    1.413429   2.483485   2.908795   0.000000
     5  C    3.122781   3.669053   3.882208   2.714334   0.000000
     6  H    4.013896   4.606479   4.895229   3.676620   1.097835
     7  H    2.601198   2.875746   3.205579   2.710508   1.100349
     8  H    3.670121   3.973966   3.838938   3.064466   1.096049
     9  N    2.631360   3.661858   4.060608   1.801841   1.460541
    10  H    2.776875   3.994323   4.642861   2.266260   2.065406
    11  H    3.474855   4.507182   4.759457   2.350240   2.084584
    12  Cl   2.778545   4.060192   4.596869   1.860281   4.066128
    13  C    2.563383   2.974772   2.740604   1.506750   3.150769
    14  H    2.838926   2.817249   2.261755   2.150881   2.860136
    15  H    2.874484   3.046589   2.690791   2.131409   4.181265
    16  H    3.461773   4.048307   3.810503   2.155754   3.416500
    17  C    1.515111   2.556533   3.727997   2.529961   3.808810
    18  H    2.170226   3.474449   4.552706   2.625434   3.994852
    19  H    2.189256   2.857801   4.062667   3.328758   4.863913
    20  H    2.198778   2.939808   4.101246   3.224258   3.671604
    21  C    2.521330   1.528870   2.369478   3.840576   4.741061
    22  H    2.832894   2.184440   3.094445   4.176594   5.512942
    23  H    3.427967   2.143602   2.445945   4.621440   5.342001
    24  H    2.818766   2.191852   3.120790   4.165776   4.558335
                    6          7          8          9         10
     6  H    0.000000
     7  H    1.798724   0.000000
     8  H    1.791853   1.787733   0.000000
     9  N    2.123327   2.076088   2.099456   0.000000
    10  H    2.364159   2.480223   2.954825   1.021552   0.000000
    11  H    2.553537   2.949067   2.364400   1.022065   1.640907
    12  Cl   4.794556   4.305072   4.492503   2.689908   2.699296
    13  C    4.204247   3.296278   2.949174   2.587586   3.406109
    14  H    3.929965   2.887815   2.415352   2.845028   3.761116
    15  H    5.253968   4.168955   3.981890   3.588863   4.299815
    16  H    4.344259   3.874626   3.090198   2.697081   3.549097
    17  C    4.405941   3.270515   4.639431   3.218645   2.841561
    18  H    4.485733   3.738402   4.871886   3.076055   2.473032
    19  H    5.483022   4.239402   5.643799   4.280034   3.915139
    20  H    4.056400   3.008371   4.614973   3.422157   2.939912
    21  C    5.505637   3.763035   5.183236   4.860629   4.974307
    22  H    6.282105   4.607751   6.019586   5.386227   5.383191
    23  H    6.118738   4.335143   5.620276   5.642601   5.875366
    24  H    5.137490   3.515718   5.156101   4.817487   4.780919
                   11         12         13         14         15
    11  H    0.000000
    12  Cl   2.747376   0.000000
    13  C    2.749292   2.728575   0.000000
    14  H    3.127714   3.714655   1.095002   0.000000
    15  H    3.765667   3.028444   1.097596   1.754411   0.000000
    16  H    2.431929   2.768697   1.099072   1.814036   1.786527
    17  C    4.094294   3.145237   3.939173   4.297825   4.257112
    18  H    3.781711   2.588260   4.120480   4.676578   4.501655
    19  H    5.120896   3.742410   4.625085   5.013287   4.711434
    20  H    4.380855   4.026487   4.594140   4.753733   5.055267
    21  C    5.796855   5.213060   4.498157   4.309449   4.489534
    22  H    6.290220   5.222850   4.943508   4.963073   4.775953
    23  H    6.549602   6.106981   5.003060   4.635319   4.903648
    24  H    5.818194   5.519636   5.022218   4.797468   5.214575
                   16         17         18         19         20
    16  H    0.000000
    17  C    4.684130   0.000000
    18  H    4.646645   1.099129   0.000000
    19  H    5.436615   1.102057   1.756255   0.000000
    20  H    5.330603   1.106158   1.775862   1.767355   0.000000
    21  C    5.566774   2.864515   3.949687   2.733206   2.948021
    22  H    5.991289   2.852209   3.859593   2.307863   3.138160
    23  H    6.094606   3.950793   5.031629   3.804058   3.984177
    24  H    6.029523   2.753979   3.836581   2.743445   2.420273
                   21         22         23         24
    21  C    0.000000
    22  H    1.101261   0.000000
    23  H    1.097089   1.790921   0.000000
    24  H    1.101090   1.769778   1.792747   0.000000
 Stoichiometry    C7H14ClNO
 Framework group  C1[X(C7H14ClNO)]
 Deg. of freedom    66
 Full point group                 C1      NOp   1
 Largest Abelian subgroup         C1      NOp   1
 Largest concise Abelian subgroup C1      NOp   1
                         Standard orientation:                         
 ---------------------------------------------------------------------
 Center     Atomic      Atomic             Coordinates (Angstroms)
 Number     Number       Type             X           Y           Z
 ---------------------------------------------------------------------
      1          6           0        0.589032   -0.475341    0.152370
      2          6           0        1.831611    0.042240   -0.367180
      3          8           0        1.958381    0.881580   -1.266420
      4          6           0       -0.650979   -0.022942   -0.353090
      5          6           0       -0.683771    2.142458    1.283240
      6          1           0       -1.012811    2.550198    2.247980
      7          1           0        0.366550    1.821799    1.352320
      8          1           0       -0.770291    2.914908    0.510480
      9          7           0       -1.474670    0.975897    0.900100
     10          1           0       -1.585349    0.327427    1.681640
     11          1           0       -2.415020    1.217766    0.580950
     12         17           0       -1.998788   -1.302863   -0.429620
     13          6           0       -0.763419    0.838708   -1.584030
     14          1           0       -0.127920    1.725588   -1.491220
     15          1           0       -0.382929    0.276198   -2.446310
     16          1           0       -1.811390    1.111127   -1.772460
     17          6           0        0.610682   -1.439441    1.320960
     18          1           0       -0.393587   -1.834192    1.530000
     19          1           0        1.246743   -2.319370    1.132070
     20          1           0        0.984292   -0.980511    2.255510
     21          6           0        3.107572   -0.515449    0.263970
     22          1           0        3.187523   -1.602849    0.109230
     23          1           0        3.968071   -0.021798   -0.204490
     24          1           0        3.136782   -0.342939    1.351070
 ---------------------------------------------------------------------
 Rotational constants (GHZ):           1.3850659           0.8171702           0.7405903
 Standard basis: def2SVP (5D, 7F)
 There are   224 symmetry adapted cartesian basis functions of A   symmetry.
 There are   214 symmetry adapted basis functions of A   symmetry.
   214 basis functions,   360 primitive gaussians,   224 cartesian basis functions
    44 alpha electrons       44 beta electrons
       nuclear repulsion energy       670.6709572993 Hartrees.
 NAtoms=   24 NActive=   24 NUniq=   24 SFac= 1.00D+00 NAtFMM=   60 NAOKFM=F Big=F
 Integral buffers will be    131072 words long.
 Raffenetti 2 integral format.
 Two-electron integral symmetry is turned on.
 Nuclear repulsion after empirical dispersion term =      670.6531035817 Hartrees.
 Force inversion solution in PCM.
 ------------------------------------------------------------------------------
 Polarizable Continuum Model (PCM)
 =================================
 Model                : PCM.
 Atomic radii         : UFF (Universal Force Field).
 Polarization charges : Total charges.
 Charge compensation  : None.
 Solution method      : Matrix inversion.
 Cavity type          : Scaled VdW (van der Waals Surface) (Alpha=1.100).
 Cavity algorithm     : GePol (No added spheres)
                        Default sphere list used, NSphG=   24.
                        Lebedev-Laikov grids with approx.  5.0 points / Ang**2.
                        Smoothing algorithm: York/Karplus (Gamma=1.0000).
                        Polarization charges: spherical gaussians, with
                                              point-specific exponents (IZeta= 3).
                        Self-potential: point-specific (ISelfS= 7).
                        Self-field    : sphere-specific E.n sum rule (ISelfD= 2).
 1st derivatives      : Analytical E(r).r(x)/FMM algorithm (CHGder, D1EAlg=3).
                        Cavity 1st derivative terms included.
 2nd derivatives      : Analytical E(r).r(xy)/FMM algorithm (CHGder, D2EAlg=3).
                        Cavity 2nd derivative terms included.
 Solvent              : Toluene, Eps=   2.374100 Eps(inf)=   2.238315
 ------------------------------------------------------------------------------
 One-electron integrals computed using PRISM.
   1 Symmetry operations used in ECPInt.
 ECPInt:  NShTT=    5460 NPrTT=   19488 LenC2=    5396 LenP2D=   15064.
 LDataN:  DoStor=T MaxTD1= 4 Len=   56
 NBasis=   214 RedAO= T EigKep=  1.01D-03  NBF=   214
 NBsUse=   214 1.00D-06 EigRej= -1.00D+00 NBFU=   214
 ExpMin= 1.22D-01 ExpMax= 1.04D+04 ExpMxC= 1.57D+03 IAcc=3 IRadAn=         5 AccDes= 0.00D+00
 Harris functional with IExCor= 4639 and IRadAn=       5 diagonalized for initial guess.
 HarFok:  IExCor= 4639 AccDes= 0.00D+00 IRadAn=         5 IDoV= 1 UseB2=F ITyADJ=14
 ICtDFT=  3500011 ScaDFX=  1.000000  1.000000  1.000000  1.000000
 FoFCou: FMM=F IPFlag=           0 FMFlag=      100000 FMFlg1=           0
         NFxFlg=           0 DoJE=T BraDBF=F KetDBF=T FulRan=T
         wScrn=  0.000000 ICntrl=       500 IOpCl=  0 I1Cent=   200000004 NGrid=           0
         NMat0=    1 NMatS0=      1 NMatT0=    0 NMatD0=    1 NMtDS0=    0 NMtDT0=    0
 Petite list used in FoFCou.
 Requested convergence on RMS density matrix=1.00D-08 within 128 cycles.
 Requested convergence on MAX density matrix=1.00D-06.
 Requested convergence on             energy=1.00D-06.
 No special actions if energy rises.
 Inv3:  Mode=1 IEnd=     8548032.
 Iteration    1 A*A^-1 deviation from unit magnitude is 3.33D-15 for    751.
 Iteration    1 A*A^-1 deviation from orthogonality  is 1.88D-15 for   1145    844.
 Iteration    1 A^-1*A deviation from unit magnitude is 3.11D-15 for    751.
 Iteration    1 A^-1*A deviation from orthogonality  is 2.11D-15 for   1280    588.
 Error on total polarization charges =  0.00583
 SCF Done:  E(RwB97XD) =  -864.737843918     A.U. after   14 cycles
            NFock= 14  Conv=0.99D-08     -V/T= 2.0064
 DoSCS=F DFT=T ScalE2(SS,OS)=  1.000000  1.000000
 Range of M.O.s used for correlation:     1   214
 NBasis=   214 NAE=    44 NBE=    44 NFC=     0 NFV=     0
 NROrb=    214 NOA=    44 NOB=    44 NVA=   170 NVB=   170
   1 Symmetry operations used in ECPInt.
 ECPInt:  NShTT=    5460 NPrTT=   19488 LenC2=    5396 LenP2D=   15064.
 LDataN:  DoStor=T MaxTD1= 5 Len=  102
 Symmetrizing basis deriv contribution to polar:
 IMax=3 JMax=2 DiffMx= 0.00D+00
 G2DrvN: will do    25 centers at a time, making    1 passes.
 Calling FoFCou, ICntrl=  3107 FMM=F I1Cent=   0 AccDes= 0.00D+00.
 NEqPCM:  Using equilibrium solvation (IEInf=0, Eps=   2.3741, EpsInf=   2.2383)
 G2PCM: DoFxE=T DoFxN=T DoGrad=T DoDP/DQ/DG/TGxP=FFFF NFrqRd=   0 IEInf=0 SqF1=F DoCFld=F IF1Alg=4.
 End of G2Drv F.D. properties file   721 does not exist.
 End of G2Drv F.D. properties file   722 does not exist.
 End of G2Drv F.D. properties file   788 does not exist.
          IDoAtm=111111111111111111111111
 NEqPCM:  Using equilibrium solvation (IEInf=0, Eps=   2.3741, EpsInf=   2.2383)
          Differentiating once with respect to electric field.
                with respect to dipole field.
          Differentiating once with respect to nuclear coordinates.
 Keep R1 ints in memory in canonical form, NReq=546878450.
          There are    75 degrees of freedom in the 1st order CPHF.  IDoFFX=6 NUNeed=     3.
     72 vectors produced by pass  0 Test12= 9.97D-15 1.33D-09 XBig12= 5.63D+01 4.68D+00.
 AX will form    72 AO Fock derivatives at one time.
     72 vectors produced by pass  1 Test12= 9.97D-15 1.33D-09 XBig12= 3.73D+00 3.06D-01.
     72 vectors produced by pass  2 Test12= 9.97D-15 1.33D-09 XBig12= 1.16D-01 4.18D-02.
     72 vectors produced by pass  3 Test12= 9.97D-15 1.33D-09 XBig12= 1.01D-03 4.15D-03.
     72 vectors produced by pass  4 Test12= 9.97D-15 1.33D-09 XBig12= 6.83D-06 2.87D-04.
     72 vectors produced by pass  5 Test12= 9.97D-15 1.33D-09 XBig12= 3.75D-08 2.15D-05.
     53 vectors produced by pass  6 Test12= 9.97D-15 1.33D-09 XBig12= 1.75D-10 1.32D-06.
     12 vectors produced by pass  7 Test12= 9.97D-15 1.33D-09 XBig12= 6.93D-13 7.61D-08.
      3 vectors produced by pass  8 Test12= 9.97D-15 1.33D-09 XBig12= 2.85D-15 4.74D-09.
 InvSVY:  IOpt=1 It=  1 EMax= 6.22D-15
 Solved reduced A of dimension   500 with    75 vectors.
 Isotropic polarizability for W=    0.000000      115.19 Bohr**3.
 End of Minotr F.D. properties file   721 does not exist.
 End of Minotr F.D. properties file   722 does not exist.
 End of Minotr F.D. properties file   788 does not exist.

 **********************************************************************

            Population analysis using the SCF Density.

 **********************************************************************

 Orbital symmetries:
       Occupied  (A) (A) (A) (A) (A) (A) (A) (A) (A) (A) (A) (A)
                 (A) (A) (A) (A) (A) (A) (A) (A) (A) (A) (A) (A)
                 (A) (A) (A) (A) (A) (A) (A) (A) (A) (A) (A) (A)
                 (A) (A) (A) (A) (A) (A) (A) (A)
       Virtual   (A) (A) (A) (A) (A) (A) (A) (A) (A) (A) (A) (A)
                 (A) (A) (A) (A) (A) (A) (A) (A) (A) (A) (A) (A)
                 (A) (A) (A) (A) (A) (A) (A) (A) (A) (A) (A) (A)
                 (A) (A) (A) (A) (A) (A) (A) (A) (A) (A) (A) (A)
                 (A) (A) (A) (A) (A) (A) (A) (A) (A) (A) (A) (A)
                 (A) (A) (A) (A) (A) (A) (A) (A) (A) (A) (A) (A)
                 (A) (A) (A) (A) (A) (A) (A) (A) (A) (A) (A) (A)
                 (A) (A) (A) (A) (A) (A) (A) (A) (A) (A) (A) (A)
                 (A) (A) (A) (A) (A) (A) (A) (A) (A) (A) (A) (A)
                 (A) (A) (A) (A) (A) (A) (A) (A) (A) (A) (A) (A)
                 (A) (A) (A) (A) (A) (A) (A) (A) (A) (A) (A) (A)
                 (A) (A) (A) (A) (A) (A) (A) (A) (A) (A) (A) (A)
                 (A) (A) (A) (A) (A) (A) (A) (A) (A) (A) (A) (A)
                 (A) (A) (A) (A) (A) (A) (A) (A) (A) (A) (A) (A)
                 (A) (A)
 The electronic state is 1-A.
 Alpha  occ. eigenvalues -- -101.66008 -19.18329 -14.53295 -10.40654 -10.35277
 Alpha  occ. eigenvalues --  -10.34213 -10.29622 -10.28403 -10.27306 -10.25549
 Alpha  occ. eigenvalues --   -9.56778  -7.32096  -7.31232  -7.31200  -1.07208
 Alpha  occ. eigenvalues --   -1.06384  -0.94769  -0.86176  -0.83061  -0.80246
 Alpha  occ. eigenvalues --   -0.78769  -0.73327  -0.67036  -0.65297  -0.60128
 Alpha  occ. eigenvalues --   -0.58360  -0.56003  -0.53705  -0.51968  -0.50907
 Alpha  occ. eigenvalues --   -0.49767  -0.49438  -0.47963  -0.46956  -0.46330
 Alpha  occ. eigenvalues --   -0.44967  -0.44101  -0.44047  -0.42679  -0.40557
 Alpha  occ. eigenvalues --   -0.38426  -0.37841  -0.28807  -0.25256
 Alpha virt. eigenvalues --    0.08288   0.08753   0.11083   0.14211   0.15418
 Alpha virt. eigenvalues --    0.16556   0.17186   0.19226   0.19766   0.20876
 Alpha virt. eigenvalues --    0.21499   0.22706   0.22946   0.24416   0.24953
 Alpha virt. eigenvalues --    0.25225   0.26993   0.28822   0.31108   0.31893
 Alpha virt. eigenvalues --    0.35491   0.37953   0.40832   0.46043   0.46440
 Alpha virt. eigenvalues --    0.48990   0.50540   0.50949   0.53232   0.53788
 Alpha virt. eigenvalues --    0.56648   0.57281   0.59136   0.60968   0.61517
 Alpha virt. eigenvalues --    0.63596   0.66737   0.68618   0.69395   0.71012
 Alpha virt. eigenvalues --    0.72546   0.72765   0.73262   0.73587   0.73874
 Alpha virt. eigenvalues --    0.74641   0.74983   0.75401   0.75878   0.77184
 Alpha virt. eigenvalues --    0.77316   0.77999   0.78747   0.79441   0.80099
 Alpha virt. eigenvalues --    0.81317   0.81625   0.83761   0.84152   0.85307
 Alpha virt. eigenvalues --    0.85595   0.86894   0.89581   0.91547   0.93145
 Alpha virt. eigenvalues --    0.93921   0.95033   0.96687   1.01588   1.03740
 Alpha virt. eigenvalues --    1.04861   1.08382   1.10880   1.13208   1.16700
 Alpha virt. eigenvalues --    1.18848   1.20403   1.25531   1.26004   1.27020
 Alpha virt. eigenvalues --    1.32467   1.35626   1.38187   1.41421   1.42614
 Alpha virt. eigenvalues --    1.43104   1.46311   1.46607   1.54660   1.56766
 Alpha virt. eigenvalues --    1.58533   1.61031   1.62212   1.63869   1.66692
 Alpha virt. eigenvalues --    1.67839   1.69133   1.72530   1.72842   1.77245
 Alpha virt. eigenvalues --    1.78790   1.82345   1.83636   1.84366   1.85091
 Alpha virt. eigenvalues --    1.86673   1.87588   1.89114   1.89812   1.91304
 Alpha virt. eigenvalues --    1.92289   1.92513   1.94163   1.95038   1.96611
 Alpha virt. eigenvalues --    1.99863   2.00733   2.03823   2.05964   2.06580
 Alpha virt. eigenvalues --    2.08304   2.09257   2.11997   2.13593   2.14831
 Alpha virt. eigenvalues --    2.18616   2.20156   2.21866   2.23095   2.30268
 Alpha virt. eigenvalues --    2.31720   2.35811   2.40369   2.40654   2.45560
 Alpha virt. eigenvalues --    2.45653   2.46763   2.50139   2.52337   2.55624
 Alpha virt. eigenvalues --    2.57638   2.58104   2.59100   2.65180   2.66877
 Alpha virt. eigenvalues --    2.69833   2.72769   2.75034   2.80142   2.81535
 Alpha virt. eigenvalues --    2.82649   2.84869   2.86573   2.91948   2.93890
 Alpha virt. eigenvalues --    3.00905   3.02350   3.02555   3.03358   3.05197
 Alpha virt. eigenvalues --    3.05561   3.06760   3.09737   3.12056   3.20316
 Alpha virt. eigenvalues --    3.24212   3.27616   3.47912   3.53587   3.76277
          Condensed to atoms (all electrons):
               1          2          3          4          5          6
     1  C    5.854268   0.222948  -0.123406   0.391001  -0.011289  -0.000784
     2  C    0.222948   4.721905   0.705920  -0.048126  -0.000323  -0.000025
     3  O   -0.123406   0.705920   7.829317  -0.019412   0.000110   0.000012
     4  C    0.391001  -0.048126  -0.019412   5.328217  -0.029601   0.003315
     5  C   -0.011289  -0.000323   0.000110  -0.029601   4.528236   0.403868
     6  H   -0.000784  -0.000025   0.000012   0.003315   0.403868   0.583801
     7  H    0.021693   0.006539   0.000466  -0.005188   0.402535  -0.018764
     8  H   -0.001229  -0.000256  -0.000371  -0.002361   0.406022  -0.019212
     9  N   -0.112462  -0.002236   0.000170   0.101715   0.311941  -0.015818
    10  H   -0.005572   0.000059  -0.000024  -0.004755  -0.016304  -0.009023
    11  H    0.008566  -0.000002  -0.000007  -0.006599  -0.016389  -0.002974
    12  Cl  -0.079871  -0.001155  -0.000008   0.259719   0.002924  -0.000164
    13  C   -0.054257   0.001218  -0.004334   0.375038   0.000481  -0.000076
    14  H   -0.027725   0.003576   0.026572   0.012423   0.003338   0.000025
    15  H   -0.011753   0.000179   0.003200  -0.003205  -0.000132   0.000007
    16  H    0.011723   0.001208   0.001861  -0.031720  -0.001397  -0.000020
    17  C    0.328090  -0.009425   0.004042  -0.069870  -0.000586   0.000096
    18  H   -0.023752   0.007747  -0.000073  -0.017140  -0.000079  -0.000012
    19  H   -0.001144  -0.018797   0.000006   0.005731  -0.000052  -0.000002
    20  H   -0.023835  -0.012463   0.000042   0.000126   0.000970   0.000038
    21  C   -0.196867   0.425959  -0.087753   0.007549  -0.000095  -0.000000
    22  H    0.000917  -0.007600   0.001901   0.000643  -0.000002   0.000000
    23  H    0.018867  -0.014934   0.013048  -0.000242  -0.000003   0.000000
    24  H   -0.006077   0.002488   0.002431  -0.000292   0.000141  -0.000001
               7          8          9         10         11         12
     1  C    0.021693  -0.001229  -0.112462  -0.005572   0.008566  -0.079871
     2  C    0.006539  -0.000256  -0.002236   0.000059  -0.000002  -0.001155
     3  O    0.000466  -0.000371   0.000170  -0.000024  -0.000007  -0.000008
     4  C   -0.005188  -0.002361   0.101715  -0.004755  -0.006599   0.259719
     5  C    0.402535   0.406022   0.311941  -0.016304  -0.016389   0.002924
     6  H   -0.018764  -0.019212  -0.015818  -0.009023  -0.002974  -0.000164
     7  H    0.545222  -0.014946  -0.028502  -0.001912   0.006373   0.000391
     8  H   -0.014946   0.567765  -0.020960   0.005693  -0.008204   0.000020
     9  N   -0.028502  -0.020960   6.368438   0.338082   0.333017  -0.084335
    10  H   -0.001912   0.005693   0.338082   0.508938  -0.013062   0.009004
    11  H    0.006373  -0.008204   0.333017  -0.013062   0.514568   0.011189
    12  Cl   0.000391   0.000020  -0.084335   0.009004   0.011189  17.088724
    13  C   -0.002663   0.006042  -0.045280   0.004666  -0.004280  -0.062002
    14  H    0.000068   0.001879  -0.000254  -0.000131  -0.000646   0.002920
    15  H    0.000013  -0.000177   0.003599  -0.000232  -0.000095   0.002505
    16  H   -0.000021  -0.000117  -0.002428  -0.000051   0.004441   0.001377
    17  C   -0.002573   0.000065   0.003071   0.004791  -0.000488  -0.015582
    18  H    0.000025  -0.000015  -0.002697   0.004107  -0.000083   0.021666
    19  H    0.000130   0.000002  -0.000315  -0.000124   0.000017   0.001313
    20  H   -0.000666  -0.000009   0.002863  -0.000165  -0.000119   0.000010
    21  C    0.000130  -0.000036  -0.000100  -0.000027   0.000009  -0.000112
    22  H    0.000034   0.000001  -0.000010   0.000002   0.000000   0.000013
    23  H   -0.000058   0.000001   0.000004   0.000000  -0.000000   0.000002
    24  H   -0.000469   0.000007   0.000042  -0.000004  -0.000001  -0.000001
              13         14         15         16         17         18
     1  C   -0.054257  -0.027725  -0.011753   0.011723   0.328090  -0.023752
     2  C    0.001218   0.003576   0.000179   0.001208  -0.009425   0.007747
     3  O   -0.004334   0.026572   0.003200   0.001861   0.004042  -0.000073
     4  C    0.375038   0.012423  -0.003205  -0.031720  -0.069870  -0.017140
     5  C    0.000481   0.003338  -0.000132  -0.001397  -0.000586  -0.000079
     6  H   -0.000076   0.000025   0.000007  -0.000020   0.000096  -0.000012
     7  H   -0.002663   0.000068   0.000013  -0.000021  -0.002573   0.000025
     8  H    0.006042   0.001879  -0.000177  -0.000117   0.000065  -0.000015
     9  N   -0.045280  -0.000254   0.003599  -0.002428   0.003071  -0.002697
    10  H    0.004666  -0.000131  -0.000232  -0.000051   0.004791   0.004107
    11  H   -0.004280  -0.000646  -0.000095   0.004441  -0.000488  -0.000083
    12  Cl  -0.062002   0.002920   0.002505   0.001377  -0.015582   0.021666
    13  C    4.554037   0.362362   0.391274   0.368318   0.006868   0.001208
    14  H    0.362362   0.575898  -0.010846  -0.017798  -0.000124  -0.000106
    15  H    0.391274  -0.010846   0.573238  -0.020232   0.000023  -0.000014
    16  H    0.368318  -0.017798  -0.020232   0.660423  -0.000257  -0.000025
    17  C    0.006868  -0.000124   0.000023  -0.000257   4.564901   0.383415
    18  H    0.001208  -0.000106  -0.000014  -0.000025   0.383415   0.651773
    19  H   -0.000249  -0.000017   0.000033  -0.000001   0.372904  -0.017006
    20  H   -0.000227   0.000046  -0.000013   0.000013   0.385796  -0.027072
    21  C    0.000425   0.001122   0.000020   0.000063   0.010205  -0.000333
    22  H   -0.000051  -0.000019  -0.000021  -0.000003  -0.001011   0.000156
    23  H   -0.000058  -0.000024   0.000007  -0.000003  -0.000481  -0.000016
    24  H    0.000041  -0.000083   0.000002  -0.000002   0.006537   0.000311
              19         20         21         22         23         24
     1  C   -0.001144  -0.023835  -0.196867   0.000917   0.018867  -0.006077
     2  C   -0.018797  -0.012463   0.425959  -0.007600  -0.014934   0.002488
     3  O    0.000006   0.000042  -0.087753   0.001901   0.013048   0.002431
     4  C    0.005731   0.000126   0.007549   0.000643  -0.000242  -0.000292
     5  C   -0.000052   0.000970  -0.000095  -0.000002  -0.000003   0.000141
     6  H   -0.000002   0.000038  -0.000000   0.000000   0.000000  -0.000001
     7  H    0.000130  -0.000666   0.000130   0.000034  -0.000058  -0.000469
     8  H    0.000002  -0.000009  -0.000036   0.000001   0.000001   0.000007
     9  N   -0.000315   0.002863  -0.000100  -0.000010   0.000004   0.000042
    10  H   -0.000124  -0.000165  -0.000027   0.000002   0.000000  -0.000004
    11  H    0.000017  -0.000119   0.000009   0.000000  -0.000000  -0.000001
    12  Cl   0.001313   0.000010  -0.000112   0.000013   0.000002  -0.000001
    13  C   -0.000249  -0.000227   0.000425  -0.000051  -0.000058   0.000041
    14  H   -0.000017   0.000046   0.001122  -0.000019  -0.000024  -0.000083
    15  H    0.000033  -0.000013   0.000020  -0.000021   0.000007   0.000002
    16  H   -0.000001   0.000013   0.000063  -0.000003  -0.000003  -0.000002
    17  C    0.372904   0.385796   0.010205  -0.001011  -0.000481   0.006537
    18  H   -0.017006  -0.027072  -0.000333   0.000156  -0.000016   0.000311
    19  H    0.647485  -0.029250   0.010658   0.001457   0.000056  -0.003362
    20  H   -0.029250   0.682686   0.002829  -0.001343   0.000069   0.001500
    21  C    0.010658   0.002829   4.780198   0.366434   0.349239   0.351543
    22  H    0.001457  -0.001343   0.366434   0.621275  -0.013198  -0.016175
    23  H    0.000056   0.000069   0.349239  -0.013198   0.628615  -0.014958
    24  H   -0.003362   0.001500   0.351543  -0.016175  -0.014958   0.644144
 Mulliken charges:
               1
     1  C   -0.178052
     2  C    0.015597
     3  O   -0.353711
     4  C   -0.246963
     5  C    0.015688
     6  H    0.075710
     7  H    0.092146
     8  H    0.080396
     9  N   -0.147545
    10  H    0.176045
    11  H    0.174767
    12  Cl  -0.158549
    13  C    0.101500
    14  H    0.067545
    15  H    0.072619
    16  H    0.024648
    17  C    0.029596
    18  H    0.018014
    19  H    0.030527
    20  H    0.018176
    21  C   -0.021061
    22  H    0.046601
    23  H    0.034067
    24  H    0.032240
 Sum of Mulliken charges =  -0.00000
 Mulliken charges with hydrogens summed into heavy atoms:
               1
     1  C   -0.178052
     2  C    0.015597
     3  O   -0.353711
     4  C   -0.246963
     5  C    0.263939
     9  N    0.203268
    12  Cl  -0.158549
    13  C    0.266312
    17  C    0.096312
    21  C    0.091846
 APT charges:
               1
     1  C   -1.048496
     2  C    1.181400
     3  O   -0.965129
     4  C    1.678177
     5  C    0.145812
     6  H    0.014122
     7  H    0.079811
     8  H    0.037774
     9  N   -0.807505
    10  H    0.198856
    11  H    0.173085
    12  Cl  -0.632835
    13  C   -0.109240
    14  H    0.065117
    15  H    0.037256
    16  H    0.002485
    17  C    0.133331
    18  H    0.017349
    19  H   -0.029484
    20  H   -0.061312
    21  C   -0.108920
    22  H    0.000190
    23  H    0.004931
    24  H   -0.006775
 Sum of APT charges =  -0.00000
 APT charges with hydrogens summed into heavy atoms:
               1
     1  C   -1.048496
     2  C    1.181400
     3  O   -0.965129
     4  C    1.678177
     5  C    0.277519
     9  N   -0.435564
    12  Cl  -0.632835
    13  C   -0.004382
    17  C    0.059884
    21  C   -0.110574
 Electronic spatial extent (au):  <R**2>=           1844.8052
 Charge=             -0.0000 electrons
 Dipole moment (field-independent basis, Debye):
    X=             -4.9616    Y=              2.7813    Z=              4.8833  Tot=              7.4966
 Quadrupole moment (field-independent basis, Debye-Ang):
   XX=            -70.4234   YY=            -66.8965   ZZ=            -67.6846
   XY=            -10.8651   XZ=              1.0698   YZ=              4.9407
 Traceless Quadrupole moment (field-independent basis, Debye-Ang):
   XX=             -2.0885   YY=              1.4383   ZZ=              0.6502
   XY=            -10.8651   XZ=              1.0698   YZ=              4.9407
 Octapole moment (field-independent basis, Debye-Ang**2):
  XXX=            -31.3970  YYY=             16.7766  ZZZ=              8.0323  XYY=            -11.3792
  XXY=              4.1582  XXZ=             18.2735  XZZ=            -17.7767  YZZ=              4.3555
  YYZ=              7.7326  XYZ=              4.0606
 Hexadecapole moment (field-independent basis, Debye-Ang**3):
 XXXX=          -1251.1911 YYYY=           -615.3897 ZZZZ=           -475.1077 XXXY=            -29.5862
 XXXZ=             -8.2002 YYYX=             -9.1805 YYYZ=             19.3748 ZZZX=            -10.9485
 ZZZY=             23.4316 XXYY=           -313.2926 XXZZ=           -300.0382 YYZZ=           -186.6065
 XXYZ=             18.5901 YYXZ=             -4.1012 ZZXY=             -9.5508
 N-N= 6.706531035817D+02 E-N=-3.375351482583D+03  KE= 8.592686757996D+02
  Exact polarizability:     139.234      -0.992     106.167      -1.011      -5.160     100.160
 Approx polarizability:     127.135       5.697     107.492      -3.505      -6.623     101.607
   1 Symmetry operations used in ECPInt.
 ECPInt:  NShTT=    5460 NPrTT=   19488 LenC2=    5396 LenP2D=   15064.
 LDataN:  DoStor=T MaxTD1= 6 Len=  172
 D2PCM: PCM CHGder 2nd derivatives, FixD1E=F FixD2E=F DoIter=F DoCFld=F I1PDM=0
 Calling FoFJK, ICntrl=    100127 FMM=F ISym2X=0 I1Cent= 0 IOpClX= 0 NMat=1 NMatS=1 NMatT=0.
 Full mass-weighted force constant matrix:
 Low frequencies --- -327.5571   -5.6965   -0.0018    0.0007    0.0037    6.4557
 Low frequencies ---   17.4519   60.8054   71.2372
 ******    1 imaginary frequencies (negative Signs) ****** 
 Diagonal vibrational polarizability:
      123.6980444      58.1651690      52.5033894
 Harmonic frequencies (cm**-1), IR intensities (KM/Mole), Raman scattering
 activities (A**4/AMU), depolarization ratios for plane and unpolarized
 incident light, reduced masses (AMU), force constants (mDyne/A),
 and normal coordinates:
                      1                      2                      3
                      A                      A                      A
 Frequencies --   -327.5566                60.7526                70.8304
 Red. masses --      5.5917                 2.1139                 4.3441
 Frc consts  --      0.3535                 0.0046                 0.0128
 IR Inten    --    375.5811                 3.9560                 1.0255
  Atom  AN      X      Y      Z        X      Y      Z        X      Y      Z
     1   6     0.02   0.09   0.07    -0.00  -0.03  -0.04    -0.01  -0.10  -0.06
     2   6    -0.04  -0.02  -0.01    -0.00  -0.01  -0.02    -0.03   0.06   0.06
     3   8     0.00   0.00  -0.02    -0.01  -0.10  -0.11    -0.04   0.19   0.18
     4   6    -0.11   0.30   0.27     0.00  -0.02  -0.03    -0.03  -0.05  -0.01
     5   6     0.01  -0.08  -0.08     0.09  -0.08   0.07     0.18   0.01  -0.16
     6   1    -0.30  -0.23  -0.13     0.11  -0.09   0.08     0.18   0.11  -0.21
     7   1     0.02   0.06   0.09     0.08  -0.12   0.06     0.16  -0.03  -0.13
     8   1    -0.03  -0.09  -0.08     0.13  -0.05   0.09     0.21  -0.06  -0.24
     9   7     0.22  -0.26  -0.22     0.04  -0.02   0.03     0.11   0.01  -0.06
    10   1     0.20  -0.21  -0.16     0.01  -0.05   0.00     0.14   0.06  -0.01
    11   1     0.19  -0.35  -0.24     0.05   0.03   0.04     0.10   0.03  -0.00
    12  17    -0.05  -0.01  -0.01    -0.04   0.02  -0.02    -0.08   0.01   0.07
    13   6    -0.00   0.06   0.06    -0.01   0.01  -0.00    -0.03  -0.10  -0.05
    14   1     0.08   0.02  -0.10     0.01  -0.01  -0.00     0.04  -0.14  -0.12
    15   1    -0.01  -0.15   0.20    -0.05   0.02  -0.02    -0.10  -0.17  -0.04
    16   1     0.02   0.09  -0.03    -0.01   0.04   0.03    -0.02  -0.04  -0.03
    17   6    -0.00   0.06   0.05    -0.02   0.04   0.02     0.01  -0.17  -0.12
    18   1     0.00   0.01  -0.00     0.04  -0.26  -0.25     0.04  -0.32  -0.26
    19   1     0.00   0.07   0.02     0.31   0.24   0.25     0.15  -0.07  -0.12
    20   1    -0.03  -0.03   0.12    -0.44   0.21   0.11    -0.16  -0.19  -0.05
    21   6    -0.02  -0.02  -0.01     0.00   0.15   0.11    -0.01   0.09   0.07
    22   1     0.00  -0.02  -0.00     0.16   0.17   0.08     0.09   0.11  -0.05
    23   1    -0.03  -0.02  -0.03    -0.01   0.27   0.20    -0.03   0.22   0.16
    24   1     0.01  -0.01  -0.01    -0.13   0.13   0.11    -0.08  -0.03   0.09
                      4                      5                      6
                      A                      A                      A
 Frequencies --    104.3617               108.0463               158.2348
 Red. masses --      1.3541                 2.0530                 1.7817
 Frc consts  --      0.0087                 0.0141                 0.0263
 IR Inten    --      3.8419                 2.4878                 4.7139
  Atom  AN      X      Y      Z        X      Y      Z        X      Y      Z
     1   6    -0.01   0.00  -0.01    -0.01   0.03   0.01     0.02   0.02   0.02
     2   6    -0.01   0.01  -0.01    -0.02   0.03   0.00     0.02  -0.00  -0.00
     3   8    -0.00  -0.04  -0.05    -0.02   0.07   0.04     0.02  -0.06  -0.06
     4   6    -0.01   0.01  -0.00    -0.01   0.00  -0.02     0.02   0.03   0.03
     5   6     0.05  -0.03   0.02     0.11  -0.12   0.11    -0.10   0.03   0.05
     6   1     0.02  -0.02   0.01    -0.05  -0.06   0.03    -0.39   0.16  -0.10
     7   1     0.03  -0.08   0.06     0.03  -0.35   0.37    -0.14  -0.02   0.42
     8   1     0.11  -0.03   0.02     0.48  -0.10   0.09     0.19  -0.06  -0.06
     9   7     0.01  -0.00  -0.01    -0.04   0.05  -0.10    -0.05   0.03  -0.06
    10   1    -0.02  -0.01  -0.02    -0.30   0.03  -0.15    -0.17   0.04  -0.07
    11   1     0.03   0.03  -0.02     0.07   0.25  -0.25    -0.00   0.05  -0.19
    12  17    -0.01   0.00   0.00     0.01  -0.02   0.01    -0.01   0.03   0.05
    13   6    -0.01   0.00  -0.00     0.00  -0.06  -0.07     0.04  -0.01  -0.01
    14   1     0.01  -0.01  -0.02    -0.06  -0.01  -0.07     0.05  -0.02  -0.04
    15   1    -0.03  -0.00  -0.01     0.08  -0.07  -0.02     0.04  -0.05   0.02
    16   1    -0.01   0.02   0.01    -0.01  -0.13  -0.13     0.05  -0.01  -0.03
    17   6     0.01  -0.04  -0.05    -0.02   0.09   0.06     0.05  -0.11  -0.08
    18   1    -0.05   0.27   0.24    -0.02   0.11   0.09     0.06  -0.15  -0.12
    19   1    -0.32  -0.25  -0.26    -0.03   0.06   0.09     0.07  -0.07  -0.20
    20   1     0.43  -0.19  -0.15     0.00   0.13   0.03     0.04  -0.22  -0.02
    21   6    -0.02   0.09   0.09    -0.01  -0.03  -0.06     0.03   0.03   0.01
    22   1    -0.07   0.05   0.40    -0.07  -0.04  -0.06     0.18   0.08  -0.27
    23   1    -0.01  -0.07  -0.04    -0.01  -0.07  -0.10     0.01   0.25   0.20
    24   1    -0.00   0.39   0.05     0.05  -0.03  -0.06    -0.09  -0.25   0.06
                      7                      8                      9
                      A                      A                      A
 Frequencies --    191.2078               211.8766               217.1901
 Red. masses --      1.4020                 1.6034                 1.9506
 Frc consts  --      0.0302                 0.0424                 0.0542
 IR Inten    --      1.7304                 1.2339                 2.1254
  Atom  AN      X      Y      Z        X      Y      Z        X      Y      Z
     1   6     0.03  -0.04  -0.04    -0.01  -0.00   0.03     0.01   0.02  -0.09
     2   6     0.03  -0.02  -0.02    -0.03  -0.01   0.01     0.05   0.02  -0.02
     3   8     0.04   0.03   0.03    -0.05  -0.02  -0.00     0.14   0.04   0.00
     4   6     0.02  -0.02  -0.02    -0.01   0.00   0.03    -0.01  -0.01  -0.06
     5   6    -0.08   0.01   0.03     0.05   0.04  -0.06    -0.03  -0.03   0.03
     6   1    -0.25   0.09  -0.05    -0.21   0.41  -0.30    -0.13   0.07  -0.05
     7   1    -0.09   0.04   0.23    -0.01  -0.06   0.37    -0.03  -0.01   0.16
     8   1     0.03  -0.06  -0.04     0.40  -0.20  -0.34     0.05  -0.11  -0.06
     9   7    -0.00  -0.03   0.00     0.01   0.02   0.07     0.01  -0.06   0.05
    10   1     0.01  -0.04  -0.01     0.05   0.08   0.12     0.12  -0.09   0.04
    11   1    -0.01  -0.08  -0.02    -0.00   0.03   0.10    -0.03  -0.10   0.14
    12  17    -0.05   0.03   0.02     0.06  -0.03  -0.06    -0.03  -0.01   0.03
    13   6     0.03  -0.02  -0.02    -0.05   0.04   0.06    -0.07  -0.01  -0.05
    14   1     0.08  -0.06  -0.04     0.09  -0.05  -0.02     0.22  -0.20  -0.20
    15   1    -0.03  -0.06  -0.02    -0.24  -0.00   0.01    -0.43  -0.15  -0.12
    16   1     0.04   0.03   0.01    -0.04   0.18   0.20    -0.03   0.27   0.16
    17   6     0.03   0.00  -0.01    -0.02  -0.01   0.02    -0.01   0.11  -0.02
    18   1     0.06  -0.15  -0.14    -0.02  -0.05  -0.02    -0.04   0.26   0.11
    19   1     0.19   0.10   0.10     0.02   0.01   0.04    -0.14   0.01   0.01
    20   1    -0.17   0.09   0.03    -0.07  -0.01   0.04     0.13   0.15  -0.10
    21   6     0.04  -0.01  -0.02    -0.02  -0.00  -0.01    -0.02  -0.05   0.05
    22   1    -0.14  -0.08   0.43    -0.05  -0.01   0.05     0.02  -0.01  -0.16
    23   1     0.04  -0.32  -0.33    -0.03  -0.05  -0.08     0.03   0.06   0.26
    24   1     0.20   0.44  -0.10     0.03   0.06  -0.03    -0.15  -0.27   0.09
                     10                     11                     12
                      A                      A                      A
 Frequencies --    233.6670               280.3690               301.6155
 Red. masses --      2.9073                 1.3902                 2.4022
 Frc consts  --      0.0935                 0.0644                 0.1288
 IR Inten    --     23.4550                 1.2960                 3.3271
  Atom  AN      X      Y      Z        X      Y      Z        X      Y      Z
     1   6    -0.03   0.08  -0.04    -0.00  -0.03  -0.06     0.01  -0.00  -0.04
     2   6    -0.00   0.01  -0.02    -0.01  -0.01  -0.02     0.04   0.00  -0.02
     3   8     0.08  -0.01  -0.02    -0.01   0.01  -0.00     0.10   0.01  -0.00
     4   6    -0.04   0.09  -0.00     0.02   0.01  -0.05    -0.02  -0.03   0.00
     5   6     0.02   0.01   0.01    -0.01   0.03   0.03     0.03  -0.06  -0.13
     6   1     0.12  -0.14   0.11    -0.21   0.14  -0.08     0.05   0.10  -0.19
     7   1     0.02  -0.02  -0.14    -0.01   0.10   0.24    -0.02  -0.19  -0.06
     8   1    -0.06   0.11   0.13     0.08  -0.06  -0.08     0.16  -0.13  -0.21
     9   7    -0.03   0.05  -0.06     0.08  -0.04   0.04    -0.09  -0.00  -0.03
    10   1    -0.10   0.04  -0.08     0.23  -0.07   0.03    -0.21   0.07   0.01
    11   1    -0.00   0.11  -0.09     0.02  -0.12   0.15    -0.04   0.06  -0.14
    12  17     0.11  -0.06   0.08     0.02  -0.00   0.03    -0.08  -0.05   0.02
    13   6    -0.10   0.08  -0.01    -0.01   0.01  -0.05    -0.00   0.15   0.13
    14   1    -0.06   0.06  -0.04    -0.39   0.26   0.12    -0.22   0.28   0.42
    15   1    -0.17   0.07  -0.03     0.42   0.19   0.03     0.28   0.44   0.07
    16   1    -0.10   0.13   0.05    -0.07  -0.37  -0.27    -0.03  -0.02   0.02
    17   6    -0.09  -0.04  -0.14    -0.07   0.02  -0.02     0.09   0.04  -0.01
    18   1    -0.06  -0.26  -0.41    -0.09   0.09  -0.01     0.12   0.01   0.04
    19   1     0.12   0.11  -0.11    -0.12  -0.03   0.03     0.13   0.07   0.01
    20   1    -0.38  -0.09   0.01    -0.05   0.04  -0.04     0.10   0.11  -0.05
    21   6    -0.08  -0.07   0.07    -0.03  -0.02   0.03     0.02  -0.02   0.03
    22   1    -0.22  -0.11   0.28    -0.03  -0.01   0.00     0.02  -0.02   0.03
    23   1    -0.00  -0.28  -0.00    -0.00  -0.01   0.09     0.04  -0.02   0.06
    24   1    -0.08   0.13   0.04    -0.10  -0.05   0.03    -0.02  -0.03   0.03
                     13                     14                     15
                      A                      A                      A
 Frequencies --    330.6243               354.0342               364.9880
 Red. masses --      2.9543                 3.5658                 2.9764
 Frc consts  --      0.1903                 0.2633                 0.2336
 IR Inten    --      3.6790                32.6390                 5.5118
  Atom  AN      X      Y      Z        X      Y      Z        X      Y      Z
     1   6     0.01   0.16   0.10     0.02  -0.10  -0.06    -0.04  -0.00  -0.03
     2   6     0.03   0.06   0.02     0.03  -0.07  -0.00    -0.09   0.04  -0.07
     3   8     0.11  -0.01  -0.04     0.01  -0.01   0.05    -0.02   0.06  -0.05
     4   6    -0.04   0.04   0.09     0.01   0.01   0.01    -0.03  -0.01   0.02
     5   6     0.04   0.03   0.02    -0.00   0.20   0.14     0.02   0.08   0.06
     6   1     0.10   0.10   0.01    -0.16  -0.05   0.19    -0.03   0.05   0.05
     7   1     0.03  -0.02  -0.01     0.04   0.34   0.18     0.03   0.12   0.08
     8   1     0.04  -0.01  -0.02    -0.06   0.34   0.28    -0.00   0.09   0.07
     9   7    -0.02   0.03   0.11     0.13   0.14  -0.11     0.04   0.04   0.03
    10   1     0.05   0.04   0.12    -0.03   0.17  -0.11     0.08   0.04   0.04
    11   1    -0.05   0.05   0.19     0.18   0.16  -0.23     0.02   0.04   0.08
    12  17    -0.05  -0.01  -0.08    -0.06  -0.11  -0.06    -0.02  -0.09  -0.00
    13   6    -0.10  -0.16  -0.04    -0.14   0.03   0.04     0.24   0.00   0.02
    14   1    -0.34   0.03  -0.15    -0.19   0.07   0.04     0.44  -0.15   0.12
    15   1     0.13  -0.24   0.12    -0.23   0.11  -0.04     0.28  -0.06   0.08
    16   1    -0.15  -0.45  -0.21    -0.18  -0.01   0.18     0.33   0.22  -0.13
    17   6     0.12  -0.00  -0.04     0.05  -0.00   0.03     0.09   0.02  -0.02
    18   1     0.17  -0.18  -0.13     0.06   0.03   0.12     0.14  -0.07   0.01
    19   1     0.24   0.12  -0.20     0.04  -0.02   0.08     0.17   0.08  -0.02
    20   1     0.05  -0.13   0.05     0.10   0.09  -0.03     0.07   0.07  -0.04
    21   6    -0.02  -0.05   0.04     0.07  -0.00   0.02    -0.20  -0.03   0.02
    22   1    -0.14  -0.06   0.07     0.16   0.01   0.02    -0.29  -0.03   0.03
    23   1     0.03  -0.17   0.03     0.03   0.08   0.04    -0.10  -0.11   0.13
    24   1     0.00  -0.03   0.04     0.04   0.01   0.02    -0.31  -0.04   0.03
                     16                     17                     18
                      A                      A                      A
 Frequencies --    371.5389               466.7207               500.6364
 Red. masses --      3.4283                 3.1936                 3.0929
 Frc consts  --      0.2788                 0.4099                 0.4567
 IR Inten    --     16.9204                24.4738                77.1968
  Atom  AN      X      Y      Z        X      Y      Z        X      Y      Z
     1   6    -0.01  -0.10  -0.06     0.08  -0.10  -0.07     0.12   0.09   0.13
     2   6    -0.07  -0.05  -0.01     0.03   0.02  -0.14     0.06   0.17   0.05
     3   8    -0.08  -0.01   0.03     0.09   0.11  -0.08    -0.09   0.03  -0.11
     4   6    -0.01  -0.03  -0.02     0.01  -0.07   0.16     0.17  -0.12  -0.10
     5   6    -0.03  -0.03  -0.01    -0.01   0.02  -0.01    -0.01  -0.02  -0.01
     6   1    -0.06  -0.08  -0.00     0.01  -0.01   0.01    -0.06  -0.05  -0.01
     7   1    -0.03  -0.00  -0.01    -0.01   0.03  -0.06     0.01   0.05   0.04
     8   1    -0.04  -0.00   0.02    -0.05   0.03   0.01    -0.00   0.01   0.02
     9   7     0.00  -0.03  -0.06    -0.02   0.01  -0.00     0.07  -0.03  -0.07
    10   1    -0.04  -0.03  -0.08    -0.32   0.16   0.08     0.07  -0.05  -0.09
    11   1     0.02  -0.03  -0.12     0.11   0.06  -0.33     0.08  -0.07  -0.10
    12  17     0.08   0.12  -0.01     0.04   0.05  -0.03    -0.05  -0.00   0.01
    13   6    -0.12   0.00  -0.01    -0.02  -0.15   0.19    -0.02   0.02   0.02
    14   1    -0.17   0.05  -0.06    -0.08  -0.10   0.13    -0.06   0.05   0.08
    15   1    -0.18   0.04  -0.06     0.02  -0.18   0.22    -0.20   0.22  -0.18
    16   1    -0.16  -0.07   0.10    -0.03  -0.23   0.15    -0.08   0.02   0.31
    17   6     0.25   0.01   0.04    -0.11  -0.02   0.02    -0.02  -0.04   0.05
    18   1     0.34  -0.14   0.23    -0.20   0.18  -0.07    -0.08   0.01  -0.14
    19   1     0.38   0.11   0.08    -0.24  -0.16   0.21    -0.07  -0.08   0.02
    20   1     0.29   0.20  -0.07    -0.17   0.01   0.03    -0.11  -0.19   0.16
    21   6    -0.14  -0.09   0.10    -0.07   0.02  -0.01    -0.05  -0.05   0.04
    22   1    -0.16  -0.09   0.10    -0.08   0.01   0.04    -0.46  -0.07  -0.05
    23   1    -0.05  -0.12   0.22     0.05  -0.01   0.17     0.17  -0.35   0.13
    24   1    -0.26  -0.10   0.10    -0.30   0.04  -0.01    -0.06  -0.18   0.06
                     19                     20                     21
                      A                      A                      A
 Frequencies --    566.2471               614.1237               658.9838
 Red. masses --      3.5946                 3.2449                 2.8424
 Frc consts  --      0.6791                 0.7210                 0.7273
 IR Inten    --     83.6869                11.6985                43.3587
  Atom  AN      X      Y      Z        X      Y      Z        X      Y      Z
     1   6    -0.10  -0.03   0.04     0.01   0.01   0.14    -0.02   0.19   0.10
     2   6    -0.11   0.12   0.12    -0.01  -0.12  -0.18    -0.01  -0.14  -0.10
     3   8     0.23  -0.06  -0.02     0.11   0.08   0.01    -0.03   0.02   0.06
     4   6    -0.12  -0.15  -0.06     0.08   0.06  -0.04    -0.05  -0.17  -0.06
     5   6     0.00   0.01   0.01    -0.00  -0.01  -0.00     0.00   0.00   0.00
     6   1    -0.14  -0.09   0.01     0.05   0.02  -0.00    -0.11  -0.08   0.00
     7   1     0.01   0.08   0.12    -0.02  -0.07  -0.02    -0.00   0.02   0.09
     8   1     0.02   0.07   0.07     0.03  -0.02  -0.02     0.05   0.06   0.06
     9   7     0.08  -0.01  -0.09    -0.03   0.02   0.01     0.05   0.00  -0.08
    10   1     0.23  -0.05  -0.10     0.12  -0.07  -0.04     0.25  -0.05  -0.09
    11   1     0.00  -0.02   0.12    -0.09  -0.02   0.15    -0.05  -0.03   0.17
    12  17     0.03   0.04   0.00    -0.01  -0.02   0.01     0.01   0.03  -0.00
    13   6    -0.04  -0.02   0.04    -0.02   0.09  -0.12    -0.00  -0.09   0.11
    14   1    -0.04  -0.04   0.28    -0.10   0.15  -0.20     0.05  -0.16   0.38
    15   1     0.03   0.17  -0.05    -0.11   0.10  -0.17     0.01   0.14  -0.04
    16   1    -0.02   0.05   0.03    -0.06  -0.00   0.02     0.02   0.04   0.16
    17   6    -0.01  -0.06   0.07     0.01  -0.14   0.20    -0.01   0.10  -0.08
    18   1     0.03  -0.13   0.15     0.00  -0.16   0.14     0.00   0.03  -0.15
    19   1     0.04  -0.02   0.05     0.01  -0.13   0.11    -0.00   0.15  -0.27
    20   1     0.02  -0.04   0.05     0.01  -0.23   0.24    -0.01  -0.08   0.00
    21   6    -0.10   0.10  -0.10    -0.10   0.03  -0.08     0.02  -0.04  -0.01
    22   1    -0.21   0.12  -0.27     0.21   0.03   0.15     0.40  -0.04   0.21
    23   1    -0.28   0.10  -0.41    -0.09   0.21   0.13    -0.04   0.19   0.12
    24   1     0.31  -0.01  -0.09    -0.47   0.25  -0.10    -0.24   0.18  -0.04
                     22                     23                     24
                      A                      A                      A
 Frequencies --    717.6508               776.5531               938.9757
 Red. masses --      2.1415                 1.8362                 1.8281
 Frc consts  --      0.6498                 0.6524                 0.9497
 IR Inten    --     29.1010               109.0163                48.9281
  Atom  AN      X      Y      Z        X      Y      Z        X      Y      Z
     1   6     0.02   0.04   0.03     0.04  -0.05  -0.03     0.13   0.00  -0.00
     2   6    -0.05  -0.06   0.05     0.01  -0.01   0.03     0.07  -0.04   0.04
     3   8     0.03  -0.07   0.08     0.00  -0.04   0.04    -0.02  -0.05   0.05
     4   6     0.15   0.00  -0.02     0.13   0.08   0.04    -0.08  -0.04   0.03
     5   6    -0.00  -0.01  -0.00    -0.01  -0.02  -0.01     0.00   0.02  -0.00
     6   1     0.03   0.09  -0.04     0.06  -0.09   0.04    -0.01  -0.05   0.02
     7   1     0.05   0.14  -0.05    -0.08  -0.24   0.01    -0.02  -0.06   0.02
     8   1    -0.14  -0.10  -0.08     0.19   0.09   0.07     0.06   0.06   0.04
     9   7     0.05  -0.05   0.07    -0.07   0.07  -0.08    -0.02  -0.00  -0.00
    10   1    -0.44   0.08   0.11     0.49  -0.11  -0.15     0.02   0.09   0.09
    11   1     0.27   0.03  -0.48    -0.30  -0.14   0.43    -0.04  -0.04   0.04
    12  17    -0.01  -0.01   0.00    -0.01  -0.01  -0.00     0.00   0.00  -0.00
    13   6     0.02   0.00  -0.00     0.03  -0.04   0.08    -0.08   0.03  -0.06
    14   1    -0.08   0.08  -0.13    -0.10   0.06  -0.09     0.13  -0.13   0.13
    15   1    -0.09   0.00  -0.05    -0.09  -0.08   0.06     0.15   0.05   0.02
    16   1    -0.04  -0.13   0.14    -0.04  -0.19   0.27     0.03   0.26  -0.35
    17   6     0.00   0.07  -0.08     0.01   0.04  -0.06     0.10   0.02  -0.01
    18   1    -0.00   0.08  -0.13    -0.02   0.10  -0.09    -0.11   0.35  -0.40
    19   1     0.00   0.09  -0.15    -0.02   0.00   0.02    -0.19  -0.25   0.24
    20   1     0.01   0.04  -0.07    -0.01   0.09  -0.07    -0.19  -0.12   0.18
    21   6    -0.14   0.05  -0.06    -0.08   0.04  -0.03    -0.06   0.05  -0.06
    22   1    -0.02   0.06  -0.07    -0.12   0.04  -0.08    -0.20   0.04  -0.04
    23   1    -0.29   0.18  -0.19    -0.11   0.04  -0.09     0.01  -0.01   0.02
    24   1    -0.05   0.09  -0.07    -0.03   0.01  -0.03    -0.22   0.04  -0.06
                     25                     26                     27
                      A                      A                      A
 Frequencies --    974.1401              1005.3938              1018.7953
 Red. masses --      1.4963                 1.0995                 1.5832
 Frc consts  --      0.8366                 0.6548                 0.9682
 IR Inten    --     74.1437                21.7165                 2.1020
  Atom  AN      X      Y      Z        X      Y      Z        X      Y      Z
     1   6     0.04  -0.01   0.00     0.01  -0.00  -0.00     0.00   0.02   0.01
     2   6    -0.09   0.03  -0.03    -0.00   0.02   0.01     0.00   0.12   0.11
     3   8     0.00   0.04  -0.05    -0.00  -0.00  -0.00     0.00  -0.02  -0.02
     4   6     0.01  -0.02   0.01    -0.01   0.02  -0.00     0.01  -0.02  -0.01
     5   6    -0.00   0.01  -0.00     0.03  -0.06   0.00    -0.01  -0.00  -0.02
     6   1     0.04  -0.02   0.03    -0.21   0.04  -0.12    -0.02  -0.09   0.02
     7   1    -0.03  -0.08  -0.00     0.15   0.38   0.02    -0.03  -0.06   0.03
     8   1     0.07   0.05   0.03    -0.34  -0.19  -0.09     0.07   0.07   0.05
     9   7    -0.01   0.00   0.00    -0.01   0.01  -0.02     0.02   0.00  -0.00
    10   1     0.03   0.05   0.06    -0.12  -0.17  -0.18     0.04   0.11   0.09
    11   1    -0.03  -0.10  -0.02    -0.00   0.56   0.36     0.01  -0.08  -0.04
    12  17    -0.00  -0.00   0.00    -0.00  -0.00   0.00    -0.00  -0.00   0.00
    13   6     0.01   0.01  -0.02     0.02  -0.00   0.01    -0.01   0.04   0.02
    14   1    -0.03   0.05  -0.05    -0.03   0.03  -0.03     0.03   0.03  -0.16
    15   1    -0.04   0.04  -0.06    -0.02  -0.02   0.01     0.02  -0.16   0.16
    16   1    -0.01  -0.02   0.04    -0.01  -0.05   0.08    -0.01  -0.04  -0.11
    17   6     0.06  -0.00   0.00     0.03  -0.01  -0.01    -0.01  -0.05  -0.05
    18   1    -0.09   0.24  -0.27    -0.04   0.12  -0.09    -0.00   0.06   0.17
    19   1    -0.13  -0.17   0.14    -0.05  -0.10   0.13     0.07  -0.07   0.27
    20   1    -0.13  -0.06   0.11    -0.07   0.03   0.01    -0.02   0.29  -0.21
    21   6    -0.02  -0.10   0.10    -0.00  -0.02  -0.01    -0.00  -0.09  -0.09
    22   1     0.43  -0.05   0.00     0.07  -0.02   0.04     0.39  -0.11   0.28
    23   1    -0.40   0.22  -0.26    -0.02   0.04   0.01    -0.03   0.20   0.18
    24   1     0.45   0.01   0.08    -0.03   0.04  -0.01    -0.38   0.28  -0.13
                     28                     29                     30
                      A                      A                      A
 Frequencies --   1040.8612              1049.0579              1057.1561
 Red. masses --      1.4712                 1.5608                 1.5101
 Frc consts  --      0.9391                 1.0120                 0.9943
 IR Inten    --     38.2949                37.2379                 1.2658
  Atom  AN      X      Y      Z        X      Y      Z        X      Y      Z
     1   6    -0.04  -0.03   0.04     0.02   0.04  -0.00     0.01   0.09   0.07
     2   6    -0.03  -0.01  -0.02     0.02  -0.05  -0.04     0.01  -0.07  -0.06
     3   8     0.01  -0.00   0.01    -0.01   0.01   0.00    -0.00   0.01   0.01
     4   6    -0.05  -0.08   0.06     0.04  -0.03  -0.09    -0.00   0.00   0.02
     5   6     0.00  -0.01  -0.05    -0.02  -0.06  -0.04     0.00   0.00   0.00
     6   1    -0.21  -0.31   0.00    -0.15  -0.20  -0.02    -0.01  -0.01   0.00
     7   1    -0.00   0.01   0.14    -0.01   0.03   0.08     0.00  -0.01   0.00
     8   1     0.06   0.19   0.15    -0.02   0.06   0.08     0.01   0.01   0.00
     9   7     0.01  -0.02   0.00     0.03   0.03  -0.00     0.00  -0.01   0.00
    10   1    -0.03   0.36   0.32     0.03   0.17   0.11    -0.01   0.02   0.02
    11   1    -0.02   0.08   0.14     0.03   0.12   0.09     0.00  -0.01   0.00
    12  17     0.00   0.00   0.00    -0.00  -0.00   0.00    -0.00   0.00  -0.00
    13   6     0.09   0.07  -0.04    -0.06   0.08   0.09     0.00  -0.02  -0.03
    14   1    -0.17   0.28  -0.35     0.17  -0.05  -0.26    -0.02  -0.01   0.08
    15   1    -0.21  -0.03  -0.12     0.13  -0.43   0.50    -0.00   0.10  -0.11
    16   1    -0.03  -0.21   0.18    -0.01  -0.06  -0.36     0.01   0.04   0.04
    17   6     0.02   0.04  -0.03    -0.02  -0.02   0.03    -0.01  -0.10  -0.09
    18   1    -0.02   0.09  -0.12     0.02  -0.07   0.07    -0.03   0.14   0.27
    19   1    -0.04  -0.00  -0.04     0.04   0.03  -0.03     0.11  -0.15   0.52
    20   1    -0.04  -0.02   0.02     0.03  -0.02   0.01    -0.07   0.52  -0.37
    21   6     0.04   0.03  -0.01    -0.03   0.02   0.05    -0.00   0.05   0.04
    22   1    -0.12   0.01   0.00    -0.08   0.04  -0.12    -0.17   0.06  -0.14
    23   1     0.18  -0.11   0.09    -0.11  -0.01  -0.14    -0.00  -0.08  -0.09
    24   1    -0.04  -0.06   0.01     0.19  -0.08   0.05     0.18  -0.12   0.06
                     31                     32                     33
                      A                      A                      A
 Frequencies --   1081.6379              1103.7126              1146.6664
 Red. masses --      1.6022                 2.9831                 2.5689
 Frc consts  --      1.1044                 2.1410                 1.9901
 IR Inten    --     49.6896                56.2853                36.4383
  Atom  AN      X      Y      Z        X      Y      Z        X      Y      Z
     1   6    -0.04   0.01   0.03    -0.09  -0.01   0.02     0.11  -0.04   0.04
     2   6    -0.05  -0.01  -0.02    -0.09   0.00  -0.02     0.13  -0.01   0.01
     3   8     0.01  -0.00   0.01     0.02  -0.01   0.01    -0.02   0.02  -0.02
     4   6    -0.04  -0.06  -0.05    -0.02   0.03  -0.02    -0.08  -0.16   0.17
     5   6     0.04   0.10   0.08    -0.17  -0.17  -0.02    -0.06  -0.04   0.06
     6   1     0.25   0.36   0.04     0.12   0.05  -0.01     0.15   0.25   0.01
     7   1     0.04   0.03  -0.12    -0.19  -0.32  -0.19    -0.06  -0.10  -0.20
     8   1     0.04  -0.09  -0.11    -0.08  -0.31  -0.16    -0.08  -0.28  -0.18
     9   7    -0.04  -0.06  -0.04     0.17   0.21   0.06     0.05   0.08  -0.03
    10   1     0.00  -0.35  -0.28     0.23  -0.05  -0.16     0.14  -0.17  -0.22
    11   1    -0.04  -0.18  -0.14     0.24  -0.06  -0.27     0.02   0.07   0.04
    12  17     0.00   0.00   0.00     0.00  -0.01  -0.00    -0.00  -0.00  -0.00
    13   6     0.03   0.07   0.06     0.01  -0.01   0.02     0.03   0.09  -0.07
    14   1    -0.02   0.15  -0.34    -0.02   0.01   0.01    -0.08   0.19  -0.31
    15   1    -0.09  -0.28   0.23    -0.02  -0.01   0.01    -0.11   0.01  -0.08
    16   1    -0.03  -0.22  -0.02    -0.00  -0.04   0.05     0.01   0.03  -0.14
    17   6     0.05   0.00  -0.02     0.08   0.00  -0.01    -0.09   0.04  -0.04
    18   1    -0.04   0.15  -0.13    -0.06   0.23  -0.23     0.06  -0.21   0.20
    19   1    -0.07  -0.12   0.12    -0.11  -0.17   0.14     0.10   0.20  -0.17
    20   1    -0.10   0.01   0.04    -0.15  -0.01   0.08     0.14   0.03  -0.12
    21   6     0.04   0.02  -0.01     0.06   0.02  -0.02    -0.07  -0.02   0.02
    22   1    -0.09   0.01   0.01    -0.07  -0.00   0.05     0.04   0.01  -0.09
    23   1     0.15  -0.09   0.07     0.23  -0.13   0.14    -0.25   0.13  -0.16
    24   1    -0.02  -0.06   0.01    -0.05  -0.06   0.00     0.06   0.07   0.00
                     34                     35                     36
                      A                      A                      A
 Frequencies --   1167.8015              1237.6337              1319.3886
 Red. masses --      3.0320                 1.3820                 1.3392
 Frc consts  --      2.4363                 1.2472                 1.3735
 IR Inten    --      2.3852                50.4011                 4.2482
  Atom  AN      X      Y      Z        X      Y      Z        X      Y      Z
     1   6     0.00  -0.18   0.20     0.00  -0.00  -0.00     0.00   0.03  -0.03
     2   6    -0.18   0.02  -0.03    -0.02   0.00   0.00    -0.02   0.00  -0.00
     3   8     0.05   0.03  -0.03     0.00  -0.00  -0.00    -0.00  -0.01   0.01
     4   6     0.16  -0.04   0.09     0.02   0.02  -0.02     0.01  -0.00   0.00
     5   6     0.03  -0.01   0.01    -0.09   0.04   0.06     0.06  -0.07   0.10
     6   1    -0.02   0.02  -0.02     0.35   0.23   0.13    -0.14   0.30  -0.12
     7   1     0.06   0.12   0.02    -0.16  -0.24  -0.22     0.17   0.23  -0.18
     8   1    -0.04  -0.01   0.00     0.19  -0.14  -0.15    -0.28  -0.26  -0.05
     9   7    -0.03  -0.00  -0.03     0.06  -0.08  -0.08    -0.03   0.04  -0.07
    10   1     0.04  -0.06  -0.07    -0.21   0.37   0.28     0.18   0.49   0.34
    11   1    -0.08   0.02   0.11     0.00   0.39   0.40    -0.15  -0.40  -0.06
    12  17    -0.00   0.00  -0.00    -0.00   0.00   0.00    -0.00   0.00   0.00
    13   6    -0.13   0.04  -0.05    -0.01  -0.01   0.00     0.00  -0.00   0.00
    14   1     0.20  -0.19   0.05     0.03  -0.04   0.05    -0.02   0.01   0.01
    15   1     0.26   0.07   0.09     0.05  -0.00   0.02    -0.01   0.00  -0.01
    16   1     0.02   0.32  -0.42    -0.01  -0.01   0.05     0.01   0.02  -0.01
    17   6    -0.03   0.08  -0.09    -0.00  -0.00   0.00    -0.00  -0.01   0.02
    18   1    -0.03   0.09  -0.13    -0.01   0.02  -0.01    -0.01   0.01   0.01
    19   1     0.05   0.18  -0.24     0.02   0.01  -0.02     0.02   0.01  -0.00
    20   1     0.07   0.20  -0.20     0.01   0.01  -0.01     0.00  -0.01   0.01
    21   6     0.05   0.01  -0.01     0.00   0.00  -0.00     0.00   0.00  -0.01
    22   1     0.04  -0.02   0.11     0.00  -0.00   0.01     0.02   0.00   0.03
    23   1     0.23  -0.14   0.16     0.02  -0.01   0.02     0.03  -0.02   0.02
    24   1     0.04  -0.10   0.02     0.00  -0.01  -0.00     0.02  -0.02  -0.00
                     37                     38                     39
                      A                      A                      A
 Frequencies --   1346.5657              1378.8837              1400.6477
 Red. masses --      1.5910                 1.9312                 1.4631
 Frc consts  --      1.6997                 2.1633                 1.6912
 IR Inten    --     33.2041                14.3352               164.0050
  Atom  AN      X      Y      Z        X      Y      Z        X      Y      Z
     1   6     0.10   0.07  -0.09    -0.01  -0.11   0.12    -0.10  -0.01   0.02
     2   6    -0.08   0.01  -0.01     0.12  -0.03   0.04     0.11   0.00  -0.00
     3   8     0.00  -0.03   0.03    -0.00   0.04  -0.04    -0.01   0.01  -0.01
     4   6     0.00  -0.03   0.03    -0.09   0.06  -0.08     0.01   0.01  -0.01
     5   6    -0.01   0.01  -0.01     0.02   0.00   0.01    -0.01  -0.00  -0.00
     6   1     0.02  -0.04   0.02    -0.10   0.02  -0.04     0.02   0.01   0.00
     7   1    -0.02  -0.03   0.02    -0.01  -0.09  -0.04     0.01   0.05  -0.00
     8   1     0.02   0.02  -0.01    -0.09  -0.01   0.01     0.06   0.02   0.01
     9   7    -0.00   0.01   0.01     0.00   0.00   0.01     0.01  -0.01  -0.01
    10   1    -0.00  -0.08  -0.07    -0.00   0.06   0.05    -0.01   0.00   0.00
    11   1     0.01   0.07   0.03     0.01  -0.07  -0.07     0.01  -0.01  -0.01
    12  17    -0.00  -0.00  -0.00     0.00  -0.00   0.00     0.00   0.00   0.00
    13   6     0.01   0.00   0.00     0.01   0.04  -0.05     0.01  -0.06   0.06
    14   1    -0.02   0.03  -0.08     0.13  -0.09   0.43    -0.29   0.18  -0.24
    15   1    -0.02   0.05  -0.04    -0.03  -0.31   0.16    -0.06   0.10  -0.07
    16   1     0.02   0.02  -0.05    -0.15  -0.34   0.34     0.17   0.39  -0.24
    17   6    -0.03  -0.02   0.03     0.00   0.02  -0.02     0.03  -0.05   0.07
    18   1     0.00  -0.08   0.06    -0.05   0.10  -0.13    -0.15   0.22  -0.32
    19   1     0.04   0.02   0.04     0.04   0.06  -0.10     0.01   0.05  -0.36
    20   1     0.07  -0.04   0.00     0.04   0.11  -0.08    -0.03   0.37  -0.14
    21   6    -0.09   0.06  -0.06    -0.10   0.03  -0.03    -0.06   0.01  -0.01
    22   1     0.42   0.02   0.36     0.27   0.03   0.15     0.16   0.03  -0.03
    23   1     0.32  -0.30   0.30     0.07  -0.14   0.11     0.03  -0.10   0.05
    24   1     0.43  -0.35   0.00     0.26  -0.15  -0.01     0.13   0.02  -0.01
                     40                     41                     42
                      A                      A                      A
 Frequencies --   1408.1512              1417.8691              1433.1872
 Red. masses --      1.5255                 1.1135                 1.2437
 Frc consts  --      1.7822                 1.3189                 1.5051
 IR Inten    --     95.1363                12.9303                93.6416
  Atom  AN      X      Y      Z        X      Y      Z        X      Y      Z
     1   6    -0.09  -0.05   0.05    -0.02  -0.01   0.01    -0.05   0.02  -0.02
     2   6     0.08   0.00  -0.00     0.03  -0.01   0.02     0.03   0.00  -0.00
     3   8    -0.00   0.02  -0.02    -0.00   0.01  -0.01    -0.00  -0.00   0.00
     4   6     0.03   0.02  -0.02    -0.02   0.02  -0.01     0.02  -0.02   0.05
     5   6    -0.01  -0.01  -0.00     0.01   0.02   0.01    -0.06  -0.08  -0.03
     6   1     0.07   0.04   0.00    -0.11  -0.11   0.02     0.46   0.16   0.05
     7   1     0.02   0.08   0.03    -0.01  -0.09  -0.07     0.12   0.59   0.23
     8   1     0.04   0.02   0.02    -0.04  -0.09  -0.09     0.33   0.13   0.14
     9   7     0.00  -0.01  -0.01    -0.00   0.00   0.00    -0.01  -0.00  -0.01
    10   1    -0.00   0.06   0.05     0.00   0.02   0.02     0.06   0.01   0.00
    11   1    -0.00  -0.01   0.00    -0.00  -0.01  -0.00    -0.01  -0.02  -0.03
    12  17     0.00  -0.00   0.00     0.00  -0.00   0.00     0.00   0.00  -0.00
    13   6    -0.01  -0.04   0.03    -0.02  -0.00   0.07    -0.01   0.04  -0.03
    14   1    -0.16   0.09  -0.15     0.42  -0.26  -0.39     0.21  -0.13   0.08
    15   1     0.02   0.07  -0.02     0.06   0.51  -0.25     0.02   0.04  -0.02
    16   1     0.10   0.27  -0.12    -0.08  -0.41  -0.15    -0.09  -0.24   0.04
    17   6     0.02   0.08  -0.11     0.01   0.00  -0.00     0.02  -0.01   0.01
    18   1     0.21  -0.15   0.41    -0.00   0.02  -0.01     0.00   0.02   0.01
    19   1    -0.15  -0.16   0.36    -0.01  -0.01  -0.03    -0.05  -0.04  -0.09
    20   1    -0.23  -0.41   0.26    -0.03   0.03   0.00    -0.10   0.07   0.01
    21   6    -0.05   0.01  -0.01    -0.01   0.00  -0.01    -0.01   0.00   0.00
    22   1     0.17   0.01   0.10     0.03   0.00   0.03     0.07   0.01  -0.02
    23   1     0.02  -0.06   0.02    -0.00  -0.01   0.00     0.01  -0.05  -0.02
    24   1     0.14  -0.11   0.00     0.02  -0.03  -0.00     0.01  -0.00  -0.00
                     43                     44                     45
                      A                      A                      A
 Frequencies --   1438.1303              1449.3081              1457.8677
 Red. masses --      1.0572                 1.3646                 1.0769
 Frc consts  --      1.2883                 1.6888                 1.3486
 IR Inten    --     27.6503               116.2526                39.0370
  Atom  AN      X      Y      Z        X      Y      Z        X      Y      Z
     1   6     0.00   0.00   0.00     0.07  -0.04   0.05    -0.04   0.01  -0.00
     2   6     0.01  -0.01   0.01    -0.02  -0.02   0.01     0.02  -0.01  -0.01
     3   8    -0.00   0.02  -0.02     0.01   0.01  -0.01    -0.00   0.00   0.00
     4   6    -0.00   0.00  -0.00    -0.06   0.05  -0.07     0.01  -0.02   0.01
     5   6    -0.00  -0.00  -0.00    -0.02  -0.03  -0.01    -0.00   0.00   0.00
     6   1     0.01   0.00   0.00     0.17   0.10   0.00    -0.02  -0.05   0.02
     7   1     0.01   0.03  -0.00     0.04   0.20   0.09     0.02   0.05  -0.04
     8   1     0.03   0.01   0.01     0.10   0.07   0.08     0.05  -0.03  -0.04
     9   7    -0.00   0.00   0.00    -0.01  -0.00   0.00    -0.00   0.00  -0.00
    10   1     0.00   0.00   0.00     0.04   0.04   0.05    -0.00  -0.00  -0.00
    11   1    -0.00  -0.00  -0.00     0.01   0.01  -0.04    -0.00  -0.02  -0.01
    12  17    -0.00  -0.00   0.00    -0.00  -0.00   0.00     0.00   0.00  -0.00
    13   6     0.00  -0.01   0.00     0.03  -0.03   0.07    -0.02  -0.00  -0.03
    14   1    -0.04   0.02  -0.02    -0.10   0.06   0.04     0.04  -0.02  -0.20
    15   1     0.00  -0.00   0.00    -0.37   0.06  -0.17     0.38   0.04   0.13
    16   1     0.01   0.04   0.00     0.09  -0.06  -0.36    -0.05   0.13   0.35
    17   6     0.01  -0.00   0.01    -0.04   0.03  -0.01    -0.00   0.01   0.01
    18   1     0.03  -0.07  -0.02    -0.03  -0.11  -0.26     0.03  -0.18  -0.19
    19   1    -0.09  -0.05  -0.10     0.10   0.05   0.29    -0.11  -0.10   0.11
    20   1    -0.05   0.13  -0.03     0.43  -0.12  -0.12     0.16   0.04  -0.07
    21   6     0.04   0.02  -0.03     0.01  -0.02  -0.01    -0.01  -0.03  -0.03
    22   1    -0.21  -0.09   0.59    -0.19  -0.04   0.05    -0.28  -0.05   0.07
    23   1    -0.23   0.28  -0.23    -0.01   0.20   0.18     0.00   0.33   0.38
    24   1    -0.14  -0.58   0.08     0.14   0.07  -0.02     0.36   0.15  -0.06
                     46                     47                     48
                      A                      A                      A
 Frequencies --   1464.3680              1479.4251              1480.3010
 Red. masses --      1.1599                 1.1146                 1.0467
 Frc consts  --      1.4655                 1.4373                 1.3513
 IR Inten    --     40.6459                46.1182                27.7898
  Atom  AN      X      Y      Z        X      Y      Z        X      Y      Z
     1   6     0.05  -0.02   0.02     0.06  -0.02   0.01     0.01  -0.01  -0.00
     2   6    -0.02  -0.01   0.02    -0.02  -0.01   0.00     0.00  -0.01   0.00
     3   8     0.00   0.01  -0.01     0.00   0.00  -0.00     0.00   0.00  -0.00
     4   6    -0.06   0.02  -0.05    -0.03   0.02  -0.03    -0.02   0.00  -0.01
     5   6    -0.02  -0.01   0.00    -0.02   0.00   0.02     0.01  -0.01  -0.03
     6   1     0.05  -0.07   0.05    -0.11  -0.20   0.06     0.29   0.23  -0.03
     7   1     0.05   0.20  -0.03     0.07   0.24  -0.25    -0.08  -0.19   0.47
     8   1     0.17  -0.04  -0.04     0.34  -0.11  -0.13    -0.44   0.11   0.15
     9   7    -0.01   0.01   0.01    -0.01   0.01   0.01     0.01  -0.00  -0.01
    10   1     0.01   0.01   0.01    -0.00  -0.02  -0.01    -0.01   0.03   0.01
    11   1    -0.00  -0.04  -0.05    -0.01  -0.03  -0.02    -0.01  -0.02   0.01
    12  17    -0.00  -0.00   0.00    -0.00  -0.00   0.00     0.00  -0.00   0.00
    13   6    -0.01  -0.03   0.01     0.01  -0.01   0.01    -0.01  -0.01   0.01
    14   1    -0.05   0.04  -0.32    -0.06   0.04  -0.01     0.01  -0.00  -0.14
    15   1     0.37   0.10   0.09    -0.02  -0.01  -0.00     0.13   0.07   0.01
    16   1    -0.01   0.20   0.36     0.02   0.03   0.01    -0.01   0.04   0.10
    17   6    -0.03   0.00  -0.01     0.00  -0.03  -0.02    -0.01  -0.03  -0.01
    18   1    -0.07   0.07  -0.13    -0.08   0.37   0.34    -0.11   0.32   0.14
    19   1     0.18   0.12   0.16     0.24   0.20  -0.22     0.27   0.19  -0.06
    20   1     0.26  -0.13  -0.05    -0.31  -0.08   0.15    -0.08  -0.12   0.08
    21   6     0.01   0.02   0.02     0.01  -0.01  -0.01     0.00  -0.01  -0.01
    22   1     0.20   0.04  -0.05    -0.18  -0.03   0.05    -0.11  -0.02   0.07
    23   1    -0.00  -0.25  -0.29    -0.00   0.18   0.18    -0.02   0.12   0.08
    24   1    -0.28  -0.11   0.04     0.15   0.07  -0.03     0.07  -0.01  -0.01
                     49                     50                     51
                      A                      A                      A
 Frequencies --   1487.0994              1495.1278              1614.5863
 Red. masses --      1.0682                 1.4308                 1.0945
 Frc consts  --      1.3919                 1.8844                 1.6810
 IR Inten    --     39.3746               331.8013                48.4122
  Atom  AN      X      Y      Z        X      Y      Z        X      Y      Z
     1   6     0.03  -0.00   0.01     0.13  -0.03   0.04    -0.00  -0.00  -0.00
     2   6    -0.02  -0.00   0.00    -0.06  -0.02   0.02     0.00   0.00  -0.00
     3   8     0.00   0.00  -0.00     0.01   0.01  -0.01     0.00  -0.00   0.00
     4   6    -0.02   0.01  -0.01    -0.07   0.04  -0.07     0.00  -0.00   0.00
     5   6    -0.01  -0.05   0.00    -0.00  -0.01  -0.01    -0.00   0.01   0.01
     6   1    -0.25   0.48  -0.30     0.19  -0.02   0.06     0.01   0.00   0.03
     7   1    -0.00  -0.09  -0.35    -0.01   0.04   0.23    -0.02  -0.04  -0.00
     8   1     0.13   0.43   0.45    -0.12  -0.06  -0.04    -0.03  -0.04  -0.03
     9   7     0.01  -0.02   0.02    -0.01   0.01   0.00    -0.06  -0.05   0.00
    10   1    -0.01  -0.07  -0.03     0.01   0.06   0.05     0.68   0.05   0.17
    11   1     0.05   0.10   0.01    -0.02  -0.04  -0.02     0.24   0.51  -0.41
    12  17    -0.00  -0.00   0.00    -0.00  -0.00   0.00    -0.00   0.00   0.00
    13   6    -0.00  -0.01   0.01     0.01  -0.03   0.03    -0.00  -0.00  -0.00
    14   1     0.03  -0.02  -0.11    -0.08   0.05  -0.14    -0.00   0.00  -0.00
    15   1     0.08   0.07  -0.01     0.06   0.05  -0.00     0.02  -0.00   0.01
    16   1    -0.01   0.01   0.06     0.03   0.07   0.09    -0.00   0.02   0.02
    17   6     0.00   0.00  -0.00     0.02   0.02   0.00     0.00  -0.00  -0.00
    18   1     0.02  -0.02   0.06     0.19  -0.35   0.17    -0.01   0.02   0.01
    19   1    -0.04  -0.01  -0.07    -0.42  -0.22  -0.33     0.01   0.01  -0.01
    20   1    -0.08   0.04   0.01    -0.32   0.35  -0.04    -0.02   0.01   0.01
    21   6     0.00  -0.00   0.00     0.00  -0.00   0.01     0.00  -0.00   0.00
    22   1    -0.01   0.00  -0.02    -0.00   0.02  -0.14    -0.00  -0.00   0.00
    23   1     0.01   0.00   0.02     0.06  -0.06   0.04    -0.00   0.00  -0.00
    24   1     0.00   0.03  -0.00    -0.02   0.13  -0.02     0.00  -0.00   0.00
[...]
 258,0.00088583,0.00104654,-0.30046453,-0.06540348,-0.04437699,-0.01030
 762,-0.00706950,-0.00158853,-0.00764680,-0.00058574,-0.00332713,0.3198
 7321,0.00009447,-0.00092299,-0.00331066,0.00153742,-0.00213977,-0.0012
 7104,0.00218150,0.00241787,0.00098445,-0.01806931,-0.00673333,-0.00189
 910,-0.00008168,0.00016049,0.00005103,0.00001848,-0.00008011,0.0000094
 2,0.00000270,-0.00005045,-0.00003211,0.00001028,-0.00004996,-0.0000790
 0,0.00010946,-0.00031323,0.00138760,-0.00002425,-0.00006303,0.00007441
 ,-0.00008641,0.00026644,0.00003703,-0.00062403,-0.00010187,-0.00000187
 ,-0.06076315,-0.06418064,-0.00990578,0.02100402,0.01066317,0.00399202,
 -0.01388423,-0.00371173,-0.00445838,0.06949990,0.06450115,0.00215827,-
 0.00304700,-0.00303104,0.00081379,-0.00053499,-0.00075166,0.00040909,0
 .00008458,0.00157438,-0.02807967,-0.00716691,-0.00698092,-0.00004010,0
 .00020882,-0.00012736,0.00003259,-0.00000921,0.00002631,0.00005465,-0.
 00012147,0.00012682,0.00000552,0.00000032,0.00001516,-0.00078166,-0.00
 001081,0.00078371,-0.00006079,-0.00018491,0.00029005,0.00069030,0.0004
 5813,-0.00132837,-0.00053027,0.00120702,0.00046073,-0.04015647,-0.0093
 9494,-0.05444797,-0.00169962,-0.00081505,-0.00194413,0.02298008,0.0043
 9170,0.00632268,0.04549685,0.01514486,0.05946452,-0.08592716,-0.002630
 70,-0.00288981,0.00538656,0.01937166,0.02251871,-0.00577552,0.00150410
 ,0.00117897,0.00084327,-0.01929901,-0.02318854,0.00023794,0.00023141,0
 .00003034,-0.00000795,0.00005152,0.00002236,-0.00005853,-0.00007023,-0
 .00001338,-0.00002638,0.00008217,-0.00003901,0.00040097,0.00076618,0.0
 0038472,-0.00049678,-0.00132852,0.00030002,0.00032258,0.00032014,-0.00
 026565,-0.00157087,-0.00070976,-0.00252853,-0.00424383,-0.00014016,-0.
 00003746,-0.00022133,-0.00008336,0.00015929,-0.00001182,0.00007905,-0.
 00006683,-0.00014157,-0.00078039,-0.00114266,0.58944595,-0.00198195,-0
 .12366838,-0.07678232,0.00477362,-0.00982499,-0.01011291,0.00055634,0.
 00385021,-0.00161598,-0.00765137,-0.01541793,-0.00512198,0.00106429,-0
 .00020184,-0.00006264,-0.00023486,0.00018725,-0.00003762,-0.00034296,-
 0.00095711,-0.00007949,0.00023747,0.00008263,0.00004539,0.00387095,0.0
 0354681,-0.00354621,0.00024343,0.00128808,0.00032676,0.00037024,0.0006
 3319,-0.00078021,-0.00245215,0.00212195,-0.00009607,0.00035239,0.00325
 908,-0.00125422,0.00011880,0.00018738,0.00031386,-0.00015554,-0.000206
 96,-0.00052077,0.00030460,0.00058888,-0.00022406,-0.00370205,0.5237326
 7,-0.00451866,-0.07463117,-0.15324379,0.00602261,-0.00746983,-0.011923
 95,-0.00031623,-0.00189576,0.00392887,-0.00986648,-0.00347283,-0.01406
 384,0.00039196,0.00039615,-0.00009902,0.00015424,0.00004435,0.00006026
 ,0.00010899,-0.00033115,0.00018015,0.00005148,0.00002644,-0.00001645,-
 0.00044137,-0.00065560,0.00183510,-0.00009398,-0.00018100,0.00041428,0
 .00019668,0.00025140,-0.00005195,0.00332369,-0.00457286,-0.00307782,-0
 .00099001,-0.00204040,0.00245150,-0.00010185,-0.00022928,-0.00031084,0
 .00016373,0.00029286,0.00037201,0.00026748,-0.00061058,-0.00002362,-0.
 00086221,-0.02281920,0.50269594,0.00263569,-0.00068465,0.00007675,0.00
 053496,-0.00022366,-0.00127288,0.00007763,0.00022222,0.00042441,-0.001
 41578,-0.00114094,0.00029887,0.00004874,-0.00001685,-0.00005843,-0.000
 01026,0.00004207,-0.00000738,-0.00003933,-0.00005770,0.00005281,0.0000
 1292,-0.00002221,0.00000413,0.00024639,0.00017083,-0.00066207,0.000551
 17,0.00042459,0.00026878,0.00000815,-0.00001441,-0.00012236,-0.0025329
 7,-0.00145771,-0.00367424,0.00005160,0.00017561,-0.00008878,-0.0000312
 8,0.00001825,0.00004119,-0.00000334,0.00001792,-0.00002706,0.00014755,
 0.00000548,0.00001751,-0.27876639,0.08927920,0.04871385,0.30034991,0.0
 1658296,-0.00735064,-0.00302130,-0.00201851,-0.00256462,-0.00235458,0.
 00130607,-0.00025438,-0.00076083,0.00404699,0.00065432,-0.00102861,0.0
 0009360,-0.00006351,0.00013855,-0.00000960,-0.00001981,-0.00002099,0.0
 0005585,0.00006696,-0.00008042,-0.00004077,0.00006458,-0.00001680,-0.0
 0087374,-0.00076338,0.00057044,-0.00075037,-0.00151683,0.00002380,-0.0
 0012238,0.00004354,0.00019192,-0.00057105,0.00111263,0.00112778,0.0002
 2695,0.00004556,0.00021779,0.00004802,0.00001127,-0.00000732,0.0000124
 9,-0.00000024,0.00002211,-0.00006218,0.00001586,0.00005401,0.08956381,
 -0.08027353,-0.01850842,-0.09604986,0.08534136,0.02158357,-0.00592802,
 -0.00431858,-0.00234856,-0.00304446,-0.00356961,0.00165097,-0.00075655
 ,-0.00061849,0.00438823,-0.00134158,0.00052535,-0.00000237,0.00012005,
 -0.00005892,-0.00001318,0.00004068,0.00000241,-0.00000087,0.00003739,-
 0.00005909,0.00000285,0.00001141,-0.00000771,-0.00103638,-0.00015389,0
 .00049558,0.00000271,-0.00026875,0.00029974,-0.00004087,-0.00014538,0.
 00016530,-0.00228603,0.00095587,-0.00039466,0.00004930,0.00045292,-0.0
 0009134,0.00007341,0.00009282,0.00013101,0.00000566,-0.00004363,-0.000
 02841,-0.00003419,-0.00004145,0.00002467,0.04545251,-0.01757708,-0.054
 21818,-0.04880037,0.02283943,0.05745986,0.00145278,0.00070781,-0.00269
 624,-0.00137402,0.00087202,-0.00002875,0.00037804,-0.00037483,-0.00011
 078,0.00024129,-0.00044104,0.00009357,-0.00020613,0.00010382,-0.000065
 23,0.00001806,-0.00002655,0.00002838,0.00002783,0.00005023,-0.00003326
 ,0.00002143,-0.00004555,0.00001370,-0.00018410,-0.00010474,0.00019330,
 0.00031058,0.00045614,-0.00013169,0.00010462,-0.00000323,-0.00000352,0
 .00002799,-0.00024793,-0.00059120,-0.00018138,-0.00001108,-0.00005255,
 0.00003615,0.00003257,0.00003349,-0.00000940,-0.00005125,-0.00000620,-
 0.00000099,-0.00004780,-0.00006331,-0.13613430,-0.12415660,0.03201072,
 -0.01462230,-0.02341831,0.00606573,0.14540049,-0.00972639,-0.01336219,
 -0.00279353,-0.00379372,0.00125894,0.00027334,0.00099279,-0.00058445,-
 0.00093451,0.00457289,-0.00269553,-0.00077978,0.00000886,0.00019582,0.
 00004839,-0.00000871,-0.00003343,0.00002500,0.00001067,0.00005179,-0.0
 0012008,0.00001583,0.00001965,-0.00001478,-0.00059723,-0.00014443,0.00
 063163,-0.00009990,-0.00032868,-0.00002694,0.00001610,0.00005173,0.000
 09936,-0.00115518,0.00061143,0.00038733,-0.00041808,0.00038359,-0.0001
 7063,0.00002139,-0.00000147,0.00008241,-0.00005670,-0.00006968,-0.0001
 1091,-0.00005029,-0.00003996,-0.00018763,-0.12429824,-0.21183702,0.043
 15363,0.00752871,0.01016694,-0.00296572,0.13480419,0.22719972,-0.01665
 396,-0.02212573,0.00309600,-0.00135447,0.00062935,0.00144675,0.0001808
 2,-0.00012913,-0.00110198,0.00342591,-0.00390005,-0.00156306,-0.000176
 07,-0.00003452,0.00009610,-0.00003363,-0.00005160,-0.00000699,0.000053
 66,0.00003546,-0.00014100,0.00002504,0.00002364,0.00000646,-0.00007143
 ,0.00004118,-0.00002005,-0.00030764,-0.00015757,-0.00012923,-0.0000571
 1,0.00001720,0.00005596,-0.00113180,0.00092457,0.00021405,-0.00073305,
 0.00046514,-0.00039778,0.00002918,0.00004283,0.00009812,-0.00002873,-0
 .00005955,-0.00012738,-0.00006662,-0.00004205,-0.00027171,0.03029418,0
 .04156872,-0.05325263,0.00237422,0.00395177,-0.00195078,-0.03319575,-0
 .04053738,0.06010587,0.00027179,-0.00138026,0.00016652,-0.00077373,-0.
 00039085,0.00078482,0.00019418,0.00032691,-0.00010378,0.00008727,0.000
 88326,-0.00076421,-0.00019597,-0.00005048,0.00014611,-0.00002688,-0.00
 006676,-0.00000358,0.00012328,0.00001634,-0.00009629,0.00003123,0.0000
 2377,0.00001603,0.00025887,-0.00014249,-0.00000177,-0.00043414,-0.0001
 0004,-0.00027292,-0.00002731,0.00010529,0.00000049,-0.00048287,-0.0006
 9255,-0.00076762,-0.00025532,-0.00029272,0.00010791,-0.00000032,0.0000
 0034,-0.00004592,0.00000698,0.00006516,0.00006700,0.00001578,-0.000055
 54,-0.00006287,-0.07599877,0.03951485,-0.07203688,-0.00690636,0.012391
 67,-0.02462703,0.00647231,-0.00871215,0.01589881,0.07733301,-0.0088655
 3,0.01001228,-0.02100869,-0.00088103,0.00147113,0.00032803,0.00004883,
 -0.00120405,-0.00008598,0.00276995,0.00109592,-0.00322128,-0.00000314,
 0.00050621,0.00009816,0.00002536,-0.00005506,0.00006171,0.00011123,-0.
 00025987,-0.00028662,0.00013948,0.00002078,0.00001010,-0.00117971,-0.0
 0079322,0.00150183,-0.00025600,-0.00028719,0.00002365,0.00009862,0.000
 04211,0.00012339,0.00065437,-0.00007302,0.00029016,-0.00063819,-0.0006
 3199,0.00039575,-0.00000129,-0.00004440,-0.00003905,0.00002807,0.00002
 921,0.00009806,-0.00009136,-0.00025371,-0.00010544,0.03795934,-0.09471
 861,0.09284498,0.00153727,-0.00513006,0.00778211,0.00981392,-0.0112288
 9,0.01972579,-0.04183655,0.10152161,-0.00776371,0.00068827,-0.02005783
 ,-0.00456141,0.00100131,0.00091778,0.00117653,-0.00164095,-0.00119820,
 0.00653695,0.00257651,-0.00431230,-0.00092556,0.00013026,0.00010249,0.
 00009839,-0.00014648,0.00001858,0.00019863,0.00007980,-0.00027524,0.00
 004375,-0.00000277,0.00000557,-0.00182171,-0.00170110,0.00196637,-0.00
 031261,-0.00012903,-0.00019109,-0.00004888,-0.00013037,0.00021009,0.00
 013745,0.00005990,0.00034048,-0.00081962,-0.00062898,0.00037766,-0.000
 01234,-0.00006738,-0.00005157,0.00004124,0.00001618,0.00008160,-0.0000
 8421,-0.00032111,-0.00017819,-0.07298772,0.09820185,-0.22039129,0.0021
 5296,-0.00352570,0.00599085,-0.00293694,0.00327007,-0.00588387,0.08107
 487,-0.09818572,0.24181524,-0.02689435,-0.00869183,-0.00929574,-0.1733
 2195,-0.02229395,-0.02626125,0.00833740,-0.01217081,-0.01355709,-0.001
 28324,0.00213402,0.00177701,-0.00009045,0.00012722,0.00000150,0.000005
 21,-0.00008461,0.00002859,-0.00006591,0.00005586,-0.00001641,0.0000461
 9,0.00000165,-0.00000399,-0.00060054,-0.00038582,0.00006639,0.00010570
 ,0.00006300,-0.00015270,-0.00002665,-0.00010438,0.00014196,-0.00129715
 ,0.00031829,-0.00029040,0.00001589,-0.00002621,0.00016979,0.00007715,0
 .00008502,-0.00004346,0.00005870,-0.00005583,0.00000733,-0.00013091,0.
 00000703,-0.00003349,-0.00495990,0.00061081,-0.00068479,-0.00055933,-0
 .00043661,-0.00015486,-0.00080656,-0.00010309,0.00065567,0.00057368,0.
 00023416,-0.00013721,0.51339668,0.00329573,0.01161272,-0.00118324,-0.0
 1904929,-0.09114581,-0.00360931,-0.02654289,-0.01092888,-0.03819504,0.
 00449263,0.00129870,-0.00198174,0.00020549,-0.00005287,-0.00005685,-0.
 00004189,0.00002000,0.00000098,-0.00005987,0.00003606,0.00001859,0.000
 01690,0.00003697,-0.00000442,0.00080497,0.00076478,0.00003240,-0.00004
 496,-0.00002990,0.00005657,0.00004533,0.00016888,-0.00020239,-0.001658
 04,0.00058468,0.00048154,-0.00007024,0.00063042,-0.00032278,0.00067451
 ,0.00019097,-0.00010833,-0.00004090,-0.00047328,0.00017283,-0.00031965
 ,-0.00000676,0.00024524,0.00118345,-0.00242898,-0.00007461,0.00006645,
 -0.00012745,0.00019647,0.00196670,0.00007682,-0.00096589,0.00019185,0.
 00004462,0.00071548,-0.04848198,0.55693465,0.00219622,-0.00065678,0.01
 140671,-0.02214854,-0.00388420,-0.09353728,-0.02929895,-0.03810283,-0.
 01651371,0.00423861,-0.00050800,0.00063068,-0.00027341,0.00028396,-0.0
 0009853,0.00008874,-0.00003316,0.00004621,0.00007086,-0.00003309,-0.00
 004286,0.00003564,0.00002788,-0.00003418,-0.00221161,-0.00145905,0.000
 93425,0.00001761,-0.00011780,-0.00006337,-0.00006206,-0.00023644,0.000
 32605,0.00206355,-0.00070358,0.00040976,-0.00037336,-0.00120704,0.0001
 1708,0.00011653,0.00061433,-0.00007535,0.00015361,0.00010445,-0.000023
 35,-0.00018711,0.00028812,-0.00001694,0.00142908,0.00013452,-0.0017236
 1,0.00021183,0.00038085,-0.00031954,0.00079254,0.00083953,0.00013083,0
 .00092385,-0.00059646,0.00018470,-0.05054368,0.01593517,0.55767843,-0.
 00237095,0.00159783,-0.00141586,0.00448537,-0.02617745,0.00841835,-0.0
 0258468,0.00030429,-0.00419655,0.00157158,0.00064293,-0.00004050,-0.00
 000880,0.00002343,0.00001041,-0.00001149,-0.00001051,0.00000489,0.0000
 0144,0.00004602,-0.00004880,0.00000322,0.00000447,-0.00000188,-0.00000
 158,0.00002048,0.00000272,-0.00001465,-0.00002050,-0.00001500,0.000003
 96,0.00000607,0.00001078,-0.00077098,0.00033086,0.00012006,0.00001142,
 0.00015279,-0.00006988,0.00013875,0.00003353,-0.00000951,-0.00003944,-
 0.00009237,0.00003600,-0.00005307,-0.00001797,0.00004371,-0.00105403,-
 0.00117995,0.00032566,0.00005397,0.00008801,-0.00007014,-0.00086238,0.
 00075592,0.00072515,0.00022270,0.00028538,-0.00000745,-0.04767299,-0.0
 2005688,0.00466794,0.04643845,-0.00093250,-0.00004035,-0.00153923,0.00
 293560,-0.00859369,0.00108541,-0.00296564,0.00031531,-0.00141696,0.000
 89271,0.00021159,0.00002201,0.00001154,0.00004088,0.00001147,-0.000003
 65,-0.00001267,0.00000907,0.00001928,0.00001593,-0.00004402,0.00000688
 ,0.00000617,-0.00000262,-0.00019220,-0.00010703,0.00015318,-0.00002524
 ,-0.00005108,-0.00001555,0.00000599,0.00000870,0.00003384,-0.00040370,
 0.00018402,0.00004620,-0.00002256,0.00005505,-0.00001094,0.00011520,0.
 00005454,0.00000280,-0.00000923,-0.00006542,0.00002488,-0.00006028,0.0
 0000323,0.00002459,0.00155865,0.00031106,-0.00005386,0.00026536,0.0003
 4931,-0.00012133,0.00006174,0.00034586,0.00007885,-0.00012631,-0.00021
 294,0.00006105,-0.01698699,-0.31449596,0.04181709,0.01882775,0.3350781
 5,0.00020390,0.00032041,-0.00044019,0.00094847,-0.01467262,0.00175496,
 -0.00279774,0.00037277,-0.00333672,0.00051267,0.00003892,-0.00018960,-
 0.00007277,0.00001194,0.00000696,0.00000052,-0.00000378,0.00000615,-0.
 00001922,0.00001864,-0.00003196,0.00000624,-0.00000201,0.00000021,0.00
 004989,0.00000173,0.00007523,0.00001523,0.00002289,0.00000208,0.000018
 34,0.00001260,-0.00001345,-0.00027586,0.00010579,-0.00001646,-0.000033
 49,0.00011093,-0.00001762,0.00010356,0.00001444,-0.00000470,-0.0000194
 7,-0.00006684,0.00001180,-0.00004068,-0.00001248,0.00001271,0.00009046
 ,0.00074413,0.00039674,-0.00024835,-0.00012846,-0.00001311,0.00054948,
 -0.00056609,0.00011298,-0.00017598,0.00024527,-0.00004250,0.00407195,0
 .03801377,-0.04523555,-0.00267657,-0.04219959,0.04785495,-0.00359167,-
 0.00285882,-0.00307003,-0.02298525,0.01534442,0.01490174,0.00651130,0.
 00014223,0.00061553,0.00013428,0.00075161,0.00051553,-0.00012095,0.000
 06572,0.00003192,0.00000803,-0.00003670,0.00001094,0.00002226,0.000078
 58,-0.00004037,-0.00000813,-0.00001564,-0.00000430,-0.00037396,-0.0003
 3900,0.00015252,0.00003671,0.00000755,-0.00006250,0.00000193,-0.000037
 53,0.00007860,-0.00060700,0.00017470,-0.00012157,0.00001584,0.00005374
 ,0.00003828,-0.00005585,-0.00007153,0.00001776,-0.00003161,0.00002551,
 -0.00001141,0.00002913,-0.00006614,-0.00004867,0.00017967,-0.00057534,
 -0.00062416,0.00009667,0.00003525,0.00004576,0.00017333,0.00003065,-0.
 00011304,0.00007537,-0.00007578,0.00004112,-0.21736255,0.10022585,0.09
 492169,0.00319956,-0.00289022,-0.00278349,0.23256334,-0.00089640,-0.00
 046821,-0.00143713,-0.01182705,0.00416663,0.00498042,0.00022385,0.0002
 6911,0.00143117,-0.00064229,0.00013999,-0.00006391,0.00003232,-0.00004
 413,0.00001629,-0.00001100,0.00000477,-0.00000647,-0.00000703,0.000010
 92,0.00000262,-0.00000728,0.00000183,-0.00000011,0.00026005,0.00017074
 ,-0.00011876,-0.00002884,-0.00001927,0.00001157,0.00000599,0.00002551,
 -0.00003048,-0.00023429,0.00008482,-0.00002203,-0.00002337,0.00000279,
 -0.00001360,-0.00004049,-0.00001020,0.00000411,0.00000463,0.00001633,0
 .00000353,0.00002075,-0.00000153,0.00000227,0.00024241,-0.00063966,0.0
 0004442,0.00015502,0.00030525,-0.00008911,0.00006922,0.00052053,0.0000
 3986,-0.00000470,-0.00006582,-0.00007581,0.10350731,-0.10588675,-0.054
 98967,0.02323593,-0.00974546,-0.01341187,-0.10769055,0.10840824,-0.001
 17368,-0.00137711,-0.00069680,-0.01254069,0.00629484,0.00470405,0.0003
 5193,0.00129055,0.00064462,-0.00057103,-0.00014909,0.00039733,-0.00001
 113,0.00001053,0.00000862,0.00000135,-0.00000824,-0.00000324,-0.000007
 56,-0.00003956,-0.00000318,0.00001089,-0.00000139,0.00000588,-0.000173
 75,-0.00008104,-0.00004034,-0.00001632,-0.00001570,-0.00001649,-0.0000
 1681,-0.00003150,0.00004477,0.00010953,0.00001447,0.00000477,-0.000013
 40,0.00001919,-0.00000448,-0.00003101,-0.00001927,0.00001064,-0.000009
 07,0.00001475,0.00000602,0.00002030,-0.00000828,0.00000023,0.00038520,
 -0.00020761,-0.00048504,0.00010297,-0.00000880,0.00024792,0.00010672,0
 .00013125,-0.00023056,-0.00014990,-0.00010701,0.00043080,0.09857075,-0
 .05525745,-0.10034931,-0.00576314,0.00319989,0.00229266,-0.10215825,0.
 06047327,0.10211767,-0.00248281,-0.00104283,0.00127598,0.00665698,0.00
 876614,-0.02547782,-0.00306432,-0.00441875,-0.00025577,0.00159893,0.00
 048167,0.00035361,-0.00023366,0.00015227,0.00000581,0.00004207,-0.0000
 3531,0.00001867,0.00000649,-0.00001671,-0.00009362,0.00003997,0.000002
 26,-0.00000109,-0.00087202,-0.00067131,0.00040594,-0.00002385,-0.00004
 543,-0.00005742,-0.00002505,-0.00010616,0.00015221,0.00023746,-0.00007
 579,0.00010468,-0.00004926,-0.00024565,0.00003252,0.00001003,0.0001141
 3,0.00000177,0.00000875,0.00003000,0.00001347,-0.00002761,0.00003016,-
 0.00000278,-0.00142181,0.00113579,-0.00119447,0.00007199,-0.00009830,0
 .00009415,-0.00028334,0.00026167,0.00026067,-0.00056479,0.00012262,0.0
 0091747,-0.04754415,0.00319675,-0.00682960,-0.00068537,-0.00008219,0.0
 0257290,0.00208955,-0.00634419,0.02297610,0.04651582,0.00050270,0.0000
 4634,0.00035805,0.00167522,0.00137028,-0.01306353,-0.00299082,-0.00307
 340,-0.00019309,0.00021033,-0.00000775,-0.00010880,-0.00009946,0.00004
 561,-0.00000260,0.00001695,-0.00001252,0.00000947,-0.00001346,0.000017
 94,-0.00004138,0.00002115,0.00000058,-0.00000292,-0.00013035,-0.000142
 22,0.00011697,0.00001933,0.00003045,-0.00000647,0.00000259,-0.00003157
 ,0.00002494,0.00014702,-0.00007534,-0.00001664,-0.00008348,-0.00015138
 ,0.00004608,0.00002207,0.00007959,-0.00001027,0.00002147,0.00002056,-0
 .00000433,-0.00001961,0.00003196,-0.00001910,0.00012853,0.00038583,0.0
 0049233,-0.00024097,-0.00011314,-0.00005218,-0.00000943,-0.00055707,0.
 00045911,0.00033194,0.00021497,-0.00024526,0.00267774,-0.04682364,0.04
 210220,0.00119996,-0.00365518,0.03102952,-0.00227854,0.00275358,-0.014
 13668,-0.00111086,0.04964552,-0.00130096,-0.00131935,-0.00017388,0.004
 40239,0.00164509,-0.00953036,-0.00344765,-0.00171761,-0.00006075,0.001
 11497,0.00042925,-0.00002291,-0.00022393,0.00006466,0.00003347,0.00001
 818,-0.00002293,0.00001670,-0.00002701,0.00002992,-0.00009694,0.000008
 78,0.00000172,-0.00000485,-0.00040117,-0.00041469,0.00031372,-0.000013
 01,-0.00003086,-0.00003569,0.00000391,-0.00005010,0.00005018,-0.000079
 84,0.00011012,0.00012218,-0.00005087,-0.00012046,0.00004465,0.00004269
 ,0.00010473,-0.00001137,0.00003523,0.00000451,0.00001873,-0.00005618,0
 .00002495,-0.00000006,0.00177597,-0.00049685,0.00054717,0.00022163,-0.
 00005622,0.00030573,0.00002777,0.00026605,-0.00028610,-0.00007766,0.00
 010725,0.00013987,-0.00431587,0.04609300,-0.31383111,-0.00005038,-0.00
 116619,-0.00318557,-0.00233361,0.00324944,-0.00908653,0.00472662,-0.04
 673543,0.33473372\\-0.00000349,0.00000426,0.00000442,0.00000470,-0.000
 00546,-0.00002320,0.00000232,0.00001228,0.00001199,-0.00000441,-0.0000
 0168,0.00000466,-0.00000276,-0.00000419,-0.00000182,-0.00000225,-0.000
 00062,-0.00000873,-0.00000234,-0.00000371,-0.00000381,-0.00000416,0.00
 000148,-0.00000383,0.00000225,0.00000505,0.00000217,0.00000241,-0.0000
 0068,-0.00000123,-0.00000860,0.00000303,-0.00000102,0.00000322,0.00000
 473,0.00000457,-0.00000054,0.00000409,0.00000615,-0.00000648,0.0000094
 5,-0.00000457,-0.00000243,0.00001059,-0.00000099,-0.00000637,0.0000096
 8,-0.00000063,0.00000644,-0.00000018,0.00000383,0.00000523,-0.00000132
 ,0.00000808,0.00000578,-0.00000532,0.00000654,0.00000407,-0.00000833,0
 .00000142,-0.00000134,-0.00001307,0.00000132,0.00000422,-0.00000451,0.
 00000141,0.00000013,-0.00000769,-0.00000438,0.00000440,-0.00000789,-0.
 00000236\\\@
 The archive entry for this job was punched.


 MATERIAL COPIED FROM ONE SCHOLARLY BOOK WITHOUT CREDIT COMPRISES PLAGIARISM.
 MATERIAL COPIED FROM TWO SCHOLARLY BOOKS COMPRISES AN ESSAY.
 MATERIAL COPIED FROM THREE SCHOLARLY BOOKS COMPRISES A DISSERTATION.
 MATERIAL COPIED FROM FOUR SCHOLARLY BOOKS COMPRISES A FIFTH SCHOLARLY BOOK.

                               -- C&EN, 25 FEB 1980
 Job cpu time:       0 days  0 hours 23 minutes 10.8 seconds.
 Elapsed time:       0 days  0 hours  1 minutes 57.3 seconds.
 File lengths (MBytes):  RWF=    184 Int=      0 D2E=      0 Chk=     10 Scr=      1
 Normal termination of Gaussian 16 at Sat Dec 30 21:02:33 2023.
