Unloading slurm/anatra/current
  ERROR: No such file or directory on
    '/cm/local/modulefiles/slurm/anatra/current'
environment: line 0: unalias: gv: not found
environment: line 0: unalias: sl: not found
 Entering Gaussian System, Link 0=g16
 Initial command:
 /apps/gaussian/g16/C.01/g16/l1.exe "/local/jobs/1153187/Gau-988155.inp" -scrdir="/local/jobs/1153187/"
 Entering Link 1 = /apps/gaussian/g16/C.01/g16/l1.exe PID=    988156.
  
 Copyright (c) 1988-2019, Gaussian, Inc.  All Rights Reserved.
  
 This is part of the Gaussian(R) 16 program.  It is based on
 the Gaussian(R) 09 system (copyright 2009, Gaussian, Inc.),
 the Gaussian(R) 03 system (copyright 2003, Gaussian, Inc.),
 the Gaussian(R) 98 system (copyright 1998, Gaussian, Inc.),
 the Gaussian(R) 94 system (copyright 1995, Gaussian, Inc.),
 the Gaussian 92(TM) system (copyright 1992, Gaussian, Inc.),
 the Gaussian 90(TM) system (copyright 1990, Gaussian, Inc.),
 the Gaussian 88(TM) system (copyright 1988, Gaussian, Inc.),
 the Gaussian 86(TM) system (copyright 1986, Carnegie Mellon
 University), and the Gaussian 82(TM) system (copyright 1983,
 Carnegie Mellon University). Gaussian is a federally registered
 trademark of Gaussian, Inc.
  
 This software contains proprietary and confidential information,
 including trade secrets, belonging to Gaussian, Inc.
  
 This software is provided under written license and may be
 used, copied, transmitted, or stored only in accord with that
 written license.
  
 The following legend is applicable only to US Government
 contracts under FAR:
  
                    RESTRICTED RIGHTS LEGEND
  
 Use, reproduction and disclosure by the US Government is
 subject to restrictions as set forth in subparagraphs (a)
 and (c) of the Commercial Computer Software - Restricted
 Rights clause in FAR 52.227-19.
  
 Gaussian, Inc.
 340 Quinnipiac St., Bldg. 40, Wallingford CT 06492
  
  
 ---------------------------------------------------------------
 Warning -- This program may not be used in any manner that
 competes with the business of Gaussian, Inc. or will provide
 assistance to any competitor of Gaussian, Inc.  The licensee
 of this program is prohibited from giving any competitor of
 Gaussian, Inc. access to this program.  By using this program,
 the user acknowledges that Gaussian, Inc. is engaged in the
 business of creating and licensing software in the field of
 computational chemistry and represents and warrants to the
 licensee that it is not a competitor of Gaussian, Inc. and that
 it will not use this program in any manner prohibited above.
 ---------------------------------------------------------------
  

 Cite this work as:
 Gaussian 16, Revision C.01,
 M. J. Frisch, G. W. Trucks, H. B. Schlegel, G. E. Scuseria, 
 M. A. Robb, J. R. Cheeseman, G. Scalmani, V. Barone, 
 G. A. Petersson, H. Nakatsuji, X. Li, M. Caricato, A. V. Marenich, 
 J. Bloino, B. G. Janesko, R. Gomperts, B. Mennucci, H. P. Hratchian, 
 J. V. Ortiz, A. F. Izmaylov, J. L. Sonnenberg, D. Williams-Young, 
 F. Ding, F. Lipparini, F. Egidi, J. Goings, B. Peng, A. Petrone, 
 T. Henderson, D. Ranasinghe, V. G. Zakrzewski, J. Gao, N. Rega, 
 G. Zheng, W. Liang, M. Hada, M. Ehara, K. Toyota, R. Fukuda, 
 J. Hasegawa, M. Ishida, T. Nakajima, Y. Honda, O. Kitao, H. Nakai, 
 T. Vreven, K. Throssell, J. A. Montgomery, Jr., J. E. Peralta, 
 F. Ogliaro, M. J. Bearpark, J. J. Heyd, E. N. Brothers, K. N. Kudin, 
 V. N. Staroverov, T. A. Keith, R. Kobayashi, J. Normand, 
 K. Raghavachari, A. P. Rendell, J. C. Burant, S. S. Iyengar, 
 J. Tomasi, M. Cossi, J. M. Millam, M. Klene, C. Adamo, R. Cammi, 
 J. W. Ochterski, R. L. Martin, K. Morokuma, O. Farkas, 
 J. B. Foresman, and D. J. Fox, Gaussian, Inc., Wallingford CT, 2019.
 
 ******************************************
 Gaussian 16:  ES64L-G16RevC.01  3-Jul-2019
                30-Dec-2023 
 ******************************************
 %chk=TS-898_opt_sqm_reopt_freq.chk
 %nprocshared=12
 Will use up to   12 processors via shared memory.
 %mem=48GB
 -----------------------------------------------------------
 # wb97xd def2svp scrf=(iefpcm,solvent=toluene) freq=noraman
 -----------------------------------------------------------
 1/10=4,30=1,38=1/1,3;
 2/12=2,17=6,18=5,40=1/2;
 3/5=43,7=101,11=2,25=1,30=1,70=2201,71=2,72=13,74=-58,140=1/1,2,3;
 4//1;
 5/5=2,38=5,53=13,98=1/2;
 8/6=4,10=90,11=11/1;
 11/6=1,8=1,9=11,15=111,16=1/1,2,10;
 10/6=1/2;
 6/7=2,8=2,9=2,10=2,28=1/1;
 7/8=1,10=1,25=1/1,2,3,16;
 1/10=4,30=1/3;
 99//99;
 ------------------------
 TS-898_opt_sqm_reopt.out
 ------------------------
 Symbolic Z-matrix:
 Charge =  0 Multiplicity = 1
 C                    -0.58899  -0.47545  -0.15233 
 C                    -1.83161   0.04201   0.3673 
 O                    -1.95843   0.88104   1.2668 
 C                     0.65099  -0.02299   0.35312 
 C                     0.6835    2.14256  -1.28313 
 H                     1.01255   2.55046  -2.24779 
 H                    -0.36677   1.82174  -1.35233 
 H                     0.76982   2.91494  -0.51029 
 N                     1.47456   0.97608  -0.90007 
 H                     1.5853    0.32766  -1.68163 
 H                     2.41489   1.21806  -0.58093 
 Cl                    1.99896  -1.30275   0.42947 
 C                     0.76342   0.83856   1.58412 
 H                     0.12773   1.72532   1.49149 
 H                     0.38314   0.27589   2.44639 
 H                     1.81136   1.11116   1.77245 
 C                    -0.61058  -1.43924  -1.32118 
 H                     0.39358  -1.8345   -1.52979 
 H                    -1.24726  -2.31883  -1.13285 
 H                    -0.98343  -0.97984  -2.25581 
 C                    -3.10758  -0.51532  -0.26415 
 H                    -3.96803  -0.02149   0.20419 
 H                    -3.13657  -0.34277  -1.35125 
 H                    -3.18784  -1.60271  -0.10946 
 

 GradGradGradGradGradGradGradGradGradGradGradGradGradGradGradGradGradGrad
 Berny optimization.
 Initialization pass.
 Trust Radius=3.00D-01 FncErr=1.00D-07 GrdErr=1.00D-07 EigMax=2.50D+02 EigMin=1.00D-04
 Number of steps in this run=      2 maximum allowed number of steps=      2.
 GradGradGradGradGradGradGradGradGradGradGradGradGradGradGradGradGradGrad

                          Input orientation:                          
 ---------------------------------------------------------------------
 Center     Atomic      Atomic             Coordinates (Angstroms)
 Number     Number       Type             X           Y           Z
 ---------------------------------------------------------------------
      1          6           0       -0.588990   -0.475450   -0.152330
      2          6           0       -1.831610    0.042010    0.367300
      3          8           0       -1.958430    0.881040    1.266800
      4          6           0        0.650990   -0.022990    0.353120
      5          6           0        0.683500    2.142560   -1.283130
      6          1           0        1.012550    2.550460   -2.247790
      7          1           0       -0.366770    1.821740   -1.352330
      8          1           0        0.769820    2.914940   -0.510290
      9          7           0        1.474560    0.976080   -0.900070
     10          1           0        1.585300    0.327660   -1.681630
     11          1           0        2.414890    1.218060   -0.580930
     12         17           0        1.998960   -1.302750    0.429470
     13          6           0        0.763420    0.838560    1.584120
     14          1           0        0.127730    1.725320    1.491490
     15          1           0        0.383140    0.275890    2.446390
     16          1           0        1.811360    1.111160    1.772450
     17          6           0       -0.610580   -1.439240   -1.321180
     18          1           0        0.393580   -1.834500   -1.529790
     19          1           0       -1.247260   -2.318830   -1.132850
     20          1           0       -0.983430   -0.979840   -2.255810
     21          6           0       -3.107580   -0.515320   -0.264150
     22          1           0       -3.968030   -0.021490    0.204190
     23          1           0       -3.136570   -0.342770   -1.351250
     24          1           0       -3.187840   -1.602710   -0.109460
 ---------------------------------------------------------------------
                    Distance matrix (angstroms):
                    1          2          3          4          5
     1  C    0.000000
     2  C    1.442874   0.000000
     3  O    2.393608   1.236590   0.000000
     4  C    1.413418   2.483491   2.908806   0.000000
     5  C    3.122806   3.669061   3.882444   2.714402   0.000000
     6  H    4.013977   4.606546   4.895511   3.676697   1.097828
     7  H    2.601243   2.875817   3.205954   2.710613   1.100355
     8  H    3.670047   3.973831   3.839029   3.064479   1.096040
     9  N    2.631405   3.661895   4.060761   1.801914   1.460543
    10  H    2.776919   3.994369   4.643005   2.266296   2.065407
    11  H    3.474906   4.507216   4.759582   2.350319   2.084585
    12  Cl   2.778561   4.060235   4.596846   1.860279   4.066152
    13  C    2.563375   2.974781   2.740614   1.506741   3.150861
    14  H    2.838877   2.817153   2.261716   2.150878   2.860330
    15  H    2.874525   3.046708   2.690834   2.131397   4.181386
    16  H    3.461761   4.048303   3.810506   2.155749   3.416493
    17  C    1.515113   2.556556   3.728007   2.529941   3.808593
    18  H    2.170220   3.474437   4.552694   2.625486   3.995235
    19  H    2.189244   2.857530   4.062419   3.329015   4.863581
    20  H    2.198777   2.940118   4.101497   3.223881   3.670714
    21  C    2.521386   1.528871   2.369425   3.840607   4.740774
    22  H    3.427987   2.143578   2.445852   4.621421   5.341532
    23  H    2.818719   2.191892   3.120883   4.165663   4.557899
    24  H    2.833121   2.184437   3.094278   4.176854   5.512878
                    6          7          8          9         10
     6  H    0.000000
     7  H    1.798723   0.000000
     8  H    1.791834   1.787723   0.000000
     9  N    2.123317   2.076096   2.099468   0.000000
    10  H    2.364195   2.480180   2.954837   1.021542   0.000000
    11  H    2.553482   2.949088   2.364455   1.022069   1.640906
    12  Cl   4.794575   4.305105   4.492532   2.689933   2.699277
    13  C    4.204308   3.296469   2.949228   2.587631   3.406116
    14  H    3.930137   2.888103   2.415491   2.845149   3.761204
    15  H    5.254060   4.169207   3.981967   3.588908   4.299816
    16  H    4.344193   3.874716   3.090199   2.697044   3.549034
    17  C    4.405776   3.270230   4.639173   3.218527   2.841434
    18  H    4.486259   3.738678   4.872178   3.076431   2.473497
    19  H    5.482683   4.238839   5.643451   4.280061   3.915158
    20  H    4.055492   3.007557   4.614113   3.421311   2.938982
    21  C    5.505389   3.762715   5.182808   4.860522   4.974232
    22  H    6.118277   4.334665   5.619637   5.642368   5.875176
    23  H    5.137097   3.515238   5.155557   4.817203   4.780657
    24  H    6.282082   4.607605   6.019377   5.386390   5.383392
                   11         12         13         14         15
    11  H    0.000000
    12  Cl   2.747433   0.000000
    13  C    2.749330   2.728550   0.000000
    14  H    3.127833   3.714646   1.095000   0.000000
    15  H    3.765682   3.028357   1.097597   1.754399   0.000000
    16  H    2.431887   2.768709   1.099071   1.814040   1.786528
    17  C    4.094225   3.145330   3.939164   4.297750   4.257198
    18  H    3.782083   2.588185   4.120494   4.676658   4.501540
    19  H    5.121089   3.743155   4.625351   5.013273   4.711872
    20  H    4.380019   4.026121   4.593814   4.753401   5.055201
    21  C    5.796778   5.213243   4.498192   4.309289   4.489785
    22  H    6.549394   6.107155   5.003050   4.635055   4.903935
    23  H    5.817928   5.519619   5.022137   4.797272   5.214707
    24  H    6.290438   5.223343   4.943730   4.963046   4.776338
                   16         17         18         19         20
    16  H    0.000000
    17  C    4.684109   0.000000
    18  H    4.646698   1.099130   0.000000
    19  H    5.436980   1.102047   1.756272   0.000000
    20  H    5.330104   1.106164   1.775867   1.767354   0.000000
    21  C    5.566790   2.864603   3.949709   2.732779   2.948644
    22  H    6.094562   3.950853   5.031633   3.803687   3.984705
    23  H    6.029380   2.753866   3.836547   2.742627   2.420764
    24  H    5.991550   2.852588   3.859745   2.307814   3.139141
                   21         22         23         24
    21  C    0.000000
    22  H    1.097080   0.000000
    23  H    1.101091   1.792747   0.000000
    24  H    1.101266   1.790902   1.769780   0.000000
 Stoichiometry    C7H14ClNO
 Framework group  C1[X(C7H14ClNO)]
 Deg. of freedom    66
 Full point group                 C1      NOp   1
 Largest Abelian subgroup         C1      NOp   1
 Largest concise Abelian subgroup C1      NOp   1
                         Standard orientation:                         
 ---------------------------------------------------------------------
 Center     Atomic      Atomic             Coordinates (Angstroms)
 Number     Number       Type             X           Y           Z
 ---------------------------------------------------------------------
      1          6           0        0.588991   -0.475451    0.152328
      2          6           0        1.831612    0.042006   -0.367302
      3          8           0        1.958434    0.881035   -1.266802
      4          6           0       -0.650988   -0.022988   -0.353122
      5          6           0       -0.683493    2.142562    1.283128
      6          1           0       -1.012542    2.550462    2.247788
      7          1           0        0.366776    1.821739    1.352328
      8          1           0       -0.769811    2.914942    0.510288
      9          7           0       -1.474556    0.976084    0.900068
     10          1           0       -1.585297    0.327664    1.681628
     11          1           0       -2.414885    1.218066    0.580928
     12         17           0       -1.998961   -1.302745   -0.429472
     13          6           0       -0.763416    0.838562   -1.584122
     14          1           0       -0.127724    1.725320   -1.491492
     15          1           0       -0.383137    0.275891   -2.446392
     16          1           0       -1.811355    1.111164   -1.772452
     17          6           0        0.610579   -1.439241    1.321178
     18          1           0       -0.393582   -1.834499    1.529788
     19          1           0        1.247256   -2.318833    1.132848
     20          1           0        0.983430   -0.979842    2.255808
     21          6           0        3.107581   -0.515327    0.264148
     22          1           0        3.968032   -0.021499   -0.204192
     23          1           0        3.136571   -0.342777    1.351248
     24          1           0        3.187838   -1.602718    0.109458
 ---------------------------------------------------------------------
 Rotational constants (GHZ):           1.3850839           0.8171224           0.7406043
 Standard basis: def2SVP (5D, 7F)
 There are   224 symmetry adapted cartesian basis functions of A   symmetry.
 There are   214 symmetry adapted basis functions of A   symmetry.
   214 basis functions,   360 primitive gaussians,   224 cartesian basis functions
    44 alpha electrons       44 beta electrons
       nuclear repulsion energy       670.6683779360 Hartrees.
 NAtoms=   24 NActive=   24 NUniq=   24 SFac= 1.00D+00 NAtFMM=   60 NAOKFM=F Big=F
 Integral buffers will be    131072 words long.
 Raffenetti 2 integral format.
 Two-electron integral symmetry is turned on.
 Nuclear repulsion after empirical dispersion term =      670.6505240425 Hartrees.
 Force inversion solution in PCM.
 ------------------------------------------------------------------------------
 Polarizable Continuum Model (PCM)
 =================================
 Model                : PCM.
 Atomic radii         : UFF (Universal Force Field).
 Polarization charges : Total charges.
 Charge compensation  : None.
 Solution method      : Matrix inversion.
 Cavity type          : Scaled VdW (van der Waals Surface) (Alpha=1.100).
 Cavity algorithm     : GePol (No added spheres)
                        Default sphere list used, NSphG=   24.
                        Lebedev-Laikov grids with approx.  5.0 points / Ang**2.
                        Smoothing algorithm: York/Karplus (Gamma=1.0000).
                        Polarization charges: spherical gaussians, with
                                              point-specific exponents (IZeta= 3).
                        Self-potential: point-specific (ISelfS= 7).
                        Self-field    : sphere-specific E.n sum rule (ISelfD= 2).
 1st derivatives      : Analytical E(r).r(x)/FMM algorithm (CHGder, D1EAlg=3).
                        Cavity 1st derivative terms included.
 2nd derivatives      : Analytical E(r).r(xy)/FMM algorithm (CHGder, D2EAlg=3).
                        Cavity 2nd derivative terms included.
 Solvent              : Toluene, Eps=   2.374100 Eps(inf)=   2.238315
 ------------------------------------------------------------------------------
 One-electron integrals computed using PRISM.
   1 Symmetry operations used in ECPInt.
 ECPInt:  NShTT=    5460 NPrTT=   19488 LenC2=    5396 LenP2D=   15064.
 LDataN:  DoStor=T MaxTD1= 4 Len=   56
 NBasis=   214 RedAO= T EigKep=  1.01D-03  NBF=   214
 NBsUse=   214 1.00D-06 EigRej= -1.00D+00 NBFU=   214
 ExpMin= 1.22D-01 ExpMax= 1.04D+04 ExpMxC= 1.57D+03 IAcc=3 IRadAn=         5 AccDes= 0.00D+00
 Harris functional with IExCor= 4639 and IRadAn=       5 diagonalized for initial guess.
 HarFok:  IExCor= 4639 AccDes= 0.00D+00 IRadAn=         5 IDoV= 1 UseB2=F ITyADJ=14
 ICtDFT=  3500011 ScaDFX=  1.000000  1.000000  1.000000  1.000000
 FoFCou: FMM=F IPFlag=           0 FMFlag=      100000 FMFlg1=           0
         NFxFlg=           0 DoJE=T BraDBF=F KetDBF=T FulRan=T
         wScrn=  0.000000 ICntrl=       500 IOpCl=  0 I1Cent=   200000004 NGrid=           0
         NMat0=    1 NMatS0=      1 NMatT0=    0 NMatD0=    1 NMtDS0=    0 NMtDT0=    0
 Petite list used in FoFCou.
 Requested convergence on RMS density matrix=1.00D-08 within 128 cycles.
 Requested convergence on MAX density matrix=1.00D-06.
 Requested convergence on             energy=1.00D-06.
 No special actions if energy rises.
 Inv3:  Mode=1 IEnd=     8548032.
 Iteration    1 A*A^-1 deviation from unit magnitude is 2.89D-15 for    580.
 Iteration    1 A*A^-1 deviation from orthogonality  is 1.88D-15 for   1214    547.
 Iteration    1 A^-1*A deviation from unit magnitude is 2.89D-15 for    580.
 Iteration    1 A^-1*A deviation from orthogonality  is 1.37D-15 for   1265    377.
 Error on total polarization charges =  0.00583
 SCF Done:  E(RwB97XD) =  -864.737843956     A.U. after   14 cycles
            NFock= 14  Conv=0.99D-08     -V/T= 2.0064
 DoSCS=F DFT=T ScalE2(SS,OS)=  1.000000  1.000000
 Range of M.O.s used for correlation:     1   214
 NBasis=   214 NAE=    44 NBE=    44 NFC=     0 NFV=     0
 NROrb=    214 NOA=    44 NOB=    44 NVA=   170 NVB=   170
   1 Symmetry operations used in ECPInt.
 ECPInt:  NShTT=    5460 NPrTT=   19488 LenC2=    5396 LenP2D=   15064.
 LDataN:  DoStor=T MaxTD1= 5 Len=  102
 Symmetrizing basis deriv contribution to polar:
 IMax=3 JMax=2 DiffMx= 0.00D+00
 G2DrvN: will do    25 centers at a time, making    1 passes.
 Calling FoFCou, ICntrl=  3107 FMM=F I1Cent=   0 AccDes= 0.00D+00.
 NEqPCM:  Using equilibrium solvation (IEInf=0, Eps=   2.3741, EpsInf=   2.2383)
 G2PCM: DoFxE=T DoFxN=T DoGrad=T DoDP/DQ/DG/TGxP=FFFF NFrqRd=   0 IEInf=0 SqF1=F DoCFld=F IF1Alg=4.
 End of G2Drv F.D. properties file   721 does not exist.
 End of G2Drv F.D. properties file   722 does not exist.
 End of G2Drv F.D. properties file   788 does not exist.
          IDoAtm=111111111111111111111111
 NEqPCM:  Using equilibrium solvation (IEInf=0, Eps=   2.3741, EpsInf=   2.2383)
          Differentiating once with respect to electric field.
                with respect to dipole field.
          Differentiating once with respect to nuclear coordinates.
 Keep R1 ints in memory in canonical form, NReq=546878450.
          There are    75 degrees of freedom in the 1st order CPHF.  IDoFFX=6 NUNeed=     3.
     72 vectors produced by pass  0 Test12= 9.97D-15 1.33D-09 XBig12= 5.63D+01 4.68D+00.
 AX will form    72 AO Fock derivatives at one time.
     72 vectors produced by pass  1 Test12= 9.97D-15 1.33D-09 XBig12= 3.73D+00 3.06D-01.
     72 vectors produced by pass  2 Test12= 9.97D-15 1.33D-09 XBig12= 1.16D-01 4.18D-02.
     72 vectors produced by pass  3 Test12= 9.97D-15 1.33D-09 XBig12= 1.01D-03 4.15D-03.
     72 vectors produced by pass  4 Test12= 9.97D-15 1.33D-09 XBig12= 6.84D-06 2.87D-04.
     72 vectors produced by pass  5 Test12= 9.97D-15 1.33D-09 XBig12= 3.75D-08 2.15D-05.
     54 vectors produced by pass  6 Test12= 9.97D-15 1.33D-09 XBig12= 1.75D-10 1.32D-06.
     12 vectors produced by pass  7 Test12= 9.97D-15 1.33D-09 XBig12= 6.89D-13 7.22D-08.
      3 vectors produced by pass  8 Test12= 9.97D-15 1.33D-09 XBig12= 2.84D-15 4.65D-09.
 InvSVY:  IOpt=1 It=  1 EMax= 2.95D-15
 Solved reduced A of dimension   501 with    75 vectors.
 Isotropic polarizability for W=    0.000000      115.19 Bohr**3.
 End of Minotr F.D. properties file   721 does not exist.
 End of Minotr F.D. properties file   722 does not exist.
 End of Minotr F.D. properties file   788 does not exist.

 **********************************************************************

            Population analysis using the SCF Density.

 **********************************************************************

 Orbital symmetries:
       Occupied  (A) (A) (A) (A) (A) (A) (A) (A) (A) (A) (A) (A)
                 (A) (A) (A) (A) (A) (A) (A) (A) (A) (A) (A) (A)
                 (A) (A) (A) (A) (A) (A) (A) (A) (A) (A) (A) (A)
                 (A) (A) (A) (A) (A) (A) (A) (A)
       Virtual   (A) (A) (A) (A) (A) (A) (A) (A) (A) (A) (A) (A)
                 (A) (A) (A) (A) (A) (A) (A) (A) (A) (A) (A) (A)
                 (A) (A) (A) (A) (A) (A) (A) (A) (A) (A) (A) (A)
                 (A) (A) (A) (A) (A) (A) (A) (A) (A) (A) (A) (A)
                 (A) (A) (A) (A) (A) (A) (A) (A) (A) (A) (A) (A)
                 (A) (A) (A) (A) (A) (A) (A) (A) (A) (A) (A) (A)
                 (A) (A) (A) (A) (A) (A) (A) (A) (A) (A) (A) (A)
                 (A) (A) (A) (A) (A) (A) (A) (A) (A) (A) (A) (A)
                 (A) (A) (A) (A) (A) (A) (A) (A) (A) (A) (A) (A)
                 (A) (A) (A) (A) (A) (A) (A) (A) (A) (A) (A) (A)
                 (A) (A) (A) (A) (A) (A) (A) (A) (A) (A) (A) (A)
                 (A) (A) (A) (A) (A) (A) (A) (A) (A) (A) (A) (A)
                 (A) (A) (A) (A) (A) (A) (A) (A) (A) (A) (A) (A)
                 (A) (A) (A) (A) (A) (A) (A) (A) (A) (A) (A) (A)
                 (A) (A)
 The electronic state is 1-A.
 Alpha  occ. eigenvalues -- -101.66008 -19.18330 -14.53294 -10.40653 -10.35277
 Alpha  occ. eigenvalues --  -10.34214 -10.29622 -10.28403 -10.27307 -10.25550
 Alpha  occ. eigenvalues --   -9.56778  -7.32096  -7.31232  -7.31200  -1.07209
 Alpha  occ. eigenvalues --   -1.06383  -0.94769  -0.86176  -0.83060  -0.80245
 Alpha  occ. eigenvalues --   -0.78770  -0.73327  -0.67036  -0.65296  -0.60127
 Alpha  occ. eigenvalues --   -0.58360  -0.56003  -0.53705  -0.51968  -0.50907
 Alpha  occ. eigenvalues --   -0.49767  -0.49438  -0.47963  -0.46957  -0.46330
 Alpha  occ. eigenvalues --   -0.44967  -0.44101  -0.44047  -0.42679  -0.40558
 Alpha  occ. eigenvalues --   -0.38425  -0.37841  -0.28808  -0.25257
 Alpha virt. eigenvalues --    0.08286   0.08753   0.11083   0.14211   0.15419
 Alpha virt. eigenvalues --    0.16557   0.17185   0.19226   0.19765   0.20875
 Alpha virt. eigenvalues --    0.21500   0.22706   0.22947   0.24416   0.24952
 Alpha virt. eigenvalues --    0.25225   0.26993   0.28822   0.31104   0.31893
 Alpha virt. eigenvalues --    0.35491   0.37952   0.40831   0.46043   0.46440
 Alpha virt. eigenvalues --    0.48990   0.50540   0.50949   0.53232   0.53787
 Alpha virt. eigenvalues --    0.56649   0.57281   0.59136   0.60966   0.61522
 Alpha virt. eigenvalues --    0.63596   0.66737   0.68617   0.69395   0.71011
 Alpha virt. eigenvalues --    0.72543   0.72766   0.73263   0.73588   0.73874
 Alpha virt. eigenvalues --    0.74639   0.74984   0.75401   0.75879   0.77185
 Alpha virt. eigenvalues --    0.77317   0.78000   0.78747   0.79441   0.80099
 Alpha virt. eigenvalues --    0.81320   0.81625   0.83762   0.84150   0.85305
 Alpha virt. eigenvalues --    0.85596   0.86896   0.89581   0.91550   0.93141
 Alpha virt. eigenvalues --    0.93921   0.95031   0.96689   1.01588   1.03739
 Alpha virt. eigenvalues --    1.04862   1.08379   1.10878   1.13210   1.16704
 Alpha virt. eigenvalues --    1.18844   1.20400   1.25528   1.26007   1.27009
 Alpha virt. eigenvalues --    1.32463   1.35627   1.38183   1.41423   1.42611
 Alpha virt. eigenvalues --    1.43108   1.46310   1.46609   1.54661   1.56765
 Alpha virt. eigenvalues --    1.58526   1.61031   1.62210   1.63872   1.66692
 Alpha virt. eigenvalues --    1.67841   1.69133   1.72530   1.72841   1.77246
 Alpha virt. eigenvalues --    1.78791   1.82346   1.83639   1.84367   1.85091
 Alpha virt. eigenvalues --    1.86671   1.87586   1.89114   1.89812   1.91304
 Alpha virt. eigenvalues --    1.92289   1.92514   1.94158   1.95040   1.96610
 Alpha virt. eigenvalues --    1.99864   2.00734   2.03820   2.05965   2.06581
 Alpha virt. eigenvalues --    2.08303   2.09254   2.11997   2.13593   2.14831
 Alpha virt. eigenvalues --    2.18617   2.20153   2.21865   2.23096   2.30269
 Alpha virt. eigenvalues --    2.31719   2.35812   2.40370   2.40655   2.45561
 Alpha virt. eigenvalues --    2.45650   2.46763   2.50139   2.52335   2.55625
 Alpha virt. eigenvalues --    2.57641   2.58104   2.59102   2.65180   2.66877
 Alpha virt. eigenvalues --    2.69832   2.72770   2.75033   2.80143   2.81535
 Alpha virt. eigenvalues --    2.82648   2.84869   2.86574   2.91947   2.93889
 Alpha virt. eigenvalues --    3.00904   3.02348   3.02558   3.03357   3.05197
 Alpha virt. eigenvalues --    3.05562   3.06757   3.09738   3.12057   3.20317
 Alpha virt. eigenvalues --    3.24211   3.27618   3.47913   3.53588   3.76278
          Condensed to atoms (all electrons):
               1          2          3          4          5          6
     1  C    5.854119   0.222982  -0.123387   0.391026  -0.011286  -0.000783
     2  C    0.222982   4.721874   0.705914  -0.048117  -0.000322  -0.000025
     3  O   -0.123387   0.705914   7.829290  -0.019420   0.000111   0.000012
     4  C    0.391026  -0.048117  -0.019420   5.328202  -0.029598   0.003316
     5  C   -0.011286  -0.000322   0.000111  -0.029598   4.528217   0.403871
     6  H   -0.000783  -0.000025   0.000012   0.003316   0.403871   0.583806
     7  H    0.021700   0.006536   0.000463  -0.005194   0.402535  -0.018765
     8  H   -0.001230  -0.000256  -0.000371  -0.002361   0.406022  -0.019212
     9  N   -0.112460  -0.002239   0.000170   0.101722   0.311947  -0.015819
    10  H   -0.005576   0.000059  -0.000024  -0.004757  -0.016305  -0.009022
    11  H    0.008565  -0.000002  -0.000007  -0.006601  -0.016390  -0.002975
    12  Cl  -0.079850  -0.001154  -0.000008   0.259695   0.002924  -0.000164
    13  C   -0.054254   0.001216  -0.004326   0.375036   0.000480  -0.000076
    14  H   -0.027724   0.003575   0.026568   0.012421   0.003336   0.000025
    15  H   -0.011751   0.000178   0.003201  -0.003208  -0.000132   0.000007
    16  H    0.011722   0.001208   0.001861  -0.031721  -0.001398  -0.000020
    17  C    0.328106  -0.009432   0.004041  -0.069869  -0.000587   0.000096
    18  H   -0.023749   0.007744  -0.000073  -0.017134  -0.000079  -0.000012
    19  H   -0.001130  -0.018809   0.000006   0.005741  -0.000052  -0.000002
    20  H   -0.023870  -0.012446   0.000042   0.000110   0.000973   0.000038
    21  C   -0.196859   0.425963  -0.087761   0.007545  -0.000095  -0.000000
    22  H    0.018865  -0.014931   0.013050  -0.000242  -0.000003   0.000000
    23  H   -0.006074   0.002474   0.002432  -0.000292   0.000141  -0.000001
    24  H    0.000928  -0.007604   0.001900   0.000643  -0.000002   0.000000
               7          8          9         10         11         12
     1  C    0.021700  -0.001230  -0.112460  -0.005576   0.008565  -0.079850
     2  C    0.006536  -0.000256  -0.002239   0.000059  -0.000002  -0.001154
     3  O    0.000463  -0.000371   0.000170  -0.000024  -0.000007  -0.000008
     4  C   -0.005194  -0.002361   0.101722  -0.004757  -0.006601   0.259695
     5  C    0.402535   0.406022   0.311947  -0.016305  -0.016390   0.002924
     6  H   -0.018765  -0.019212  -0.015819  -0.009022  -0.002975  -0.000164
     7  H    0.545237  -0.014947  -0.028503  -0.001913   0.006373   0.000391
     8  H   -0.014947   0.567767  -0.020959   0.005693  -0.008202   0.000020
     9  N   -0.028503  -0.020959   6.368437   0.338082   0.333023  -0.084334
    10  H   -0.001913   0.005693   0.338082   0.508942  -0.013062   0.009008
    11  H    0.006373  -0.008202   0.333023  -0.013062   0.514566   0.011188
    12  Cl   0.000391   0.000020  -0.084334   0.009008   0.011188  17.088728
    13  C   -0.002660   0.006041  -0.045278   0.004665  -0.004280  -0.062005
    14  H    0.000067   0.001880  -0.000252  -0.000132  -0.000646   0.002920
    15  H    0.000013  -0.000177   0.003599  -0.000232  -0.000095   0.002506
    16  H   -0.000022  -0.000116  -0.002427  -0.000051   0.004441   0.001375
    17  C   -0.002575   0.000065   0.003074   0.004795  -0.000488  -0.015595
    18  H    0.000026  -0.000015  -0.002700   0.004103  -0.000082   0.021685
    19  H    0.000130   0.000002  -0.000315  -0.000124   0.000017   0.001309
    20  H   -0.000667  -0.000009   0.002869  -0.000164  -0.000119   0.000009
    21  C    0.000130  -0.000036  -0.000100  -0.000027   0.000009  -0.000112
    22  H   -0.000058   0.000001   0.000004   0.000000  -0.000000   0.000002
    23  H   -0.000468   0.000007   0.000042  -0.000004  -0.000001  -0.000001
    24  H    0.000034   0.000001  -0.000010   0.000002   0.000000   0.000013
              13         14         15         16         17         18
     1  C   -0.054254  -0.027724  -0.011751   0.011722   0.328106  -0.023749
     2  C    0.001216   0.003575   0.000178   0.001208  -0.009432   0.007744
     3  O   -0.004326   0.026568   0.003201   0.001861   0.004041  -0.000073
     4  C    0.375036   0.012421  -0.003208  -0.031721  -0.069869  -0.017134
     5  C    0.000480   0.003336  -0.000132  -0.001398  -0.000587  -0.000079
     6  H   -0.000076   0.000025   0.000007  -0.000020   0.000096  -0.000012
     7  H   -0.002660   0.000067   0.000013  -0.000022  -0.002575   0.000026
     8  H    0.006041   0.001880  -0.000177  -0.000116   0.000065  -0.000015
     9  N   -0.045278  -0.000252   0.003599  -0.002427   0.003074  -0.002700
    10  H    0.004665  -0.000132  -0.000232  -0.000051   0.004795   0.004103
    11  H   -0.004280  -0.000646  -0.000095   0.004441  -0.000488  -0.000082
    12  Cl  -0.062005   0.002920   0.002506   0.001375  -0.015595   0.021685
    13  C    4.554022   0.362365   0.391273   0.368321   0.006868   0.001208
    14  H    0.362365   0.575901  -0.010846  -0.017799  -0.000124  -0.000106
    15  H    0.391273  -0.010846   0.573240  -0.020231   0.000023  -0.000014
    16  H    0.368321  -0.017799  -0.020231   0.660425  -0.000257  -0.000025
    17  C    0.006868  -0.000124   0.000023  -0.000257   4.564954   0.383408
    18  H    0.001208  -0.000106  -0.000014  -0.000025   0.383408   0.651737
    19  H   -0.000249  -0.000017   0.000033  -0.000001   0.372899  -0.016994
    20  H   -0.000227   0.000046  -0.000013   0.000013   0.385815  -0.027085
    21  C    0.000426   0.001121   0.000020   0.000063   0.010202  -0.000333
    22  H   -0.000058  -0.000024   0.000007  -0.000003  -0.000481  -0.000016
    23  H    0.000041  -0.000083   0.000002  -0.000002   0.006540   0.000311
    24  H   -0.000051  -0.000019  -0.000021  -0.000003  -0.001024   0.000155
              19         20         21         22         23         24
     1  C   -0.001130  -0.023870  -0.196859   0.018865  -0.006074   0.000928
     2  C   -0.018809  -0.012446   0.425963  -0.014931   0.002474  -0.007604
     3  O    0.000006   0.000042  -0.087761   0.013050   0.002432   0.001900
     4  C    0.005741   0.000110   0.007545  -0.000242  -0.000292   0.000643
     5  C   -0.000052   0.000973  -0.000095  -0.000003   0.000141  -0.000002
     6  H   -0.000002   0.000038  -0.000000   0.000000  -0.000001   0.000000
     7  H    0.000130  -0.000667   0.000130  -0.000058  -0.000468   0.000034
     8  H    0.000002  -0.000009  -0.000036   0.000001   0.000007   0.000001
     9  N   -0.000315   0.002869  -0.000100   0.000004   0.000042  -0.000010
    10  H   -0.000124  -0.000164  -0.000027   0.000000  -0.000004   0.000002
    11  H    0.000017  -0.000119   0.000009  -0.000000  -0.000001   0.000000
    12  Cl   0.001309   0.000009  -0.000112   0.000002  -0.000001   0.000013
    13  C   -0.000249  -0.000227   0.000426  -0.000058   0.000041  -0.000051
    14  H   -0.000017   0.000046   0.001121  -0.000024  -0.000083  -0.000019
    15  H    0.000033  -0.000013   0.000020   0.000007   0.000002  -0.000021
    16  H   -0.000001   0.000013   0.000063  -0.000003  -0.000002  -0.000003
    17  C    0.372899   0.385815   0.010202  -0.000481   0.006540  -0.001024
    18  H   -0.016994  -0.027085  -0.000333  -0.000016   0.000311   0.000155
    19  H    0.647455  -0.029249   0.010670   0.000056  -0.003364   0.001460
    20  H   -0.029249   0.682711   0.002818   0.000068   0.001501  -0.001339
    21  C    0.010670   0.002818   4.780220   0.349240   0.351547   0.366442
    22  H    0.000056   0.000068   0.349240   0.628612  -0.014962  -0.013191
    23  H   -0.003364   0.001501   0.351547  -0.014962   0.644152  -0.016177
    24  H    0.001460  -0.001339   0.366442  -0.013191  -0.016177   0.621241
 Mulliken charges:
               1
     1  C   -0.178029
     2  C    0.015613
     3  O   -0.353685
     4  C   -0.246944
     5  C    0.015695
     6  H    0.075705
     7  H    0.092139
     8  H    0.080391
     9  N   -0.147574
    10  H    0.176040
    11  H    0.174767
    12  Cl  -0.158551
    13  C    0.101503
    14  H    0.067545
    15  H    0.072618
    16  H    0.024646
    17  C    0.029546
    18  H    0.018038
    19  H    0.030528
    20  H    0.018174
    21  C   -0.021094
    22  H    0.034064
    23  H    0.032240
    24  H    0.046624
 Sum of Mulliken charges =  -0.00000
 Mulliken charges with hydrogens summed into heavy atoms:
               1
     1  C   -0.178029
     2  C    0.015613
     3  O   -0.353685
     4  C   -0.246944
     5  C    0.263930
     9  N    0.203233
    12  Cl  -0.158551
    13  C    0.266312
    17  C    0.096287
    21  C    0.091834
 APT charges:
               1
     1  C   -1.048502
     2  C    1.181418
     3  O   -0.965121
     4  C    1.678191
     5  C    0.145811
     6  H    0.014116
     7  H    0.079785
     8  H    0.037768
     9  N   -0.807512
    10  H    0.198855
    11  H    0.173083
    12  Cl  -0.632846
    13  C   -0.109257
    14  H    0.065144
    15  H    0.037253
    16  H    0.002490
    17  C    0.133325
    18  H    0.017368
    19  H   -0.029439
    20  H   -0.061360
    21  C   -0.108935
    22  H    0.004935
    23  H   -0.006769
    24  H    0.000199
 Sum of APT charges =  -0.00000
 APT charges with hydrogens summed into heavy atoms:
               1
     1  C   -1.048502
     2  C    1.181418
     3  O   -0.965121
     4  C    1.678191
     5  C    0.277480
     9  N   -0.435575
    12  Cl  -0.632846
    13  C   -0.004370
    17  C    0.059894
    21  C   -0.110570
 Electronic spatial extent (au):  <R**2>=           1844.8201
 Charge=             -0.0000 electrons
 Dipole moment (field-independent basis, Debye):
    X=             -4.9605    Y=              2.7826    Z=              4.8835  Tot=              7.4965
 Quadrupole moment (field-independent basis, Debye-Ang):
   XX=            -70.4246   YY=            -66.8929   ZZ=            -67.6875
   XY=            -10.8632   XZ=              1.0722   YZ=              4.9401
 Traceless Quadrupole moment (field-independent basis, Debye-Ang):
   XX=             -2.0896   YY=              1.4421   ZZ=              0.6475
   XY=            -10.8632   XZ=              1.0722   YZ=              4.9401
 Octapole moment (field-independent basis, Debye-Ang**2):
  XXX=            -31.3893  YYY=             16.7815  ZZZ=              8.0327  XYY=            -11.3726
  XXY=              4.1612  XXZ=             18.2741  XZZ=            -17.7813  YZZ=              4.3552
  YYZ=              7.7309  XYZ=              4.0580
 Hexadecapole moment (field-independent basis, Debye-Ang**3):
 XXXX=          -1251.2209 YYYY=           -615.3142 ZZZZ=           -475.1831 XXXY=            -29.5901
 XXXZ=             -8.1944 YYYX=             -9.1781 YYYZ=             19.3668 ZZZX=            -10.9391
 ZZZY=             23.4359 XXYY=           -313.2651 XXZZ=           -300.0691 YYZZ=           -186.6007
 XXYZ=             18.5857 YYXZ=             -4.1056 ZZXY=             -9.5517
 N-N= 6.706505240425D+02 E-N=-3.375346295011D+03  KE= 8.592686961100D+02
  Exact polarizability:     139.236      -0.994     106.162      -1.011      -5.160     100.167
 Approx polarizability:     127.137       5.694     107.486      -3.507      -6.623     101.614
   1 Symmetry operations used in ECPInt.
 ECPInt:  NShTT=    5460 NPrTT=   19488 LenC2=    5396 LenP2D=   15064.
 LDataN:  DoStor=T MaxTD1= 6 Len=  172
 D2PCM: PCM CHGder 2nd derivatives, FixD1E=F FixD2E=F DoIter=F DoCFld=F I1PDM=0
 Calling FoFJK, ICntrl=    100127 FMM=F ISym2X=0 I1Cent= 0 IOpClX= 0 NMat=1 NMatS=1 NMatT=0.
 Full mass-weighted force constant matrix:
 Low frequencies --- -327.6152   -5.7586   -0.0041   -0.0027   -0.0022    6.4638
 Low frequencies ---   17.4289   61.3400   71.2559
 ******    1 imaginary frequencies (negative Signs) ****** 
 Diagonal vibrational polarizability:
      123.4211079      58.1510485      52.4305562
 Harmonic frequencies (cm**-1), IR intensities (KM/Mole), Raman scattering
 activities (A**4/AMU), depolarization ratios for plane and unpolarized
 incident light, reduced masses (AMU), force constants (mDyne/A),
 and normal coordinates:
                      1                      2                      3
                      A                      A                      A
 Frequencies --   -327.6148                61.2852                70.8513
 Red. masses --      5.5916                 2.1573                 4.2964
 Frc consts  --      0.3536                 0.0048                 0.0127
 IR Inten    --    375.6037                 4.0415                 0.9684
  Atom  AN      X      Y      Z        X      Y      Z        X      Y      Z
     1   6     0.02   0.09   0.07    -0.00  -0.03  -0.04    -0.01  -0.10  -0.06
     2   6    -0.04  -0.02  -0.01    -0.00  -0.01  -0.02    -0.03   0.06   0.06
     3   8     0.00   0.00  -0.02    -0.01  -0.10  -0.11    -0.04   0.19   0.18
     4   6    -0.11   0.30   0.27     0.00  -0.02  -0.03    -0.03  -0.05  -0.01
     5   6     0.01  -0.08  -0.08     0.09  -0.08   0.07     0.18   0.01  -0.16
     6   1    -0.30  -0.23  -0.13     0.11  -0.09   0.09     0.18   0.11  -0.20
     7   1     0.02   0.06   0.09     0.08  -0.13   0.07     0.16  -0.03  -0.12
     8   1    -0.03  -0.09  -0.08     0.13  -0.05   0.10     0.22  -0.06  -0.24
     9   7     0.22  -0.26  -0.22     0.04  -0.03   0.03     0.11   0.01  -0.06
    10   1     0.20  -0.21  -0.16     0.01  -0.05   0.00     0.14   0.06  -0.01
    11   1     0.19  -0.35  -0.24     0.05   0.03   0.04     0.10   0.03  -0.00
    12  17    -0.05  -0.01  -0.01    -0.04   0.02  -0.02    -0.08   0.01   0.07
    13   6    -0.00   0.06   0.06    -0.01   0.01  -0.00    -0.03  -0.10  -0.05
    14   1     0.08   0.02  -0.10     0.01  -0.00   0.00     0.04  -0.14  -0.12
    15   1    -0.01  -0.15   0.20    -0.05   0.02  -0.02    -0.10  -0.17  -0.04
    16   1     0.02   0.09  -0.03    -0.01   0.04   0.03    -0.02  -0.04  -0.03
    17   6    -0.00   0.06   0.05    -0.02   0.04   0.02     0.00  -0.17  -0.12
    18   1     0.00   0.01  -0.00     0.04  -0.26  -0.25     0.04  -0.33  -0.26
    19   1     0.00   0.07   0.02     0.31   0.24   0.25     0.15  -0.06  -0.12
    20   1    -0.03  -0.03   0.12    -0.43   0.21   0.11    -0.16  -0.19  -0.04
    21   6    -0.02  -0.02  -0.01     0.00   0.15   0.11    -0.01   0.09   0.07
    22   1    -0.03  -0.02  -0.03    -0.01   0.27   0.20    -0.03   0.22   0.17
    23   1     0.01  -0.01  -0.01    -0.13   0.13   0.12    -0.08  -0.02   0.09
    24   1     0.00  -0.02  -0.00     0.16   0.17   0.09     0.09   0.12  -0.05
                      4                      5                      6
                      A                      A                      A
 Frequencies --    104.9094               107.9947               158.1994
 Red. masses --      1.3401                 2.0549                 1.7822
 Frc consts  --      0.0087                 0.0141                 0.0263
 IR Inten    --      3.8103                 2.5079                 4.7028
  Atom  AN      X      Y      Z        X      Y      Z        X      Y      Z
     1   6    -0.01   0.00  -0.01    -0.01   0.03   0.01     0.02   0.02   0.02
     2   6    -0.01   0.01  -0.01    -0.02   0.03   0.00     0.02  -0.00  -0.00
     3   8    -0.00  -0.04  -0.05    -0.02   0.07   0.04     0.02  -0.06  -0.06
     4   6    -0.01   0.01  -0.00    -0.01   0.00  -0.02     0.02   0.03   0.03
     5   6     0.04  -0.03   0.02     0.11  -0.12   0.11    -0.10   0.03   0.05
     6   1     0.02  -0.02   0.01    -0.05  -0.06   0.03    -0.39   0.16  -0.10
     7   1     0.03  -0.08   0.07     0.03  -0.35   0.37    -0.14  -0.02   0.42
     8   1     0.11  -0.03   0.02     0.48  -0.10   0.09     0.19  -0.06  -0.06
     9   7     0.01  -0.00  -0.01    -0.04   0.05  -0.10    -0.05   0.03  -0.06
    10   1    -0.02  -0.01  -0.02    -0.30   0.03  -0.15    -0.17   0.04  -0.07
    11   1     0.03   0.04  -0.02     0.06   0.25  -0.25    -0.00   0.05  -0.19
    12  17    -0.01   0.00   0.00     0.01  -0.02   0.01    -0.01   0.03   0.05
    13   6    -0.01   0.00  -0.00     0.00  -0.06  -0.07     0.04  -0.01  -0.01
    14   1     0.01  -0.01  -0.02    -0.06  -0.01  -0.07     0.05  -0.02  -0.04
    15   1    -0.03  -0.00  -0.01     0.08  -0.07  -0.02     0.04  -0.05   0.02
    16   1    -0.01   0.02   0.00    -0.01  -0.13  -0.13     0.05  -0.00  -0.03
    17   6     0.01  -0.04  -0.05    -0.02   0.09   0.06     0.05  -0.11  -0.08
    18   1    -0.05   0.27   0.24    -0.02   0.11   0.09     0.06  -0.15  -0.12
    19   1    -0.32  -0.25  -0.26    -0.03   0.07   0.10     0.07  -0.07  -0.20
    20   1     0.43  -0.19  -0.15    -0.00   0.13   0.03     0.04  -0.22  -0.02
    21   6    -0.02   0.09   0.09    -0.01  -0.03  -0.06     0.03   0.03   0.01
    22   1    -0.00  -0.07  -0.05    -0.01  -0.07  -0.10     0.01   0.25   0.20
    23   1    -0.00   0.39   0.04     0.05  -0.04  -0.06    -0.09  -0.25   0.06
    24   1    -0.07   0.04   0.40    -0.07  -0.04  -0.07     0.18   0.08  -0.27
                      7                      8                      9
                      A                      A                      A
 Frequencies --    191.3735               211.7910               217.2016
 Red. masses --      1.4084                 1.5959                 1.9532
 Frc consts  --      0.0304                 0.0422                 0.0543
 IR Inten    --      1.7865                 1.2121                 2.0914
  Atom  AN      X      Y      Z        X      Y      Z        X      Y      Z
     1   6     0.03  -0.04  -0.04    -0.01  -0.01   0.03     0.01   0.02  -0.09
     2   6     0.03  -0.02  -0.02    -0.03  -0.01   0.01     0.05   0.03  -0.02
     3   8     0.04   0.03   0.03    -0.05  -0.02  -0.00     0.14   0.04   0.00
     4   6     0.02  -0.02  -0.02    -0.01   0.00   0.03    -0.01  -0.01  -0.06
     5   6    -0.08   0.01   0.03     0.05   0.04  -0.06    -0.03  -0.03   0.03
     6   1    -0.25   0.09  -0.05    -0.21   0.41  -0.30    -0.12   0.07  -0.05
     7   1    -0.09   0.04   0.23    -0.02  -0.06   0.37    -0.03  -0.01   0.15
     8   1     0.03  -0.06  -0.04     0.39  -0.20  -0.34     0.05  -0.10  -0.06
     9   7    -0.00  -0.03   0.00     0.01   0.02   0.07     0.01  -0.06   0.05
    10   1     0.01  -0.04  -0.01     0.05   0.08   0.12     0.11  -0.09   0.04
    11   1    -0.01  -0.08  -0.02    -0.00   0.02   0.10    -0.03  -0.10   0.14
    12  17    -0.05   0.03   0.02     0.06  -0.03  -0.06    -0.03  -0.01   0.03
    13   6     0.03  -0.02  -0.02    -0.05   0.04   0.06    -0.07  -0.01  -0.05
    14   1     0.08  -0.06  -0.04     0.09  -0.05  -0.02     0.22  -0.20  -0.20
    15   1    -0.03  -0.06  -0.02    -0.25  -0.00   0.01    -0.43  -0.15  -0.12
    16   1     0.04   0.03   0.01    -0.04   0.18   0.20    -0.03   0.27   0.16
    17   6     0.03   0.00  -0.01    -0.02  -0.01   0.02    -0.01   0.11  -0.02
    18   1     0.06  -0.15  -0.14    -0.02  -0.05  -0.02    -0.04   0.26   0.11
    19   1     0.19   0.10   0.10     0.01   0.01   0.04    -0.15   0.01   0.00
    20   1    -0.17   0.09   0.03    -0.07  -0.01   0.04     0.13   0.15  -0.10
    21   6     0.04  -0.01  -0.02    -0.02  -0.00  -0.01    -0.02  -0.05   0.05
    22   1     0.04  -0.31  -0.33    -0.02  -0.05  -0.07     0.03   0.06   0.26
    23   1     0.20   0.44  -0.10     0.02   0.06  -0.03    -0.16  -0.28   0.09
    24   1    -0.14  -0.08   0.43    -0.05  -0.01   0.05     0.02  -0.01  -0.17
                     10                     11                     12
                      A                      A                      A
 Frequencies --    233.7308               280.1666               301.4535
 Red. masses --      2.8931                 1.3840                 2.4214
 Frc consts  --      0.0931                 0.0640                 0.1296
 IR Inten    --     23.4491                 1.2762                 3.3392
  Atom  AN      X      Y      Z        X      Y      Z        X      Y      Z
     1   6    -0.03   0.08  -0.04    -0.00  -0.03  -0.06     0.01  -0.00  -0.04
     2   6    -0.00   0.01  -0.02    -0.00  -0.01  -0.02     0.04   0.00  -0.02
     3   8     0.08  -0.01  -0.02    -0.01   0.01  -0.00     0.10   0.01  -0.00
     4   6    -0.04   0.09  -0.00     0.02   0.01  -0.05    -0.02  -0.03   0.00
     5   6     0.02   0.01   0.01    -0.01   0.03   0.03     0.03  -0.06  -0.13
     6   1     0.12  -0.14   0.11    -0.20   0.14  -0.08     0.06   0.10  -0.19
     7   1     0.02  -0.02  -0.14    -0.01   0.09   0.24    -0.02  -0.19  -0.06
     8   1    -0.06   0.11   0.13     0.08  -0.06  -0.08     0.16  -0.13  -0.21
     9   7    -0.03   0.05  -0.06     0.08  -0.04   0.04    -0.09  -0.00  -0.03
    10   1    -0.10   0.04  -0.08     0.22  -0.07   0.03    -0.21   0.07   0.01
    11   1    -0.00   0.11  -0.09     0.02  -0.12   0.15    -0.04   0.06  -0.14
    12  17     0.11  -0.06   0.08     0.02  -0.00   0.03    -0.08  -0.05   0.02
    13   6    -0.10   0.08  -0.01    -0.01   0.01  -0.05    -0.00   0.15   0.13
    14   1    -0.06   0.06  -0.03    -0.39   0.26   0.12    -0.22   0.28   0.42
    15   1    -0.17   0.07  -0.03     0.42   0.19   0.03     0.27   0.44   0.07
    16   1    -0.10   0.12   0.05    -0.07  -0.37  -0.27    -0.03  -0.02   0.02
    17   6    -0.09  -0.04  -0.14    -0.07   0.02  -0.02     0.09   0.04  -0.01
    18   1    -0.05  -0.26  -0.41    -0.09   0.09  -0.01     0.12   0.00   0.04
    19   1     0.12   0.11  -0.10    -0.12  -0.03   0.03     0.13   0.07   0.01
    20   1    -0.38  -0.09   0.01    -0.05   0.05  -0.04     0.10   0.11  -0.05
    21   6    -0.08  -0.07   0.07    -0.03  -0.02   0.03     0.02  -0.02   0.03
    22   1    -0.00  -0.28  -0.00    -0.00  -0.01   0.09     0.04  -0.02   0.06
    23   1    -0.08   0.13   0.04    -0.10  -0.05   0.03    -0.02  -0.03   0.03
    24   1    -0.22  -0.11   0.29    -0.03  -0.01   0.00     0.02  -0.02   0.03
                     13                     14                     15
                      A                      A                      A
 Frequencies --    330.5854               354.0213               364.9509
 Red. masses --      2.9601                 3.5627                 2.9866
 Frc consts  --      0.1906                 0.2631                 0.2344
 IR Inten    --      3.6825                32.6026                 5.5951
  Atom  AN      X      Y      Z        X      Y      Z        X      Y      Z
     1   6     0.01   0.16   0.10     0.02  -0.10  -0.06    -0.04  -0.00  -0.03
     2   6     0.03   0.06   0.02     0.03  -0.07  -0.00    -0.09   0.04  -0.07
     3   8     0.11  -0.01  -0.04     0.01  -0.01   0.05    -0.02   0.06  -0.06
     4   6    -0.04   0.04   0.09     0.01   0.01   0.01    -0.03  -0.01   0.02
     5   6     0.04   0.03   0.02    -0.00   0.20   0.14     0.02   0.08   0.06
     6   1     0.10   0.10   0.01    -0.16  -0.05   0.19    -0.03   0.05   0.05
     7   1     0.03  -0.02  -0.01     0.04   0.34   0.18     0.03   0.12   0.08
     8   1     0.04  -0.01  -0.02    -0.06   0.34   0.28    -0.00   0.09   0.06
     9   7    -0.02   0.03   0.11     0.13   0.14  -0.11     0.05   0.04   0.03
    10   1     0.05   0.04   0.12    -0.03   0.17  -0.11     0.08   0.04   0.04
    11   1    -0.05   0.05   0.19     0.18   0.16  -0.23     0.02   0.04   0.09
    12  17    -0.05  -0.01  -0.08    -0.06  -0.11  -0.06    -0.03  -0.09  -0.00
    13   6    -0.11  -0.16  -0.04    -0.14   0.03   0.04     0.24   0.00   0.02
    14   1    -0.35   0.03  -0.16    -0.19   0.07   0.04     0.44  -0.15   0.13
    15   1     0.13  -0.24   0.12    -0.23   0.11  -0.05     0.28  -0.06   0.08
    16   1    -0.15  -0.45  -0.21    -0.18  -0.01   0.18     0.33   0.22  -0.14
    17   6     0.12  -0.00  -0.04     0.05  -0.00   0.03     0.09   0.02  -0.02
    18   1     0.17  -0.18  -0.13     0.06   0.03   0.12     0.13  -0.07   0.01
    19   1     0.24   0.12  -0.20     0.04  -0.02   0.08     0.17   0.08  -0.02
    20   1     0.05  -0.13   0.05     0.10   0.09  -0.03     0.07   0.07  -0.04
    21   6    -0.02  -0.05   0.04     0.07   0.00   0.02    -0.20  -0.03   0.02
    22   1     0.03  -0.17   0.03     0.03   0.08   0.04    -0.10  -0.11   0.13
    23   1     0.00  -0.03   0.04     0.04   0.01   0.02    -0.31  -0.04   0.03
    24   1    -0.14  -0.06   0.07     0.16   0.01   0.02    -0.29  -0.03   0.03
                     16                     17                     18
                      A                      A                      A
 Frequencies --    371.6222               466.7235               500.6464
 Red. masses --      3.4188                 3.1939                 3.0927
 Frc consts  --      0.2782                 0.4099                 0.4567
 IR Inten    --     16.8848                24.4680                77.1437
  Atom  AN      X      Y      Z        X      Y      Z        X      Y      Z
     1   6    -0.01  -0.10  -0.06     0.08  -0.10  -0.07     0.12   0.09   0.13
     2   6    -0.07  -0.05  -0.01     0.03   0.02  -0.14     0.06   0.17   0.05
     3   8    -0.08  -0.00   0.03     0.09   0.11  -0.08    -0.09   0.03  -0.11
     4   6    -0.01  -0.03  -0.02     0.01  -0.07   0.16     0.17  -0.12  -0.10
     5   6    -0.03  -0.03  -0.01    -0.01   0.02  -0.01    -0.01  -0.02  -0.01
     6   1    -0.06  -0.08  -0.00     0.01  -0.01   0.01    -0.06  -0.05  -0.01
     7   1    -0.03  -0.00  -0.01    -0.01   0.03  -0.06     0.01   0.05   0.04
     8   1    -0.04  -0.00   0.02    -0.05   0.03   0.01    -0.00   0.01   0.02
     9   7     0.00  -0.03  -0.06    -0.02   0.01  -0.00     0.07  -0.03  -0.07
    10   1    -0.04  -0.03  -0.07    -0.32   0.16   0.08     0.07  -0.05  -0.09
    11   1     0.02  -0.03  -0.12     0.11   0.06  -0.33     0.08  -0.07  -0.10
    12  17     0.08   0.12  -0.01     0.04   0.05  -0.03    -0.05  -0.00   0.01
    13   6    -0.11   0.00  -0.01    -0.02  -0.15   0.19    -0.02   0.02   0.02
    14   1    -0.17   0.05  -0.06    -0.08  -0.10   0.13    -0.06   0.05   0.08
    15   1    -0.18   0.04  -0.06     0.02  -0.18   0.22    -0.20   0.22  -0.18
    16   1    -0.15  -0.06   0.10    -0.03  -0.23   0.15    -0.08   0.02   0.31
    17   6     0.25   0.01   0.04    -0.11  -0.02   0.02    -0.02  -0.04   0.05
    18   1     0.35  -0.14   0.23    -0.20   0.18  -0.07    -0.08   0.01  -0.14
    19   1     0.38   0.11   0.08    -0.24  -0.16   0.21    -0.07  -0.08   0.02
    20   1     0.29   0.20  -0.07    -0.17   0.01   0.03    -0.11  -0.19   0.16
    21   6    -0.14  -0.09   0.10    -0.07   0.02  -0.01    -0.05  -0.05   0.04
    22   1    -0.06  -0.12   0.22     0.05  -0.01   0.17     0.17  -0.35   0.13
    23   1    -0.26  -0.10   0.10    -0.30   0.04  -0.01    -0.06  -0.18   0.06
    24   1    -0.16  -0.09   0.10    -0.08   0.01   0.04    -0.46  -0.07  -0.05
                     19                     20                     21
                      A                      A                      A
 Frequencies --    566.2551               614.1053               658.9712
 Red. masses --      3.5944                 3.2454                 2.8419
 Frc consts  --      0.6790                 0.7211                 0.7271
 IR Inten    --     83.7271                11.6798                43.3625
  Atom  AN      X      Y      Z        X      Y      Z        X      Y      Z
     1   6    -0.10  -0.03   0.04     0.01   0.01   0.14    -0.02   0.19   0.10
     2   6    -0.11   0.12   0.12    -0.01  -0.12  -0.18    -0.01  -0.14  -0.10
     3   8     0.23  -0.06  -0.02     0.11   0.08   0.01    -0.03   0.02   0.06
     4   6    -0.12  -0.15  -0.06     0.08   0.06  -0.04    -0.05  -0.17  -0.06
     5   6     0.00   0.01   0.01    -0.00  -0.01  -0.00     0.00   0.00   0.00
     6   1    -0.14  -0.09   0.01     0.05   0.02  -0.00    -0.11  -0.08   0.00
     7   1     0.01   0.08   0.12    -0.02  -0.07  -0.02    -0.00   0.02   0.09
     8   1     0.02   0.07   0.07     0.03  -0.02  -0.02     0.05   0.06   0.06
     9   7     0.08  -0.01  -0.09    -0.03   0.02   0.01     0.05   0.00  -0.08
    10   1     0.23  -0.05  -0.10     0.12  -0.07  -0.04     0.25  -0.05  -0.09
    11   1     0.00  -0.02   0.12    -0.09  -0.02   0.15    -0.05  -0.03   0.17
    12  17     0.03   0.04   0.00    -0.01  -0.02   0.01     0.01   0.03  -0.00
    13   6    -0.04  -0.02   0.04    -0.02   0.09  -0.12    -0.00  -0.09   0.11
    14   1    -0.04  -0.04   0.28    -0.10   0.15  -0.20     0.05  -0.16   0.38
    15   1     0.03   0.17  -0.05    -0.11   0.10  -0.17     0.01   0.14  -0.04
    16   1    -0.02   0.05   0.03    -0.06  -0.00   0.02     0.02   0.04   0.16
    17   6    -0.01  -0.06   0.07     0.01  -0.14   0.20    -0.01   0.10  -0.08
    18   1     0.03  -0.13   0.15     0.00  -0.16   0.14     0.00   0.03  -0.15
    19   1     0.04  -0.02   0.05     0.01  -0.13   0.11    -0.00   0.15  -0.27
    20   1     0.02  -0.04   0.05     0.01  -0.23   0.24    -0.01  -0.08   0.00
    21   6    -0.10   0.10  -0.10    -0.10   0.03  -0.08     0.02  -0.04  -0.01
    22   1    -0.28   0.10  -0.41    -0.09   0.21   0.13    -0.04   0.19   0.12
    23   1     0.31  -0.01  -0.09    -0.47   0.25  -0.10    -0.24   0.18  -0.04
    24   1    -0.21   0.12  -0.27     0.21   0.03   0.15     0.40  -0.04   0.21
                     22                     23                     24
                      A                      A                      A
 Frequencies --    717.6642               776.5212               939.0035
 Red. masses --      2.1415                 1.8362                 1.8287
 Frc consts  --      0.6498                 0.6524                 0.9500
 IR Inten    --     29.0670               109.0083                48.7617
  Atom  AN      X      Y      Z        X      Y      Z        X      Y      Z
     1   6     0.02   0.04   0.03     0.04  -0.05  -0.03     0.13   0.00  -0.00
     2   6    -0.05  -0.06   0.05     0.01  -0.01   0.03     0.07  -0.04   0.04
     3   8     0.03  -0.07   0.08     0.00  -0.04   0.04    -0.02  -0.05   0.05
     4   6     0.15   0.00  -0.02     0.13   0.08   0.04    -0.08  -0.04   0.03
     5   6    -0.00  -0.01  -0.00    -0.01  -0.02  -0.01     0.00   0.02  -0.00
     6   1     0.03   0.09  -0.04     0.06  -0.09   0.04    -0.01  -0.05   0.02
     7   1     0.05   0.14  -0.05    -0.08  -0.24   0.01    -0.02  -0.06   0.02
     8   1    -0.14  -0.10  -0.08     0.19   0.09   0.07     0.06   0.06   0.04
     9   7     0.05  -0.05   0.07    -0.07   0.07  -0.08    -0.02  -0.00  -0.00
    10   1    -0.44   0.08   0.11     0.49  -0.11  -0.15     0.02   0.09   0.09
    11   1     0.27   0.03  -0.48    -0.30  -0.14   0.43    -0.04  -0.04   0.04
    12  17    -0.01  -0.01   0.00    -0.01  -0.01  -0.00     0.00   0.00  -0.00
    13   6     0.02   0.00  -0.00     0.03  -0.04   0.08    -0.08   0.03  -0.06
    14   1    -0.08   0.08  -0.13    -0.10   0.06  -0.09     0.13  -0.13   0.13
    15   1    -0.09   0.00  -0.05    -0.09  -0.08   0.06     0.15   0.05   0.02
    16   1    -0.04  -0.13   0.14    -0.04  -0.19   0.27     0.03   0.26  -0.35
    17   6     0.00   0.07  -0.08     0.01   0.04  -0.06     0.10   0.02  -0.01
    18   1    -0.00   0.08  -0.13    -0.02   0.10  -0.09    -0.11   0.35  -0.40
    19   1     0.00   0.09  -0.15    -0.02   0.00   0.02    -0.19  -0.25   0.24
    20   1     0.01   0.04  -0.07    -0.01   0.09  -0.07    -0.19  -0.12   0.18
    21   6    -0.14   0.05  -0.06    -0.08   0.04  -0.03    -0.06   0.05  -0.06
    22   1    -0.29   0.18  -0.19    -0.11   0.04  -0.09     0.01  -0.01   0.02
    23   1    -0.05   0.09  -0.07    -0.03   0.01  -0.03    -0.22   0.04  -0.06
    24   1    -0.02   0.06  -0.07    -0.12   0.04  -0.08    -0.20   0.04  -0.04
                     25                     26                     27
                      A                      A                      A
 Frequencies --    974.1897              1005.4031              1018.8045
 Red. masses --      1.4957                 1.0995                 1.5832
 Frc consts  --      0.8364                 0.6549                 0.9682
 IR Inten    --     74.2753                21.7466                 2.1086
  Atom  AN      X      Y      Z        X      Y      Z        X      Y      Z
     1   6     0.04  -0.01   0.00     0.01  -0.00  -0.00     0.00   0.02   0.01
     2   6    -0.09   0.03  -0.03    -0.00   0.02   0.01     0.00   0.12   0.11
     3   8     0.00   0.04  -0.05    -0.00  -0.00  -0.00     0.00  -0.02  -0.02
     4   6     0.01  -0.02   0.01    -0.01   0.02  -0.00     0.01  -0.02  -0.01
     5   6    -0.00   0.01  -0.00     0.03  -0.06   0.00    -0.01  -0.00  -0.02
     6   1     0.04  -0.02   0.03    -0.21   0.04  -0.12    -0.02  -0.09   0.02
     7   1    -0.03  -0.08  -0.00     0.15   0.38   0.02    -0.03  -0.06   0.03
     8   1     0.07   0.05   0.03    -0.34  -0.19  -0.09     0.07   0.07   0.05
     9   7    -0.01   0.00   0.00    -0.01   0.01  -0.02     0.02   0.00  -0.00
    10   1     0.03   0.05   0.06    -0.12  -0.17  -0.18     0.04   0.11   0.09
    11   1    -0.03  -0.10  -0.02    -0.00   0.56   0.36     0.01  -0.08  -0.04
    12  17    -0.00  -0.00   0.00    -0.00  -0.00   0.00    -0.00  -0.00   0.00
    13   6     0.01   0.01  -0.02     0.02  -0.00   0.01    -0.01   0.04   0.02
    14   1    -0.03   0.05  -0.05    -0.03   0.03  -0.03     0.03   0.03  -0.16
    15   1    -0.04   0.04  -0.06    -0.02  -0.02   0.01     0.02  -0.16   0.16
    16   1    -0.01  -0.02   0.04    -0.01  -0.05   0.08    -0.01  -0.04  -0.11
    17   6     0.06  -0.00   0.00     0.03  -0.01  -0.01    -0.01  -0.05  -0.05
    18   1    -0.09   0.24  -0.27    -0.04   0.12  -0.09    -0.00   0.06   0.17
    19   1    -0.13  -0.17   0.14    -0.05  -0.10   0.13     0.07  -0.07   0.27
    20   1    -0.13  -0.06   0.11    -0.07   0.03   0.01    -0.02   0.29  -0.21
    21   6    -0.02  -0.10   0.10    -0.00  -0.02  -0.01    -0.00  -0.09  -0.09
    22   1    -0.40   0.22  -0.26    -0.02   0.04   0.01    -0.03   0.20   0.18
    23   1     0.45   0.01   0.08    -0.03   0.04  -0.01    -0.38   0.28  -0.13
    24   1     0.43  -0.05   0.00     0.07  -0.02   0.04     0.39  -0.11   0.28
                     28                     29                     30
                      A                      A                      A
 Frequencies --   1040.8228              1049.0241              1057.1677
 Red. masses --      1.4710                 1.5612                 1.5098
 Frc consts  --      0.9389                 1.0122                 0.9941
 IR Inten    --     38.3012                37.2828                 1.2713
  Atom  AN      X      Y      Z        X      Y      Z        X      Y      Z
     1   6    -0.04  -0.03   0.04     0.02   0.04  -0.00     0.01   0.09   0.07
     2   6    -0.03  -0.01  -0.02     0.02  -0.05  -0.04     0.01  -0.07  -0.06
     3   8     0.01  -0.00   0.01    -0.01   0.01   0.00    -0.00   0.01   0.01
     4   6    -0.05  -0.08   0.06     0.04  -0.03  -0.09    -0.00   0.00   0.02
     5   6     0.00  -0.01  -0.05    -0.02  -0.06  -0.04     0.00   0.00   0.00
     6   1    -0.21  -0.31   0.00    -0.15  -0.20  -0.02    -0.01  -0.01   0.00
     7   1    -0.00   0.01   0.14    -0.01   0.03   0.08     0.00  -0.01   0.00
     8   1     0.06   0.19   0.15    -0.02   0.06   0.08     0.01   0.01   0.00
     9   7     0.01  -0.02   0.00     0.03   0.03  -0.00     0.00  -0.01   0.00
    10   1    -0.03   0.36   0.32     0.03   0.17   0.11    -0.01   0.02   0.02
    11   1    -0.02   0.08   0.14     0.03   0.12   0.09     0.00  -0.01   0.00
    12  17     0.00   0.00   0.00    -0.00  -0.00   0.00    -0.00   0.00  -0.00
    13   6     0.09   0.07  -0.04    -0.06   0.08   0.09     0.00  -0.02  -0.03
    14   1    -0.17   0.28  -0.35     0.17  -0.05  -0.26    -0.02  -0.01   0.08
    15   1    -0.21  -0.03  -0.12     0.13  -0.43   0.50    -0.00   0.10  -0.11
    16   1    -0.03  -0.21   0.18    -0.01  -0.06  -0.36     0.01   0.04   0.04
    17   6     0.02   0.04  -0.03    -0.02  -0.02   0.03    -0.01  -0.10  -0.09
    18   1    -0.02   0.09  -0.12     0.02  -0.07   0.07    -0.03   0.14   0.27
    19   1    -0.04  -0.00  -0.04     0.04   0.03  -0.03     0.11  -0.14   0.52
    20   1    -0.04  -0.02   0.02     0.03  -0.02   0.01    -0.07   0.52  -0.37
    21   6     0.04   0.03  -0.01    -0.03   0.02   0.05    -0.00   0.05   0.04
    22   1     0.18  -0.11   0.09    -0.11  -0.01  -0.14    -0.00  -0.08  -0.09
    23   1    -0.04  -0.06   0.01     0.19  -0.08   0.05     0.18  -0.12   0.06
    24   1    -0.12   0.01   0.00    -0.08   0.04  -0.12    -0.17   0.06  -0.14
                     31                     32                     33
                      A                      A                      A
 Frequencies --   1081.6303              1103.7081              1146.6682
 Red. masses --      1.6025                 2.9822                 2.5691
 Frc consts  --      1.1046                 2.1404                 1.9902
 IR Inten    --     49.6773                56.3609                36.3891
  Atom  AN      X      Y      Z        X      Y      Z        X      Y      Z
     1   6    -0.04   0.01   0.03    -0.09  -0.01   0.02     0.11  -0.04   0.04
     2   6    -0.05  -0.01  -0.02    -0.09   0.00  -0.02     0.13  -0.01   0.01
     3   8     0.01  -0.00   0.01     0.02  -0.01   0.01    -0.02   0.02  -0.02
     4   6    -0.04  -0.06  -0.05    -0.02   0.03  -0.02    -0.08  -0.16   0.17
     5   6     0.04   0.10   0.08    -0.17  -0.17  -0.02    -0.06  -0.04   0.06
     6   1     0.25   0.36   0.04     0.12   0.05  -0.01     0.15   0.25   0.01
     7   1     0.04   0.03  -0.12    -0.19  -0.32  -0.19    -0.06  -0.10  -0.20
     8   1     0.04  -0.09  -0.11    -0.08  -0.31  -0.16    -0.08  -0.28  -0.18
     9   7    -0.04  -0.06  -0.04     0.17   0.21   0.06     0.05   0.08  -0.03
    10   1     0.00  -0.35  -0.28     0.23  -0.05  -0.16     0.14  -0.17  -0.22
    11   1    -0.04  -0.18  -0.14     0.24  -0.06  -0.27     0.02   0.07   0.04
    12  17     0.00   0.00   0.00     0.00  -0.01  -0.00    -0.00  -0.00  -0.00
    13   6     0.03   0.07   0.06     0.01  -0.01   0.02     0.03   0.09  -0.07
    14   1    -0.02   0.15  -0.34    -0.02   0.01   0.01    -0.08   0.19  -0.31
    15   1    -0.09  -0.28   0.23    -0.02  -0.01   0.01    -0.11   0.01  -0.08
    16   1    -0.03  -0.22  -0.02    -0.00  -0.04   0.05     0.01   0.03  -0.14
    17   6     0.05   0.00  -0.02     0.08   0.00  -0.01    -0.09   0.04  -0.04
    18   1    -0.04   0.15  -0.13    -0.06   0.23  -0.23     0.06  -0.21   0.20
    19   1    -0.07  -0.12   0.12    -0.11  -0.17   0.14     0.10   0.20  -0.17
    20   1    -0.10   0.01   0.04    -0.15  -0.01   0.08     0.14   0.03  -0.12
    21   6     0.04   0.02  -0.01     0.06   0.02  -0.02    -0.07  -0.02   0.02
    22   1     0.15  -0.09   0.07     0.23  -0.13   0.14    -0.25   0.13  -0.16
    23   1    -0.02  -0.06   0.01    -0.05  -0.06   0.00     0.06   0.07   0.00
    24   1    -0.09   0.01   0.01    -0.07  -0.00   0.05     0.04   0.01  -0.09
                     34                     35                     36
                      A                      A                      A
 Frequencies --   1167.7959              1237.6145              1319.3856
 Red. masses --      3.0326                 1.3820                 1.3392
 Frc consts  --      2.4367                 1.2472                 1.3735
 IR Inten    --      2.3848                50.4067                 4.2439
  Atom  AN      X      Y      Z        X      Y      Z        X      Y      Z
     1   6     0.00  -0.18   0.20     0.00  -0.00  -0.00     0.00   0.03  -0.03
     2   6    -0.18   0.02  -0.03    -0.02   0.00   0.00    -0.02   0.00  -0.00
     3   8     0.05   0.03  -0.03     0.00  -0.00  -0.00    -0.00  -0.01   0.01
     4   6     0.16  -0.04   0.09     0.02   0.02  -0.02     0.01  -0.00   0.00
     5   6     0.03  -0.01   0.01    -0.09   0.04   0.06     0.06  -0.07   0.10
     6   1    -0.02   0.02  -0.02     0.35   0.23   0.13    -0.14   0.30  -0.13
     7   1     0.06   0.12   0.02    -0.16  -0.24  -0.22     0.17   0.23  -0.18
     8   1    -0.04  -0.01   0.00     0.19  -0.14  -0.15    -0.28  -0.26  -0.05
     9   7    -0.03  -0.00  -0.03     0.06  -0.08  -0.08    -0.03   0.04  -0.07
    10   1     0.04  -0.06  -0.07    -0.21   0.37   0.28     0.18   0.49   0.34
    11   1    -0.08   0.02   0.11     0.00   0.39   0.40    -0.15  -0.40  -0.06
    12  17    -0.00   0.00  -0.00    -0.00   0.00   0.00    -0.00   0.00   0.00
    13   6    -0.13   0.04  -0.05    -0.01  -0.01   0.00     0.00  -0.00   0.00
    14   1     0.20  -0.19   0.05     0.03  -0.04   0.05    -0.02   0.01   0.01
    15   1     0.26   0.07   0.09     0.05  -0.00   0.02    -0.01   0.00  -0.01
    16   1     0.02   0.32  -0.42    -0.01  -0.01   0.05     0.01   0.02  -0.01
    17   6    -0.03   0.08  -0.09    -0.00  -0.00   0.00    -0.00  -0.01   0.02
    18   1    -0.03   0.09  -0.13    -0.01   0.02  -0.01    -0.01   0.01   0.01
    19   1     0.05   0.18  -0.24     0.02   0.01  -0.02     0.02   0.01  -0.00
    20   1     0.07   0.20  -0.20     0.01   0.01  -0.01     0.00  -0.01   0.01
    21   6     0.05   0.01  -0.01     0.00   0.00  -0.00     0.00   0.00  -0.01
    22   1     0.23  -0.14   0.16     0.02  -0.01   0.02     0.03  -0.02   0.02
    23   1     0.04  -0.10   0.02     0.00  -0.01  -0.00     0.02  -0.02  -0.00
    24   1     0.04  -0.02   0.11     0.00  -0.00   0.01     0.02   0.00   0.03
                     37                     38                     39
                      A                      A                      A
 Frequencies --   1346.5637              1378.8696              1400.6105
 Red. masses --      1.5915                 1.9299                 1.4648
 Frc consts  --      1.7002                 2.1619                 1.6930
 IR Inten    --     33.2583                14.3345               164.8151
  Atom  AN      X      Y      Z        X      Y      Z        X      Y      Z
     1   6     0.10   0.07  -0.09    -0.01  -0.11   0.12    -0.10  -0.01   0.02
     2   6    -0.08   0.01  -0.01     0.12  -0.03   0.04     0.11   0.00  -0.00
     3   8     0.00  -0.03   0.03    -0.00   0.04  -0.04    -0.01   0.01  -0.01
     4   6     0.00  -0.03   0.03    -0.09   0.06  -0.08     0.01   0.01  -0.01
     5   6    -0.01   0.01  -0.01     0.02   0.00   0.01    -0.01  -0.00  -0.00
     6   1     0.02  -0.04   0.02    -0.10   0.02  -0.04     0.03   0.01   0.00
     7   1    -0.02  -0.03   0.02    -0.01  -0.09  -0.04     0.01   0.06  -0.00
     8   1     0.02   0.02  -0.01    -0.09  -0.01   0.01     0.06   0.02   0.01
     9   7    -0.00   0.01   0.01     0.00   0.00   0.01     0.01  -0.01  -0.01
    10   1    -0.00  -0.08  -0.07    -0.00   0.06   0.05    -0.01   0.00   0.00
    11   1     0.01   0.07   0.03     0.01  -0.07  -0.07     0.01  -0.01  -0.01
    12  17    -0.00  -0.00  -0.00     0.00  -0.00   0.00     0.00   0.00   0.00
    13   6     0.01   0.00   0.00     0.01   0.04  -0.05     0.01  -0.06   0.06
    14   1    -0.02   0.03  -0.08     0.13  -0.09   0.43    -0.29   0.18  -0.24
    15   1    -0.02   0.05  -0.04    -0.04  -0.31   0.16    -0.06   0.10  -0.07
    16   1     0.02   0.02  -0.05    -0.15  -0.34   0.34     0.17   0.39  -0.24
    17   6    -0.03  -0.02   0.03     0.00   0.02  -0.02     0.03  -0.05   0.07
    18   1     0.00  -0.08   0.06    -0.05   0.10  -0.13    -0.15   0.22  -0.31
    19   1     0.04   0.02   0.04     0.04   0.06  -0.10     0.01   0.04  -0.36
    20   1     0.07  -0.04   0.00     0.04   0.11  -0.08    -0.03   0.37  -0.14
    21   6    -0.09   0.06  -0.06    -0.10   0.03  -0.03    -0.06   0.01  -0.01
    22   1     0.32  -0.30   0.30     0.07  -0.14   0.11     0.03  -0.10   0.05
    23   1     0.43  -0.35   0.00     0.26  -0.15  -0.01     0.13   0.02  -0.01
    24   1     0.42   0.02   0.36     0.27   0.03   0.15     0.17   0.03  -0.03
                     40                     41                     42
                      A                      A                      A
 Frequencies --   1408.1777              1417.7644              1433.1691
 Red. masses --      1.5221                 1.1140                 1.2440
 Frc consts  --      1.7784                 1.3193                 1.5054
 IR Inten    --     93.7612                13.2765                93.6986
  Atom  AN      X      Y      Z        X      Y      Z        X      Y      Z
     1   6    -0.09  -0.05   0.05    -0.02  -0.01   0.01    -0.05   0.02  -0.02
     2   6     0.08   0.00  -0.00     0.03  -0.01   0.02     0.03   0.00  -0.00
     3   8    -0.00   0.02  -0.02    -0.00   0.01  -0.01    -0.00  -0.00   0.00
     4   6     0.03   0.02  -0.02    -0.02   0.02  -0.01     0.02  -0.02   0.05
     5   6    -0.01  -0.01  -0.00     0.01   0.02   0.01    -0.06  -0.08  -0.03
     6   1     0.07   0.04   0.00    -0.11  -0.11   0.02     0.46   0.16   0.05
     7   1     0.02   0.08   0.03    -0.01  -0.09  -0.07     0.12   0.59   0.23
     8   1     0.04   0.02   0.02    -0.04  -0.09  -0.09     0.33   0.13   0.14
     9   7     0.00  -0.01  -0.01    -0.00   0.00   0.00    -0.01  -0.00  -0.01
    10   1    -0.00   0.06   0.05     0.00   0.02   0.02     0.06   0.01   0.00
    11   1    -0.00  -0.01   0.00    -0.00  -0.01  -0.00    -0.01  -0.02  -0.03
    12  17     0.00  -0.00   0.00     0.00  -0.00   0.00     0.00   0.00  -0.00
    13   6    -0.01  -0.04   0.03    -0.02  -0.00   0.07    -0.01   0.04  -0.03
    14   1    -0.16   0.09  -0.15     0.42  -0.26  -0.39     0.21  -0.13   0.08
    15   1     0.02   0.06  -0.02     0.06   0.51  -0.25     0.02   0.03  -0.02
    16   1     0.10   0.27  -0.12    -0.08  -0.41  -0.15    -0.09  -0.24   0.04
    17   6     0.02   0.08  -0.11     0.01   0.00  -0.00     0.02  -0.01   0.01
    18   1     0.21  -0.16   0.41    -0.00   0.02  -0.01     0.00   0.02   0.01
    19   1    -0.15  -0.16   0.36    -0.01  -0.01  -0.03    -0.05  -0.04  -0.09
    20   1    -0.23  -0.41   0.26    -0.03   0.03   0.00    -0.10   0.07   0.01
    21   6    -0.05   0.01  -0.01    -0.01   0.00  -0.01    -0.01   0.00   0.00
    22   1     0.02  -0.06   0.02    -0.00  -0.01   0.00     0.01  -0.05  -0.02
    23   1     0.14  -0.11   0.00     0.03  -0.03  -0.00     0.01  -0.00  -0.00
    24   1     0.17   0.01   0.10     0.03   0.00   0.03     0.07   0.01  -0.02
                     43                     44                     45
                      A                      A                      A
 Frequencies --   1438.1341              1449.3413              1457.8745
 Red. masses --      1.0572                 1.3648                 1.0764
 Frc consts  --      1.2883                 1.6892                 1.3480
 IR Inten    --     27.6443               116.6323                38.6524
  Atom  AN      X      Y      Z        X      Y      Z        X      Y      Z
     1   6     0.00   0.00   0.00     0.07  -0.04   0.05    -0.04   0.01  -0.00
     2   6     0.01  -0.01   0.01    -0.02  -0.02   0.01     0.02  -0.01  -0.01
     3   8    -0.00   0.02  -0.02     0.01   0.01  -0.01    -0.00   0.00   0.00
     4   6    -0.00   0.00  -0.00    -0.06   0.05  -0.07     0.01  -0.02   0.01
     5   6    -0.00  -0.00  -0.00    -0.02  -0.03  -0.01    -0.00   0.00   0.00
     6   1     0.01   0.00   0.00     0.17   0.10   0.00    -0.02  -0.05   0.02
     7   1     0.01   0.03  -0.00     0.04   0.20   0.09     0.02   0.05  -0.04
     8   1     0.03   0.01   0.01     0.10   0.07   0.08     0.06  -0.03  -0.04
     9   7    -0.00   0.00   0.00    -0.01  -0.00   0.00    -0.00   0.00  -0.00
    10   1     0.00   0.00   0.00     0.04   0.04   0.05    -0.00  -0.00  -0.00
    11   1    -0.00  -0.00  -0.00     0.01   0.01  -0.04    -0.00  -0.02  -0.01
    12  17    -0.00  -0.00   0.00    -0.00  -0.00   0.00     0.00   0.00  -0.00
    13   6     0.00  -0.01   0.00     0.03  -0.03   0.07    -0.02  -0.00  -0.03
    14   1    -0.04   0.02  -0.02    -0.10   0.06   0.04     0.04  -0.02  -0.20
    15   1     0.00  -0.00   0.00    -0.37   0.06  -0.17     0.38   0.04   0.13
    16   1     0.01   0.04   0.00     0.09  -0.07  -0.36    -0.05   0.13   0.35
    17   6     0.01  -0.00   0.01    -0.04   0.03  -0.01    -0.00   0.01   0.01
    18   1     0.03  -0.07  -0.02    -0.03  -0.11  -0.26     0.03  -0.18  -0.19
    19   1    -0.09  -0.05  -0.10     0.10   0.05   0.29    -0.11  -0.10   0.11
    20   1    -0.05   0.13  -0.03     0.43  -0.12  -0.12     0.16   0.04  -0.07
    21   6     0.04   0.02  -0.03     0.01  -0.02  -0.01    -0.01  -0.03  -0.03
    22   1    -0.23   0.28  -0.23    -0.01   0.20   0.18     0.00   0.33   0.38
    23   1    -0.14  -0.58   0.08     0.14   0.07  -0.02     0.36   0.15  -0.06
    24   1    -0.21  -0.09   0.59    -0.20  -0.04   0.05    -0.28  -0.05   0.07
                     46                     47                     48
                      A                      A                      A
 Frequencies --   1464.4001              1479.5018              1480.3205
 Red. masses --      1.1623                 1.1105                 1.0495
 Frc consts  --      1.4685                 1.4322                 1.3550
 IR Inten    --     41.7182                42.3444                31.0945
  Atom  AN      X      Y      Z        X      Y      Z        X      Y      Z
     1   6     0.05  -0.02   0.02     0.06  -0.02   0.01     0.02  -0.01   0.00
     2   6    -0.02  -0.01   0.02    -0.02  -0.01   0.00    -0.00  -0.01   0.00
     3   8     0.00   0.01  -0.01     0.00   0.00  -0.00     0.00   0.00  -0.00
     4   6    -0.06   0.02  -0.05    -0.03   0.02  -0.03    -0.02   0.00  -0.01
     5   6    -0.02  -0.01   0.00    -0.02   0.00   0.02     0.01  -0.01  -0.03
     6   1     0.05  -0.07   0.05    -0.12  -0.22   0.07     0.28   0.22  -0.02
     7   1     0.05   0.20  -0.03     0.08   0.25  -0.27    -0.08  -0.18   0.45
     8   1     0.17  -0.04  -0.04     0.37  -0.12  -0.14    -0.42   0.10   0.14
     9   7    -0.01   0.01   0.01    -0.01   0.01   0.02     0.01  -0.00  -0.01
    10   1     0.01   0.01   0.01    -0.00  -0.03  -0.01    -0.01   0.03   0.01
    11   1    -0.00  -0.04  -0.05    -0.01  -0.02  -0.02    -0.01  -0.02   0.01
    12  17    -0.00  -0.00   0.00    -0.00  -0.00   0.00     0.00  -0.00   0.00
    13   6    -0.01  -0.03   0.01     0.01  -0.01   0.01    -0.01  -0.01   0.01
    14   1    -0.05   0.04  -0.32    -0.06   0.03   0.00     0.01  -0.00  -0.14
    15   1     0.37   0.10   0.09    -0.03  -0.01  -0.00     0.13   0.07   0.01
    16   1    -0.01   0.20   0.36     0.02   0.03   0.01    -0.01   0.05   0.10
    17   6    -0.03   0.00  -0.01     0.00  -0.03  -0.02    -0.01  -0.03  -0.01
    18   1    -0.07   0.07  -0.13    -0.07   0.35   0.33    -0.11   0.34   0.16
    19   1     0.19   0.12   0.16     0.22   0.19  -0.21     0.28   0.21  -0.07
    20   1     0.26  -0.13  -0.05    -0.30  -0.07   0.14    -0.10  -0.13   0.09
    21   6     0.01   0.02   0.02     0.00  -0.01  -0.01     0.00  -0.01  -0.01
    22   1    -0.00  -0.25  -0.29    -0.00   0.17   0.18    -0.02   0.13   0.09
    23   1    -0.28  -0.11   0.04     0.14   0.07  -0.02     0.08  -0.00  -0.01
    24   1     0.20   0.04  -0.05    -0.18  -0.03   0.04    -0.12  -0.03   0.07
                     49                     50                     51
                      A                      A                      A
 Frequencies --   1487.0787              1495.1448              1614.5939
 Red. masses --      1.0683                 1.4297                 1.0944
 Frc consts  --      1.3919                 1.8831                 1.6810
 IR Inten    --     39.4878               331.2294                48.4016
  Atom  AN      X      Y      Z        X      Y      Z        X      Y      Z
     1   6     0.03  -0.01   0.01     0.13  -0.03   0.04    -0.00  -0.00  -0.00
     2   6    -0.02  -0.00   0.00    -0.06  -0.02   0.02     0.00   0.00  -0.00
     3   8     0.00   0.00  -0.00     0.01   0.01  -0.01     0.00  -0.00   0.00
     4   6    -0.02   0.01  -0.01    -0.07   0.04  -0.07     0.00  -0.00   0.00
     5   6    -0.01  -0.05   0.00    -0.00  -0.01  -0.01    -0.00   0.01   0.01
     6   1    -0.25   0.48  -0.30     0.19  -0.02   0.06     0.01   0.00   0.03
     7   1    -0.00  -0.09  -0.36    -0.01   0.04   0.23    -0.02  -0.04  -0.00
     8   1     0.14   0.43   0.45    -0.12  -0.06  -0.04    -0.03  -0.04  -0.03
     9   7     0.01  -0.01   0.02    -0.01   0.01   0.00    -0.06  -0.05   0.00
    10   1    -0.01  -0.07  -0.03     0.01   0.06   0.05     0.68   0.05   0.17
    11   1     0.05   0.10   0.01    -0.02  -0.04  -0.02     0.24   0.51  -0.41
    12  17    -0.00  -0.00   0.00    -0.00  -0.00   0.00    -0.00   0.00   0.00
    13   6    -0.00  -0.01   0.01     0.01  -0.03   0.03    -0.00  -0.00  -0.00
    14   1     0.03  -0.02  -0.11    -0.08   0.05  -0.14    -0.00   0.00  -0.00
    15   1     0.08   0.07  -0.01     0.05   0.05  -0.00     0.02  -0.00   0.01
    16   1    -0.01   0.01   0.06     0.03   0.07   0.09    -0.00   0.02   0.02
    17   6     0.00   0.00  -0.00     0.02   0.02   0.00     0.00  -0.00  -0.00
    18   1     0.02  -0.01   0.06     0.19  -0.35   0.17    -0.01   0.02   0.01
    19   1    -0.04  -0.01  -0.07    -0.42  -0.22  -0.33     0.01   0.01  -0.01
    20   1    -0.08   0.04   0.01    -0.32   0.35  -0.04    -0.02   0.01   0.01
    21   6     0.00  -0.00   0.00     0.00  -0.00   0.01     0.00  -0.00   0.00
    22   1     0.01   0.00   0.02     0.06  -0.06   0.04    -0.00   0.00  -0.00
    23   1     0.00   0.03  -0.00    -0.02   0.13  -0.02     0.00  -0.00   0.00
    24   1    -0.01   0.00  -0.02    -0.00   0.02  -0.14    -0.00  -0.00   0.00
[...]
 .00400717,0.00153513,0.00300261,-0.00008119,0.00018462,-0.00023642,0.0
 0002492,0.00002064,-0.00000962,0.00005712,0.00002917,0.00014736,-0.000
 19288,-0.00001055,-0.00012037,0.00117306,0.00088822,0.00062195,0.00021
 111,-0.00000950,0.00025637,0.00055705,-0.00021654,-0.00066307,0.001952
 59,0.00088613,0.00104646,-0.30045476,-0.06544575,-0.04435271,-0.010309
 87,-0.00707376,-0.00158888,-0.00764159,-0.00058552,-0.00332464,0.31986
 265,0.00009478,-0.00092224,-0.00331068,0.00153751,-0.00213888,-0.00127
 092,0.00218090,0.00241804,0.00098423,-0.01806602,-0.00673533,-0.001895
 89,-0.00008181,0.00016052,0.00005082,0.00001852,-0.00008009,0.00000943
 ,0.00000273,-0.00005044,-0.00003210,0.00001023,-0.00004991,-0.00007910
 ,0.00010968,-0.00031322,0.00138759,-0.00002418,-0.00006304,0.00007443,
 -0.00008568,0.00026690,0.00003691,-0.00062348,-0.00010196,-0.00000166,
 -0.06080576,-0.06420365,-0.00990835,0.02099944,0.01066564,0.00399050,-
 0.01388780,-0.00371461,-0.00445831,0.06954603,0.06452442,0.00215828,-0
 .00304646,-0.00303189,0.00081371,-0.00053498,-0.00075224,0.00040984,0.
 00008456,0.00157451,-0.02808072,-0.00717276,-0.00697905,-0.00004009,0.
 00020882,-0.00012728,0.00003257,-0.00000921,0.00002633,0.00005466,-0.0
 0012147,0.00012680,0.00000550,0.00000028,0.00001524,-0.00078160,-0.000
 01092,0.00078336,-0.00006082,-0.00018492,0.00028996,0.00069057,0.00045
 795,-0.00132980,-0.00053071,0.00120705,0.00046067,-0.04013133,-0.00939
 569,-0.05443863,-0.00169574,-0.00081312,-0.00194353,0.02297957,0.00439
 524,0.00632025,0.04546885,0.01514582,0.05945805,-0.08592522,-0.0026274
 3,-0.00288534,0.00538530,0.01936749,0.02252138,-0.00577574,0.00150264,
 0.00118124,0.00084013,-0.01929730,-0.02319271,0.00023800,0.00023201,0.
 00003007,-0.00000794,0.00005161,0.00002243,-0.00005865,-0.00006999,-0.
 00001316,-0.00002637,0.00008200,-0.00003903,0.00040087,0.00076573,0.00
 038308,-0.00049457,-0.00132701,0.00030110,0.00032315,0.00032014,-0.000
 26601,-0.00157043,-0.00071010,-0.00252902,-0.00424429,-0.00014001,-0.0
 0003819,-0.00022125,-0.00008327,0.00015949,-0.00001187,0.00007890,-0.0
 0006687,-0.00014158,-0.00078022,-0.00114275,0.58945871,-0.00197155,-0.
 12361719,-0.07676565,0.00477120,-0.00982211,-0.01011278,0.00055669,0.0
 0385160,-0.00161484,-0.00766057,-0.01542230,-0.00512619,0.00106546,-0.
 00020320,-0.00006271,-0.00023502,0.00018726,-0.00003775,-0.00034327,-0
 .00095706,-0.00007912,0.00023734,0.00008275,0.00004540,0.00387463,0.00
 355042,-0.00355018,0.00024271,0.00128792,0.00032743,0.00036988,0.00063
 337,-0.00078050,-0.00245245,0.00212014,-0.00009841,0.00035024,0.003258
 73,-0.00125498,0.00011887,0.00018761,0.00031387,-0.00015551,-0.0002067
 5,-0.00052069,0.00030457,0.00058898,-0.00022449,-0.00367889,0.52376210
 ,-0.00451759,-0.07461794,-0.15329010,0.00602355,-0.00746667,-0.0119267
 5,-0.00031623,-0.00189605,0.00392818,-0.00986012,-0.00347264,-0.014063
 01,0.00039323,0.00039727,-0.00009918,0.00015417,0.00004453,0.00006042,
 0.00010888,-0.00033107,0.00018043,0.00005156,0.00002647,-0.00001651,-0
 .00044347,-0.00065569,0.00183706,-0.00009327,-0.00018192,0.00041469,0.
 00019721,0.00025170,-0.00005213,0.00332310,-0.00457001,-0.00307541,-0.
 00098814,-0.00203922,0.00245156,-0.00010210,-0.00022940,-0.00031071,0.
 00016358,0.00029273,0.00037177,0.00026755,-0.00061035,-0.00002346,-0.0
 0085781,-0.02281573,0.50265067,0.00263274,-0.00068616,0.00008173,0.000
 53579,-0.00022260,-0.00127392,0.00007743,0.00022245,0.00042456,-0.0014
 1368,-0.00114211,0.00029977,0.00004883,-0.00001720,-0.00005828,-0.0000
 1031,0.00004205,-0.00000746,-0.00003931,-0.00005768,0.00005276,0.00001
 289,-0.00002213,0.00000413,0.00024672,0.00017199,-0.00066205,0.0005493
 4,0.00042364,0.00026848,0.00000777,-0.00001452,-0.00012218,-0.00253425
 ,-0.00145740,-0.00367388,0.00005129,0.00017572,-0.00008863,-0.00003135
 ,0.00001826,0.00004120,-0.00000331,0.00001802,-0.00002706,0.00014757,0
 .00000542,0.00001743,-0.27871012,0.08938683,0.04860562,0.30028810,0.01
 657036,-0.00735614,-0.00301594,-0.00201836,-0.00256452,-0.00235150,0.0
 0130554,-0.00025359,-0.00076192,0.00404995,0.00065296,-0.00102833,0.00
 009384,-0.00006339,0.00013840,-0.00000962,-0.00001974,-0.00002099,0.00
 005582,0.00006699,-0.00008040,-0.00004080,0.00006459,-0.00001680,-0.00
 087385,-0.00076264,0.00057056,-0.00075020,-0.00151807,0.00002322,-0.00
 012244,0.00004326,0.00019201,-0.00057254,0.00111377,0.00112869,0.00022
 688,0.00004600,0.00021764,0.00004802,0.00001127,-0.00000727,0.00001245
 ,-0.00000028,0.00002201,-0.00006224,0.00001576,0.00005397,0.08967120,-
 0.08036710,-0.01849089,-0.09616831,0.08543889,0.02158954,-0.00594390,-
 0.00430985,-0.00234855,-0.00304708,-0.00356950,0.00165146,-0.00075494,
 -0.00061972,0.00438727,-0.00134208,0.00052666,-0.00000253,0.00012006,-
 0.00005899,-0.00001324,0.00004066,0.00000241,-0.00000089,0.00003729,-0
 .00005915,0.00000295,0.00001137,-0.00000768,-0.00103518,-0.00015324,0.
 00049427,0.00000363,-0.00026776,0.00029867,-0.00004077,-0.00014532,0.0
 0016509,-0.00228648,0.00095675,-0.00039461,0.00004936,0.00045298,-0.00
 009144,0.00007344,0.00009283,0.00013101,0.00000563,-0.00004361,-0.0000
 2846,-0.00003412,-0.00004137,0.00002465,0.04534547,-0.01755900,-0.0541
 7728,-0.04868534,0.02282034,0.05742138,0.00145571,0.00071450,-0.002694
 69,-0.00137390,0.00087136,-0.00002866,0.00037843,-0.00037484,-0.000111
 38,0.00023982,-0.00043900,0.00009395,-0.00020613,0.00010366,-0.0000650
 2,0.00001807,-0.00002659,0.00002836,0.00002787,0.00005020,-0.00003329,
 0.00002146,-0.00004552,0.00001369,-0.00018387,-0.00010500,0.00019326,0
 .00031005,0.00045581,-0.00013171,0.00010444,-0.00000320,-0.00000347,0.
 00002776,-0.00024948,-0.00059219,-0.00018126,-0.00001149,-0.00005215,0
 .00003614,0.00003252,0.00003338,-0.00000940,-0.00005119,-0.00000615,-0
 .00000093,-0.00004778,-0.00006329,-0.13632627,-0.12424389,0.03196089,-
 0.01463208,-0.02340733,0.00604989,0.14561886,-0.00972911,-0.01334683,-
 0.00279108,-0.00379210,0.00125861,0.00027176,0.00099207,-0.00058353,-0
 .00093276,0.00456714,-0.00269694,-0.00078204,0.00000938,0.00019566,0.0
 0004831,-0.00000876,-0.00003334,0.00002497,0.00001049,0.00005179,-0.00
 011981,0.00001577,0.00001964,-0.00001477,-0.00059534,-0.00014315,0.000
 63050,-0.00009940,-0.00032863,-0.00002680,0.00001624,0.00005183,0.0000
 9903,-0.00115306,0.00061096,0.00038804,-0.00041860,0.00038363,-0.00017
 058,0.00002138,-0.00000146,0.00008238,-0.00005665,-0.00006962,-0.00011
 090,-0.00005024,-0.00003999,-0.00018766,-0.12438088,-0.21172859,0.0430
 2199,0.00754371,0.01017750,-0.00296254,0.13488657,0.22707465,-0.016669
 76,-0.02211613,0.00308478,-0.00135528,0.00062972,0.00144639,0.00018065
 ,-0.00012913,-0.00110084,0.00342274,-0.00390217,-0.00156749,-0.0001760
 5,-0.00003460,0.00009618,-0.00003358,-0.00005161,-0.00000701,0.0000537
 0,0.00003528,-0.00014101,0.00002508,0.00002366,0.00000647,-0.00007064,
 0.00004161,-0.00002045,-0.00030803,-0.00015767,-0.00012936,-0.00005710
 ,0.00001726,0.00005598,-0.00113075,0.00092290,0.00021391,-0.00073433,0
 .00046469,-0.00039766,0.00002924,0.00004286,0.00009812,-0.00002872,-0.
 00005949,-0.00012730,-0.00006663,-0.00004226,-0.00027198,0.03024804,0.
 04144548,-0.05320057,0.00237128,0.00394131,-0.00194639,-0.03314793,-0.
 04040274,0.06005392,0.00027162,-0.00137687,0.00016596,-0.00077280,-0.0
 0039130,0.00078442,0.00019372,0.00032740,-0.00010361,0.00008630,0.0008
 8297,-0.00076473,-0.00019664,-0.00005033,0.00014601,-0.00002689,-0.000
 06669,-0.00000357,0.00012354,0.00001611,-0.00009648,0.00003123,0.00002
 385,0.00001604,0.00025943,-0.00014191,-0.00000088,-0.00043400,-0.00010
 045,-0.00027303,-0.00002709,0.00010573,0.00000034,-0.00048200,-0.00069
 244,-0.00076679,-0.00025511,-0.00029294,0.00010816,-0.00000033,0.00000
 036,-0.00004594,0.00000699,0.00006519,0.00006703,0.00001573,-0.0000555
 0,-0.00006281,-0.07589105,0.03947108,-0.07188921,-0.00688738,0.0124038
 0,-0.02462712,0.00646707,-0.00872867,0.01591497,0.07722346,-0.00884745
 ,0.01002267,-0.02100734,-0.00087980,0.00147049,0.00032694,0.00004886,-
 0.00120403,-0.00008559,0.00276956,0.00109898,-0.00321809,-0.00000283,0
 .00050734,0.00009859,0.00002533,-0.00005504,0.00006180,0.00011118,-0.0
 0026120,-0.00028782,0.00013972,0.00002083,0.00001014,-0.00118040,-0.00
 079364,0.00150286,-0.00025560,-0.00028684,0.00002356,0.00009895,0.0000
 4240,0.00012331,0.00065453,-0.00007297,0.00029039,-0.00063683,-0.00063
 175,0.00039590,-0.00000126,-0.00004441,-0.00003907,0.00002803,0.000029
 11,0.00009802,-0.00009133,-0.00025348,-0.00010510,0.03791636,-0.094814
 43,0.09293275,0.00153426,-0.00513978,0.00779482,0.00979498,-0.01123564
 ,0.01972058,-0.04179533,0.10162161,-0.00775437,0.00069317,-0.02007333,
 -0.00456152,0.00100310,0.00091605,0.00117680,-0.00164224,-0.00119852,0
 .00654314,0.00258223,-0.00431150,-0.00092699,0.00013040,0.00010306,0.0
 0009856,-0.00014670,0.00001852,0.00019888,0.00007887,-0.00027631,0.000
 04397,-0.00000272,0.00000563,-0.00182392,-0.00170367,0.00196894,-0.000
 31401,-0.00012982,-0.00019142,-0.00004913,-0.00013049,0.00021060,0.000
 13642,0.00005957,0.00034009,-0.00081907,-0.00062935,0.00037780,-0.0000
 1225,-0.00006738,-0.00005166,0.00004119,0.00001612,0.00008166,-0.00008
 424,-0.00032113,-0.00017808,-0.07283536,0.09829690,-0.22039898,0.00214
 386,-0.00352193,0.00597837,-0.00292679,0.00326574,-0.00587062,0.080905
 98,-0.09828403,0.24184007,-0.02689052,-0.00868645,-0.00930110,-0.17332
 131,-0.02228026,-0.02627665,0.00833392,-0.01216287,-0.01356652,-0.0012
 8129,0.00213497,0.00177618,-0.00009047,0.00012718,0.00000153,0.0000052
 3,-0.00008462,0.00002858,-0.00006595,0.00005593,-0.00001643,0.00004618
 ,0.00000164,-0.00000397,-0.00060005,-0.00038563,0.00006648,0.00010567,
 0.00006299,-0.00015270,-0.00002659,-0.00010431,0.00014187,-0.00129837,
 0.00031857,-0.00029019,0.00001584,-0.00002590,0.00016966,0.00007731,0.
 00008496,-0.00004348,0.00005865,-0.00005597,0.00000738,-0.00013095,0.0
 0000691,-0.00003339,-0.00495439,0.00061244,-0.00068727,-0.00055943,-0.
 00043738,-0.00015431,-0.00081573,-0.00009995,0.00065840,0.00057060,0.0
 0023475,-0.00013505,0.51339932,0.00329515,0.01161479,-0.00118382,-0.01
 902518,-0.09113597,-0.00360517,-0.02653275,-0.01090229,-0.03819696,0.0
 0449454,0.00130040,-0.00198195,0.00020548,-0.00005270,-0.00005690,-0.0
 0004187,0.00001997,0.00000098,-0.00005976,0.00003610,0.00001862,0.0000
 1687,0.00003693,-0.00000440,0.00080425,0.00076431,0.00003279,-0.000044
 93,-0.00002989,0.00005649,0.00004529,0.00016885,-0.00020226,-0.0016585
 3,0.00058456,0.00048180,-0.00007003,0.00063104,-0.00032310,0.00067411,
 0.00019062,-0.00010841,-0.00004096,-0.00047336,0.00017277,-0.00031940,
 -0.00000712,0.00024532,0.00118221,-0.00242883,-0.00007253,0.00006623,-
 0.00012690,0.00019626,0.00197222,0.00007428,-0.00096778,0.00019268,0.0
 0004399,0.00071390,-0.04847204,0.55692694,0.00219724,-0.00065734,0.011
 40224,-0.02216731,-0.00388382,-0.09354297,-0.02931205,-0.03810601,-0.0
 1654598,0.00423631,-0.00050754,0.00062958,-0.00027309,0.00028369,-0.00
 009856,0.00008873,-0.00003317,0.00004621,0.00007084,-0.00003303,-0.000
 04263,0.00003561,0.00002788,-0.00003415,-0.00221050,-0.00145854,0.0009
 3387,0.00001758,-0.00011779,-0.00006330,-0.00006200,-0.00023636,0.0003
 2588,0.00206365,-0.00070340,0.00040954,-0.00037328,-0.00120694,0.00011
 718,0.00011684,0.00061466,-0.00007550,0.00015374,0.00010427,-0.0000232
 8,-0.00018740,0.00028819,-0.00001681,0.00142843,0.00013495,-0.00172156
 ,0.00021193,0.00038067,-0.00031943,0.00079621,0.00083776,0.00012977,0.
 00092228,-0.00059578,0.00018454,-0.05055550,0.01595321,0.55769230,-0.0
 0359117,-0.00285791,-0.00307052,-0.02298602,0.01534748,0.01489814,0.00
 650423,0.00014285,0.00061831,0.00013425,0.00075152,0.00051549,-0.00012
 095,0.00006569,0.00003195,0.00000803,-0.00003670,0.00001094,0.00002224
 ,0.00007860,-0.00004038,-0.00000813,-0.00001564,-0.00000430,-0.0003736
 9,-0.00033891,0.00015244,0.00003671,0.00000755,-0.00006249,0.00000195,
 -0.00003751,0.00007856,-0.00060717,0.00017469,-0.00012153,0.00001581,0
 .00005371,0.00003826,-0.00005586,-0.00007151,0.00001778,-0.00003160,0.
 00002552,-0.00001141,0.00002915,-0.00006611,-0.00004868,0.00017955,-0.
 00057513,-0.00062412,0.00009665,0.00003522,0.00004576,0.00017344,0.000
 03055,-0.00011305,0.00007532,-0.00007577,0.00004109,-0.21735586,0.1002
 6634,0.09489935,0.23256267,-0.00089556,-0.00046758,-0.00143665,-0.0118
 2256,0.00416434,0.00497263,0.00022309,0.00026338,0.00143168,-0.0006422
 2,0.00013966,-0.00006399,0.00003233,-0.00004414,0.00001627,-0.00001100
 ,0.00000478,-0.00000648,-0.00000704,0.00001091,0.00000264,-0.00000728,
 0.00000183,-0.00000011,0.00026014,0.00017085,-0.00011877,-0.00002885,-
 0.00001926,0.00001158,0.00000598,0.00002552,-0.00003050,-0.00023422,0.
 00008480,-0.00002197,-0.00002343,0.00000274,-0.00001359,-0.00004040,-0
 .00001019,0.00000412,0.00000464,0.00001632,0.00000353,0.00002073,-0.00
 000150,0.00000228,0.00024184,-0.00063971,0.00004455,0.00015511,0.00030
 512,-0.00008907,0.00007005,0.00052054,0.00004017,-0.00000496,-0.000065
 33,-0.00007593,0.10354809,-0.10593160,-0.05500028,-0.10773433,0.108463
 80,-0.00117427,-0.00137722,-0.00069741,-0.01254374,0.00630086,0.004704
 52,0.00035107,0.00128902,0.00064038,-0.00057079,-0.00014908,0.00039746
 ,-0.00001116,0.00001055,0.00000862,0.00000136,-0.00000824,-0.00000324,
 -0.00000755,-0.00003958,-0.00000322,0.00001090,-0.00000139,0.00000587,
 -0.00017379,-0.00008106,-0.00004036,-0.00001632,-0.00001570,-0.0000165
 0,-0.00001679,-0.00003151,0.00004479,0.00010938,0.00001454,0.00000474,
 -0.00001348,0.00001915,-0.00000450,-0.00003096,-0.00001929,0.00001068,
 -0.00000907,0.00001475,0.00000604,0.00002031,-0.00000829,0.00000023,0.
 00038469,-0.00020853,-0.00048417,0.00010292,-0.00000851,0.00024769,0.0
 0010730,0.00013171,-0.00023078,-0.00014924,-0.00010741,0.00042992,0.09
 855057,-0.05526994,-0.10032731,-0.10213358,0.06048631,0.10209876,-0.00
 248240,-0.00104278,0.00127410,0.00666555,0.00876760,-0.02547496,-0.003
 06611,-0.00442077,-0.00025967,0.00159850,0.00048174,0.00035346,-0.0002
 3360,0.00015219,0.00000582,0.00004209,-0.00003530,0.00001866,0.0000064
 3,-0.00001683,-0.00009359,0.00003999,0.00000228,-0.00000108,-0.0008717
 6,-0.00067121,0.00040585,-0.00002391,-0.00004547,-0.00005739,-0.000025
 04,-0.00010615,0.00015218,0.00023750,-0.00007572,0.00010472,-0.0000492
 2,-0.00024570,0.00003255,0.00001009,0.00011422,0.00000175,0.00000879,0
 .00002999,0.00001347,-0.00002764,0.00003019,-0.00000277,-0.00141506,0.
 00113455,-0.00119427,0.00007196,-0.00009838,0.00009423,-0.00028435,0.0
 0026284,0.00026020,-0.00057499,0.00012489,0.00092036,-0.04754254,0.003
 18877,-0.00677336,0.00208405,-0.00634590,0.02297334,0.04651713,0.00050
 365,0.00004718,0.00035851,0.00167687,0.00136810,-0.01305522,-0.0029914
 4,-0.00307205,-0.00019611,0.00020945,-0.00000799,-0.00010888,-0.000099
 37,0.00004554,-0.00000264,0.00001696,-0.00001250,0.00000947,-0.0000135
 0,0.00001793,-0.00004130,0.00002113,0.00000058,-0.00000292,-0.00013003
 ,-0.00014198,0.00011680,0.00001937,0.00003048,-0.00000644,0.00000260,-
 0.00003154,0.00002489,0.00014698,-0.00007534,-0.00001674,-0.00008347,-
 0.00015129,0.00004610,0.00002212,0.00007959,-0.00001028,0.00002149,0.0
 0002054,-0.00000433,-0.00001965,0.00003197,-0.00001908,0.00012680,0.00
 038672,0.00049147,-0.00024104,-0.00011327,-0.00005212,-0.00000914,-0.0
 0055847,0.00045935,0.00033441,0.00021360,-0.00024537,0.00267020,-0.046
 82793,0.04211332,-0.00227612,0.00275649,-0.01414196,-0.00110229,0.0496
 5011,-0.00130104,-0.00131866,-0.00017322,0.00440871,0.00164694,-0.0095
 3315,-0.00345007,-0.00171899,-0.00006316,0.00111456,0.00042915,-0.0000
 2282,-0.00022404,0.00006463,0.00003348,0.00001821,-0.00002293,0.000016
 70,-0.00002710,0.00002985,-0.00009695,0.00000880,0.00000172,-0.0000048
 4,-0.00040104,-0.00041474,0.00031372,-0.00001302,-0.00003085,-0.000035
 68,0.00000394,-0.00005010,0.00005016,-0.00007974,0.00011006,0.00012217
 ,-0.00005092,-0.00012050,0.00004466,0.00004279,0.00010485,-0.00001138,
 0.00003527,0.00000448,0.00001873,-0.00005624,0.00002500,-0.00000004,0.
 00177117,-0.00049728,0.00054858,0.00022151,-0.00005574,0.00030520,0.00
 002902,0.00026631,-0.00028573,-0.00007183,0.00010571,0.00013700,-0.004
 26228,0.04610320,-0.31382882,-0.00233120,0.00324953,-0.00908319,0.0046
 6494,-0.04674548,0.33473231,-0.00237164,0.00159814,-0.00141734,0.00447
 712,-0.02617900,0.00841793,-0.00258282,0.00030747,-0.00419549,0.001571
 99,0.00064342,-0.00004064,-0.00000880,0.00002345,0.00001041,-0.0000114
 8,-0.00001052,0.00000489,0.00000146,0.00004602,-0.00004880,0.00000322,
 0.00000446,-0.00000187,-0.00000167,0.00002040,0.00000282,-0.00001468,-
 0.00002052,-0.00001502,0.00000395,0.00000606,0.00001080,-0.00077121,0.
 00033085,0.00012018,0.00001143,0.00015283,-0.00006994,0.00013864,0.000
 03350,-0.00000953,-0.00003946,-0.00009237,0.00003598,-0.00005303,-0.00
 001802,0.00004371,-0.00105093,-0.00118020,0.00032427,0.00005414,0.0000
 8836,-0.00007012,-0.00086519,0.00075664,0.00072757,0.00022327,0.000285
 21,-0.00000756,-0.04767928,-0.02013868,0.00467573,0.00320639,0.0232357
 5,-0.00576108,-0.00068544,0.00119401,-0.00005040,0.04644402,-0.0009324
 8,-0.00004069,-0.00153883,0.00293146,-0.00858660,0.00108418,-0.0029640
 4,0.00031684,-0.00141652,0.00089191,0.00021136,0.00002220,0.00001159,0
 .00004085,0.00001148,-0.00000366,-0.00001267,0.00000906,0.00001930,0.0
 0001592,-0.00004399,0.00000689,0.00000617,-0.00000261,-0.00019205,-0.0
 0010697,0.00015305,-0.00002524,-0.00005107,-0.00001555,0.00000599,0.00
 000870,0.00003382,-0.00040351,0.00018389,0.00004619,-0.00002252,0.0000
 5509,-0.00001096,0.00011517,0.00005452,0.00000280,-0.00000921,-0.00006
 539,0.00002485,-0.00006023,0.00000322,0.00002459,0.00155617,0.00030966
 ,-0.00005333,0.00026546,0.00034933,-0.00012134,0.00006258,0.00034711,0
 .00007873,-0.00012621,-0.00021247,0.00006074,-0.01706325,-0.31447621,0
 .04180140,-0.00289408,-0.00975176,0.00320081,-0.00008277,-0.00365648,-
 0.00116617,0.01891272,0.33505765,0.00020365,0.00032117,-0.00044048,0.0
 0094589,-0.01467818,0.00175663,-0.00279705,0.00037555,-0.00333846,0.00
 051305,0.00003907,-0.00018961,-0.00007283,0.00001194,0.00000697,0.0000
 0053,-0.00000378,0.00000615,-0.00001925,0.00001863,-0.00003199,0.00000
 625,-0.00000200,0.00000021,0.00004989,0.00000169,0.00007528,0.00001524
 ,0.00002287,0.00000207,0.00001836,0.00001261,-0.00001345,-0.00027605,0
 .00010580,-0.00001641,-0.00003348,0.00011104,-0.00001772,0.00010357,0.
 00001442,-0.00000470,-0.00001947,-0.00006686,0.00001181,-0.00004067,-0
 .00001251,0.00001273,0.00008967,0.00074478,0.00039645,-0.00024841,-0.0
 0012860,-0.00001291,0.00055073,-0.00056683,0.00011168,-0.00017596,0.00
 024486,-0.00004185,0.00407820,0.03799788,-0.04523083,-0.00278681,-0.01
 340794,0.00229099,0.00258146,0.03102895,-0.00318371,-0.00268650,-0.042
 18457,0.04785116\\0.00000250,0.00000277,0.00000531,0.00000361,-0.00000
 178,-0.00000411,-0.00000463,-0.00000013,-0.00000404,-0.00000289,0.0000
 0230,-0.00000061,0.00000284,0.00000773,-0.00000050,-0.00000273,-0.0000
 0300,-0.00000300,-0.00000636,-0.00000530,-0.00000445,-0.00000624,-0.00
 000079,-0.00001021,0.00000178,-0.00000457,-0.00000481,0.00000095,0.000
 00296,0.00000609,-0.00000397,0.00000536,-0.00000065,0.00000292,0.00000
 532,0.00000769,0.00000122,0.00000460,0.00000299,-0.00000606,0.00000682
 ,-0.00000308,-0.00000321,0.00001031,-0.00000112,-0.00000660,0.00000943
 ,-0.00000117,0.00000652,-0.00000472,0.00000089,0.00000569,-0.00000112,
 0.00000609,0.00000475,-0.00000469,0.00000656,0.00000541,-0.00000709,0.
 00000414,-0.00000632,-0.00000010,0.00000692,0.00000481,-0.00000958,-0.
 00000715,0.00000239,-0.00000853,-0.00000326,0.00000361,-0.00000623,0.0
 0000150\\\@
 The archive entry for this job was punched.


 In the beginning there was nothing, which exploded.
 Job cpu time:       0 days  0 hours 23 minutes  8.1 seconds.
 Elapsed time:       0 days  0 hours  1 minutes 56.7 seconds.
 File lengths (MBytes):  RWF=    184 Int=      0 D2E=      0 Chk=     10 Scr=      1
 Normal termination of Gaussian 16 at Sat Dec 30 21:04:24 2023.
