Unloading slurm/anatra/current
  ERROR: No such file or directory on
    '/cm/local/modulefiles/slurm/anatra/current'
environment: line 0: unalias: gv: not found
environment: line 0: unalias: sl: not found
 Entering Gaussian System, Link 0=g16
 Initial command:
 /apps/gaussian/g16/C.01/g16/l1.exe "/local/jobs/1153186/Gau-3245909.inp" -scrdir="/local/jobs/1153186/"
 Entering Link 1 = /apps/gaussian/g16/C.01/g16/l1.exe PID=   3245912.
  
 Copyright (c) 1988-2019, Gaussian, Inc.  All Rights Reserved.
  
 This is part of the Gaussian(R) 16 program.  It is based on
 the Gaussian(R) 09 system (copyright 2009, Gaussian, Inc.),
 the Gaussian(R) 03 system (copyright 2003, Gaussian, Inc.),
 the Gaussian(R) 98 system (copyright 1998, Gaussian, Inc.),
 the Gaussian(R) 94 system (copyright 1995, Gaussian, Inc.),
 the Gaussian 92(TM) system (copyright 1992, Gaussian, Inc.),
 the Gaussian 90(TM) system (copyright 1990, Gaussian, Inc.),
 the Gaussian 88(TM) system (copyright 1988, Gaussian, Inc.),
 the Gaussian 86(TM) system (copyright 1986, Carnegie Mellon
 University), and the Gaussian 82(TM) system (copyright 1983,
 Carnegie Mellon University). Gaussian is a federally registered
 trademark of Gaussian, Inc.
  
 This software contains proprietary and confidential information,
 including trade secrets, belonging to Gaussian, Inc.
  
 This software is provided under written license and may be
 used, copied, transmitted, or stored only in accord with that
 written license.
  
 The following legend is applicable only to US Government
 contracts under FAR:
  
                    RESTRICTED RIGHTS LEGEND
  
 Use, reproduction and disclosure by the US Government is
 subject to restrictions as set forth in subparagraphs (a)
 and (c) of the Commercial Computer Software - Restricted
 Rights clause in FAR 52.227-19.
  
 Gaussian, Inc.
 340 Quinnipiac St., Bldg. 40, Wallingford CT 06492
  
  
 ---------------------------------------------------------------
 Warning -- This program may not be used in any manner that
 competes with the business of Gaussian, Inc. or will provide
 assistance to any competitor of Gaussian, Inc.  The licensee
 of this program is prohibited from giving any competitor of
 Gaussian, Inc. access to this program.  By using this program,
 the user acknowledges that Gaussian, Inc. is engaged in the
 business of creating and licensing software in the field of
 computational chemistry and represents and warrants to the
 licensee that it is not a competitor of Gaussian, Inc. and that
 it will not use this program in any manner prohibited above.
 ---------------------------------------------------------------
  

 Cite this work as:
 Gaussian 16, Revision C.01,
 M. J. Frisch, G. W. Trucks, H. B. Schlegel, G. E. Scuseria, 
 M. A. Robb, J. R. Cheeseman, G. Scalmani, V. Barone, 
 G. A. Petersson, H. Nakatsuji, X. Li, M. Caricato, A. V. Marenich, 
 J. Bloino, B. G. Janesko, R. Gomperts, B. Mennucci, H. P. Hratchian, 
 J. V. Ortiz, A. F. Izmaylov, J. L. Sonnenberg, D. Williams-Young, 
 F. Ding, F. Lipparini, F. Egidi, J. Goings, B. Peng, A. Petrone, 
 T. Henderson, D. Ranasinghe, V. G. Zakrzewski, J. Gao, N. Rega, 
 G. Zheng, W. Liang, M. Hada, M. Ehara, K. Toyota, R. Fukuda, 
 J. Hasegawa, M. Ishida, T. Nakajima, Y. Honda, O. Kitao, H. Nakai, 
 T. Vreven, K. Throssell, J. A. Montgomery, Jr., J. E. Peralta, 
 F. Ogliaro, M. J. Bearpark, J. J. Heyd, E. N. Brothers, K. N. Kudin, 
 V. N. Staroverov, T. A. Keith, R. Kobayashi, J. Normand, 
 K. Raghavachari, A. P. Rendell, J. C. Burant, S. S. Iyengar, 
 J. Tomasi, M. Cossi, J. M. Millam, M. Klene, C. Adamo, R. Cammi, 
 J. W. Ochterski, R. L. Martin, K. Morokuma, O. Farkas, 
 J. B. Foresman, and D. J. Fox, Gaussian, Inc., Wallingford CT, 2019.
 
 ******************************************
 Gaussian 16:  ES64L-G16RevC.01  3-Jul-2019
                30-Dec-2023 
 ******************************************
 %chk=TS-898_opt_sqm_re_freq.chk
 %nprocshared=12
 Will use up to   12 processors via shared memory.
 %mem=48GB
 -----------------------------------------------------------
 # wb97xd def2svp scrf=(iefpcm,solvent=toluene) freq=noraman
 -----------------------------------------------------------
 1/10=4,30=1,38=1/1,3;
 2/12=2,17=6,18=5,40=1/2;
 3/5=43,7=101,11=2,25=1,30=1,70=2201,71=2,72=13,74=-58,140=1/1,2,3;
 4//1;
 5/5=2,38=5,53=13,98=1/2;
 8/6=4,10=90,11=11/1;
 11/6=1,8=1,9=11,15=111,16=1/1,2,10;
 10/6=1/2;
 6/7=2,8=2,9=2,10=2,28=1/1;
 7/8=1,10=1,25=1/1,2,3,16;
 1/10=4,30=1/3;
 99//99;
 ---------------------
 TS-898_opt_sqm_re.out
 ---------------------
 Symbolic Z-matrix:
 Charge =  0 Multiplicity = 1
 C                     0.58897  -0.47546   0.15235 
 C                     1.83159   0.04201  -0.36722 
 O                     1.95851   0.88113  -1.26663 
 C                    -0.65101  -0.02301  -0.3531 
 C                    -0.68347   2.14264   1.28301 
 H                    -1.01192   2.55021   2.24802 
 H                     0.36689   1.82197   1.35147 
 H                    -0.77038   2.91524   0.51043 
 N                    -1.47462   0.97617   0.90009 
 H                    -1.58535   0.32782   1.68165 
 H                    -2.41481   1.21807   0.581 
 Cl                   -1.99897  -1.30276  -0.42946 
 C                    -0.76341   0.83851  -1.58413 
 H                    -0.12801   1.72546  -1.49136 
 H                    -0.3828    0.27593  -2.44631 
 H                    -1.81136   1.11091  -1.77264 
 C                     0.61055  -1.43935   1.32112 
 H                    -0.3936   -1.83471   1.52957 
 H                     1.2472   -2.31894   1.1328 
 H                     0.98331  -0.97997   2.25581 
 C                     3.10761  -0.51537   0.26411 
 H                     3.96803  -0.02076  -0.20353 
 H                     3.13627  -0.34386   1.35134 
 H                     3.18828  -1.60256   0.10823 
 

 GradGradGradGradGradGradGradGradGradGradGradGradGradGradGradGradGradGrad
 Berny optimization.
 Initialization pass.
 Trust Radius=3.00D-01 FncErr=1.00D-07 GrdErr=1.00D-07 EigMax=2.50D+02 EigMin=1.00D-04
 Number of steps in this run=      2 maximum allowed number of steps=      2.
 GradGradGradGradGradGradGradGradGradGradGradGradGradGradGradGradGradGrad

                          Input orientation:                          
 ---------------------------------------------------------------------
 Center     Atomic      Atomic             Coordinates (Angstroms)
 Number     Number       Type             X           Y           Z
 ---------------------------------------------------------------------
      1          6           0        0.588970   -0.475460    0.152350
      2          6           0        1.831590    0.042010   -0.367220
      3          8           0        1.958510    0.881130   -1.266630
      4          6           0       -0.651010   -0.023010   -0.353100
      5          6           0       -0.683470    2.142640    1.283010
      6          1           0       -1.011920    2.550210    2.248020
      7          1           0        0.366890    1.821970    1.351470
      8          1           0       -0.770380    2.915240    0.510430
      9          7           0       -1.474620    0.976170    0.900090
     10          1           0       -1.585350    0.327820    1.681650
     11          1           0       -2.414810    1.218070    0.581000
     12         17           0       -1.998970   -1.302760   -0.429460
     13          6           0       -0.763410    0.838510   -1.584130
     14          1           0       -0.128010    1.725460   -1.491360
     15          1           0       -0.382800    0.275930   -2.446310
     16          1           0       -1.811360    1.110910   -1.772640
     17          6           0        0.610550   -1.439350    1.321120
     18          1           0       -0.393600   -1.834710    1.529570
     19          1           0        1.247200   -2.318940    1.132800
     20          1           0        0.983310   -0.979970    2.255810
     21          6           0        3.107610   -0.515370    0.264110
     22          1           0        3.968030   -0.020760   -0.203530
     23          1           0        3.136270   -0.343860    1.351340
     24          1           0        3.188280   -1.602560    0.108230
 ---------------------------------------------------------------------
                    Distance matrix (angstroms):
                    1          2          3          4          5
     1  C    0.000000
     2  C    1.442856   0.000000
     3  O    2.393633   1.236596   0.000000
     4  C    1.413415   2.483491   2.908883   0.000000
     5  C    3.122810   3.668982   3.882284   2.714397   0.000000
     6  H    4.013647   4.606093   4.895104   3.676621   1.097833
     7  H    2.601037   2.875326   3.205134   2.710282   1.100351
     8  H    3.670545   3.974414   3.839582   3.064840   1.096058
     9  N    2.631492   3.661933   4.060799   1.801993   1.460547
    10  H    2.776992   3.994375   4.643000   2.266336   2.065399
    11  H    3.474835   4.507122   4.759537   2.350279   2.084511
    12  Cl   2.778554   4.060230   4.596942   1.860265   4.066187
    13  C    2.563359   2.974779   2.740706   1.506747   3.150815
    14  H    2.838995   2.817397   2.262070   2.150886   2.860018
    15  H    2.874362   3.046450   2.690659   2.131392   4.181248
    16  H    3.461754   4.048313   3.810612   2.155755   3.416665
    17  C    1.515115   2.556532   3.728012   2.529934   3.808752
    18  H    2.170193   3.474386   4.552685   2.625445   3.995514
    19  H    2.189285   2.857561   4.062471   3.329023   4.863717
    20  H    2.198767   2.940120   4.101499   3.223846   3.670857
    21  C    2.521434   1.528881   2.369348   3.840650   4.740829
    22  H    3.428039   2.143621   2.445763   4.621462   5.341025
    23  H    2.818445   2.191925   3.121135   4.165519   4.558263
    24  H    2.833498   2.184324   3.093750   4.177074   5.513355
                    6          7          8          9         10
     6  H    0.000000
     7  H    1.798681   0.000000
     8  H    1.791873   1.787728   0.000000
     9  N    2.123348   2.076122   2.099472   0.000000
    10  H    2.364025   2.480473   2.954772   1.021496   0.000000
    11  H    2.553753   2.948928   2.364216   1.021906   1.640725
    12  Cl   4.794637   4.304990   4.492700   2.690013   2.699381
    13  C    4.204408   3.295834   2.949583   2.587686   3.406128
    14  H    3.929946   2.887200   2.415653   2.844965   3.761014
    15  H    5.254034   4.168382   3.982272   3.588983   4.299869
    16  H    4.344697   3.874331   3.090575   2.697227   3.549145
    17  C    4.405467   3.270550   4.639681   3.218686   2.841628
    18  H    4.486203   3.739167   4.872641   3.076670   2.473850
    19  H    5.482332   4.239092   5.643989   4.280211   3.915343
    20  H    4.055018   3.008101   4.614590   3.421386   2.939046
    21  C    5.504926   3.762586   5.183490   4.860658   4.974361
    22  H    6.117180   4.333808   5.619819   5.642188   5.874984
    23  H    5.136843   3.515720   5.156625   4.817303   4.780581
    24  H    6.282188   4.607960   6.020238   5.386978   5.384195
                   11         12         13         14         15
    11  H    0.000000
    12  Cl   2.747460   0.000000
    13  C    2.749359   2.728536   0.000000
    14  H    3.127551   3.714598   1.094998   0.000000
    15  H    3.765806   3.028523   1.097595   1.754419   0.000000
    16  H    2.432130   2.768598   1.099062   1.813962   1.786563
    17  C    4.094199   3.145279   3.939148   4.297853   4.257048
    18  H    3.782134   2.588046   4.120436   4.676683   4.501393
    19  H    5.121059   3.743113   4.625338   5.013441   4.711717
    20  H    4.379907   4.026023   4.593804   4.753490   5.055044
    21  C    5.796754   5.213270   4.498197   4.309551   4.489487
    22  H    6.549109   6.107345   5.003092   4.635228   4.903857
    23  H    5.817864   5.519187   5.022199   4.797765   5.214416
    24  H    6.290793   5.223653   4.943557   4.963082   4.775669
                   16         17         18         19         20
    16  H    0.000000
    17  C    4.684103   0.000000
    18  H    4.646645   1.099126   0.000000
    19  H    5.436933   1.102028   1.756169   0.000000
    20  H    5.330138   1.106176   1.775918   1.767379   0.000000
    21  C    5.566813   2.864667   3.949749   2.732876   2.948792
    22  H    6.094599   3.950902   5.031686   3.803988   3.984594
    23  H    6.029482   2.753230   3.835933   2.741767   2.420318
    24  H    5.991410   2.853495   3.860565   2.308839   3.140320
                   21         22         23         24
    21  C    0.000000
    22  H    1.097109   0.000000
    23  H    1.101048   1.792718   0.000000
    24  H    1.101267   1.790892   1.769846   0.000000
 Stoichiometry    C7H14ClNO
 Framework group  C1[X(C7H14ClNO)]
 Deg. of freedom    66
 Full point group                 C1      NOp   1
 Largest Abelian subgroup         C1      NOp   1
 Largest concise Abelian subgroup C1      NOp   1
                         Standard orientation:                         
 ---------------------------------------------------------------------
 Center     Atomic      Atomic             Coordinates (Angstroms)
 Number     Number       Type             X           Y           Z
 ---------------------------------------------------------------------
      1          6           0        0.588969   -0.475461    0.152349
      2          6           0        1.831590    0.042005   -0.367221
      3          8           0        1.958513    0.881125   -1.266631
      4          6           0       -0.651010   -0.023007   -0.353101
      5          6           0       -0.683464    2.142643    1.283009
      6          1           0       -1.011913    2.550214    2.248019
      7          1           0        0.366895    1.821970    1.351469
      8          1           0       -0.770372    2.915243    0.510429
      9          7           0       -1.474617    0.976175    0.900089
     10          1           0       -1.585349    0.327825    1.681649
     11          1           0       -2.414806    1.218078    0.580999
     12         17           0       -1.998973   -1.302754   -0.429461
     13          6           0       -0.763407    0.838513   -1.584131
     14          1           0       -0.128005    1.725461   -1.491361
     15          1           0       -0.382799    0.275932   -2.446311
     16          1           0       -1.811357    1.110916   -1.772641
     17          6           0        0.610546   -1.439351    1.321119
     18          1           0       -0.393605   -1.834708    1.529569
     19          1           0        1.247194   -2.318943    1.132799
     20          1           0        0.983307   -0.979972    2.255809
     21          6           0        3.107609   -0.515378    0.264109
     22          1           0        3.968030   -0.020771   -0.203531
     23          1           0        3.136269   -0.343868    1.351339
     24          1           0        3.188276   -1.602568    0.108229
 ---------------------------------------------------------------------
 Rotational constants (GHZ):           1.3850779           0.8171302           0.7405765
 Standard basis: def2SVP (5D, 7F)
 There are   224 symmetry adapted cartesian basis functions of A   symmetry.
 There are   214 symmetry adapted basis functions of A   symmetry.
   214 basis functions,   360 primitive gaussians,   224 cartesian basis functions
    44 alpha electrons       44 beta electrons
       nuclear repulsion energy       670.6663380644 Hartrees.
 NAtoms=   24 NActive=   24 NUniq=   24 SFac= 1.00D+00 NAtFMM=   60 NAOKFM=F Big=F
 Integral buffers will be    131072 words long.
 Raffenetti 2 integral format.
 Two-electron integral symmetry is turned on.
 Nuclear repulsion after empirical dispersion term =      670.6484842706 Hartrees.
 Force inversion solution in PCM.
 ------------------------------------------------------------------------------
 Polarizable Continuum Model (PCM)
 =================================
 Model                : PCM.
 Atomic radii         : UFF (Universal Force Field).
 Polarization charges : Total charges.
 Charge compensation  : None.
 Solution method      : Matrix inversion.
 Cavity type          : Scaled VdW (van der Waals Surface) (Alpha=1.100).
 Cavity algorithm     : GePol (No added spheres)
                        Default sphere list used, NSphG=   24.
                        Lebedev-Laikov grids with approx.  5.0 points / Ang**2.
                        Smoothing algorithm: York/Karplus (Gamma=1.0000).
                        Polarization charges: spherical gaussians, with
                                              point-specific exponents (IZeta= 3).
                        Self-potential: point-specific (ISelfS= 7).
                        Self-field    : sphere-specific E.n sum rule (ISelfD= 2).
 1st derivatives      : Analytical E(r).r(x)/FMM algorithm (CHGder, D1EAlg=3).
                        Cavity 1st derivative terms included.
 2nd derivatives      : Analytical E(r).r(xy)/FMM algorithm (CHGder, D2EAlg=3).
                        Cavity 2nd derivative terms included.
 Solvent              : Toluene, Eps=   2.374100 Eps(inf)=   2.238315
 ------------------------------------------------------------------------------
 One-electron integrals computed using PRISM.
   1 Symmetry operations used in ECPInt.
 ECPInt:  NShTT=    5460 NPrTT=   19488 LenC2=    5396 LenP2D=   15064.
 LDataN:  DoStor=T MaxTD1= 4 Len=   56
 NBasis=   214 RedAO= T EigKep=  1.01D-03  NBF=   214
 NBsUse=   214 1.00D-06 EigRej= -1.00D+00 NBFU=   214
 ExpMin= 1.22D-01 ExpMax= 1.04D+04 ExpMxC= 1.57D+03 IAcc=3 IRadAn=         5 AccDes= 0.00D+00
 Harris functional with IExCor= 4639 and IRadAn=       5 diagonalized for initial guess.
 HarFok:  IExCor= 4639 AccDes= 0.00D+00 IRadAn=         5 IDoV= 1 UseB2=F ITyADJ=14
 ICtDFT=  3500011 ScaDFX=  1.000000  1.000000  1.000000  1.000000
 FoFCou: FMM=F IPFlag=           0 FMFlag=      100000 FMFlg1=           0
         NFxFlg=           0 DoJE=T BraDBF=F KetDBF=T FulRan=T
         wScrn=  0.000000 ICntrl=       500 IOpCl=  0 I1Cent=   200000004 NGrid=           0
         NMat0=    1 NMatS0=      1 NMatT0=    0 NMatD0=    1 NMtDS0=    0 NMtDT0=    0
 Petite list used in FoFCou.
 Requested convergence on RMS density matrix=1.00D-08 within 128 cycles.
 Requested convergence on MAX density matrix=1.00D-06.
 Requested convergence on             energy=1.00D-06.
 No special actions if energy rises.
 Inv3:  Mode=1 IEnd=     8548032.
 Iteration    1 A*A^-1 deviation from unit magnitude is 2.89D-15 for    742.
 Iteration    1 A*A^-1 deviation from orthogonality  is 2.01D-15 for   1135    107.
 Iteration    1 A^-1*A deviation from unit magnitude is 2.89D-15 for    394.
 Iteration    1 A^-1*A deviation from orthogonality  is 1.97D-15 for   1315    229.
 Error on total polarization charges =  0.00583
 SCF Done:  E(RwB97XD) =  -864.737843887     A.U. after   14 cycles
            NFock= 14  Conv=0.99D-08     -V/T= 2.0064
 DoSCS=F DFT=T ScalE2(SS,OS)=  1.000000  1.000000
 Range of M.O.s used for correlation:     1   214
 NBasis=   214 NAE=    44 NBE=    44 NFC=     0 NFV=     0
 NROrb=    214 NOA=    44 NOB=    44 NVA=   170 NVB=   170
   1 Symmetry operations used in ECPInt.
 ECPInt:  NShTT=    5460 NPrTT=   19488 LenC2=    5396 LenP2D=   15064.
 LDataN:  DoStor=T MaxTD1= 5 Len=  102
 Symmetrizing basis deriv contribution to polar:
 IMax=3 JMax=2 DiffMx= 0.00D+00
 G2DrvN: will do    25 centers at a time, making    1 passes.
 Calling FoFCou, ICntrl=  3107 FMM=F I1Cent=   0 AccDes= 0.00D+00.
 NEqPCM:  Using equilibrium solvation (IEInf=0, Eps=   2.3741, EpsInf=   2.2383)
 G2PCM: DoFxE=T DoFxN=T DoGrad=T DoDP/DQ/DG/TGxP=FFFF NFrqRd=   0 IEInf=0 SqF1=F DoCFld=F IF1Alg=4.
 End of G2Drv F.D. properties file   721 does not exist.
 End of G2Drv F.D. properties file   722 does not exist.
 End of G2Drv F.D. properties file   788 does not exist.
          IDoAtm=111111111111111111111111
 NEqPCM:  Using equilibrium solvation (IEInf=0, Eps=   2.3741, EpsInf=   2.2383)
          Differentiating once with respect to electric field.
                with respect to dipole field.
          Differentiating once with respect to nuclear coordinates.
 Keep R1 ints in memory in canonical form, NReq=546878450.
          There are    75 degrees of freedom in the 1st order CPHF.  IDoFFX=6 NUNeed=     3.
     72 vectors produced by pass  0 Test12= 9.97D-15 1.33D-09 XBig12= 5.63D+01 4.68D+00.
 AX will form    72 AO Fock derivatives at one time.
     72 vectors produced by pass  1 Test12= 9.97D-15 1.33D-09 XBig12= 3.73D+00 3.07D-01.
     72 vectors produced by pass  2 Test12= 9.97D-15 1.33D-09 XBig12= 1.16D-01 4.18D-02.
     72 vectors produced by pass  3 Test12= 9.97D-15 1.33D-09 XBig12= 1.01D-03 4.15D-03.
     72 vectors produced by pass  4 Test12= 9.97D-15 1.33D-09 XBig12= 6.83D-06 2.87D-04.
     72 vectors produced by pass  5 Test12= 9.97D-15 1.33D-09 XBig12= 3.75D-08 2.15D-05.
     54 vectors produced by pass  6 Test12= 9.97D-15 1.33D-09 XBig12= 1.75D-10 1.32D-06.
     12 vectors produced by pass  7 Test12= 9.97D-15 1.33D-09 XBig12= 6.89D-13 7.21D-08.
      3 vectors produced by pass  8 Test12= 9.97D-15 1.33D-09 XBig12= 2.84D-15 4.65D-09.
 InvSVY:  IOpt=1 It=  1 EMax= 2.66D-15
 Solved reduced A of dimension   501 with    75 vectors.
 Isotropic polarizability for W=    0.000000      115.19 Bohr**3.
 End of Minotr F.D. properties file   721 does not exist.
 End of Minotr F.D. properties file   722 does not exist.
 End of Minotr F.D. properties file   788 does not exist.

 **********************************************************************

            Population analysis using the SCF Density.

 **********************************************************************

 Orbital symmetries:
       Occupied  (A) (A) (A) (A) (A) (A) (A) (A) (A) (A) (A) (A)
                 (A) (A) (A) (A) (A) (A) (A) (A) (A) (A) (A) (A)
                 (A) (A) (A) (A) (A) (A) (A) (A) (A) (A) (A) (A)
                 (A) (A) (A) (A) (A) (A) (A) (A)
       Virtual   (A) (A) (A) (A) (A) (A) (A) (A) (A) (A) (A) (A)
                 (A) (A) (A) (A) (A) (A) (A) (A) (A) (A) (A) (A)
                 (A) (A) (A) (A) (A) (A) (A) (A) (A) (A) (A) (A)
                 (A) (A) (A) (A) (A) (A) (A) (A) (A) (A) (A) (A)
                 (A) (A) (A) (A) (A) (A) (A) (A) (A) (A) (A) (A)
                 (A) (A) (A) (A) (A) (A) (A) (A) (A) (A) (A) (A)
                 (A) (A) (A) (A) (A) (A) (A) (A) (A) (A) (A) (A)
                 (A) (A) (A) (A) (A) (A) (A) (A) (A) (A) (A) (A)
                 (A) (A) (A) (A) (A) (A) (A) (A) (A) (A) (A) (A)
                 (A) (A) (A) (A) (A) (A) (A) (A) (A) (A) (A) (A)
                 (A) (A) (A) (A) (A) (A) (A) (A) (A) (A) (A) (A)
                 (A) (A) (A) (A) (A) (A) (A) (A) (A) (A) (A) (A)
                 (A) (A) (A) (A) (A) (A) (A) (A) (A) (A) (A) (A)
                 (A) (A) (A) (A) (A) (A) (A) (A) (A) (A) (A) (A)
                 (A) (A)
 The electronic state is 1-A.
 Alpha  occ. eigenvalues -- -101.66009 -19.18330 -14.53291 -10.40653 -10.35276
 Alpha  occ. eigenvalues --  -10.34214 -10.29622 -10.28403 -10.27306 -10.25551
 Alpha  occ. eigenvalues --   -9.56779  -7.32097  -7.31233  -7.31201  -1.07209
 Alpha  occ. eigenvalues --   -1.06384  -0.94770  -0.86176  -0.83060  -0.80246
 Alpha  occ. eigenvalues --   -0.78770  -0.73327  -0.67037  -0.65297  -0.60127
 Alpha  occ. eigenvalues --   -0.58359  -0.56003  -0.53705  -0.51968  -0.50907
 Alpha  occ. eigenvalues --   -0.49767  -0.49438  -0.47963  -0.46958  -0.46331
 Alpha  occ. eigenvalues --   -0.44967  -0.44101  -0.44047  -0.42679  -0.40558
 Alpha  occ. eigenvalues --   -0.38426  -0.37841  -0.28808  -0.25258
 Alpha virt. eigenvalues --    0.08285   0.08753   0.11084   0.14213   0.15420
 Alpha virt. eigenvalues --    0.16556   0.17185   0.19229   0.19767   0.20875
 Alpha virt. eigenvalues --    0.21501   0.22706   0.22947   0.24416   0.24950
 Alpha virt. eigenvalues --    0.25225   0.26992   0.28821   0.31099   0.31892
 Alpha virt. eigenvalues --    0.35490   0.37953   0.40834   0.46042   0.46440
 Alpha virt. eigenvalues --    0.48992   0.50539   0.50952   0.53233   0.53787
 Alpha virt. eigenvalues --    0.56650   0.57288   0.59137   0.60969   0.61521
 Alpha virt. eigenvalues --    0.63600   0.66737   0.68617   0.69398   0.71009
 Alpha virt. eigenvalues --    0.72540   0.72766   0.73266   0.73590   0.73873
 Alpha virt. eigenvalues --    0.74639   0.74984   0.75401   0.75879   0.77184
 Alpha virt. eigenvalues --    0.77318   0.78000   0.78746   0.79441   0.80100
 Alpha virt. eigenvalues --    0.81320   0.81628   0.83762   0.84149   0.85304
 Alpha virt. eigenvalues --    0.85596   0.86898   0.89581   0.91554   0.93143
 Alpha virt. eigenvalues --    0.93923   0.95030   0.96689   1.01582   1.03734
 Alpha virt. eigenvalues --    1.04863   1.08377   1.10874   1.13214   1.16708
 Alpha virt. eigenvalues --    1.18842   1.20395   1.25528   1.26005   1.26999
 Alpha virt. eigenvalues --    1.32463   1.35629   1.38182   1.41422   1.42612
 Alpha virt. eigenvalues --    1.43107   1.46310   1.46608   1.54661   1.56768
 Alpha virt. eigenvalues --    1.58521   1.61034   1.62207   1.63882   1.66690
 Alpha virt. eigenvalues --    1.67836   1.69132   1.72530   1.72840   1.77244
 Alpha virt. eigenvalues --    1.78794   1.82348   1.83638   1.84370   1.85093
 Alpha virt. eigenvalues --    1.86675   1.87585   1.89115   1.89812   1.91303
 Alpha virt. eigenvalues --    1.92290   1.92514   1.94157   1.95040   1.96611
 Alpha virt. eigenvalues --    1.99862   2.00736   2.03820   2.05965   2.06582
 Alpha virt. eigenvalues --    2.08305   2.09256   2.11999   2.13614   2.14832
 Alpha virt. eigenvalues --    2.18618   2.20154   2.21872   2.23097   2.30273
 Alpha virt. eigenvalues --    2.31719   2.35815   2.40371   2.40655   2.45562
 Alpha virt. eigenvalues --    2.45644   2.46765   2.50142   2.52335   2.55629
 Alpha virt. eigenvalues --    2.57646   2.58105   2.59104   2.65181   2.66879
 Alpha virt. eigenvalues --    2.69830   2.72768   2.75036   2.80158   2.81537
 Alpha virt. eigenvalues --    2.82651   2.84868   2.86575   2.91947   2.93889
 Alpha virt. eigenvalues --    3.00903   3.02350   3.02560   3.03359   3.05198
 Alpha virt. eigenvalues --    3.05562   3.06756   3.09736   3.12057   3.20319
 Alpha virt. eigenvalues --    3.24216   3.27618   3.47926   3.53586   3.76277
          Condensed to atoms (all electrons):
               1          2          3          4          5          6
     1  C    5.854043   0.222956  -0.123380   0.391082  -0.011287  -0.000784
     2  C    0.222956   4.721905   0.705917  -0.048129  -0.000328  -0.000025
     3  O   -0.123380   0.705917   7.829302  -0.019415   0.000108   0.000012
     4  C    0.391082  -0.048129  -0.019415   5.328148  -0.029596   0.003312
     5  C   -0.011287  -0.000328   0.000108  -0.029596   4.528229   0.403869
     6  H   -0.000784  -0.000025   0.000012   0.003312   0.403869   0.583817
     7  H    0.021684   0.006551   0.000468  -0.005187   0.402538  -0.018767
     8  H   -0.001227  -0.000256  -0.000370  -0.002358   0.406019  -0.019212
     9  N   -0.112444  -0.002241   0.000170   0.101684   0.311952  -0.015818
    10  H   -0.005577   0.000059  -0.000024  -0.004751  -0.016302  -0.009029
    11  H    0.008563  -0.000002  -0.000007  -0.006592  -0.016386  -0.002968
    12  Cl  -0.079852  -0.001152  -0.000008   0.259717   0.002923  -0.000164
    13  C   -0.054268   0.001222  -0.004315   0.375052   0.000485  -0.000076
    14  H   -0.027718   0.003578   0.026549   0.012414   0.003345   0.000025
    15  H   -0.011757   0.000178   0.003205  -0.003210  -0.000133   0.000007
    16  H    0.011722   0.001208   0.001861  -0.031719  -0.001397  -0.000020
    17  C    0.328125  -0.009434   0.004040  -0.069868  -0.000587   0.000096
    18  H   -0.023741   0.007744  -0.000073  -0.017138  -0.000079  -0.000012
    19  H   -0.001122  -0.018811   0.000006   0.005742  -0.000052  -0.000002
    20  H   -0.023888  -0.012434   0.000042   0.000110   0.000972   0.000038
    21  C   -0.196865   0.425983  -0.087781   0.007542  -0.000095  -0.000000
    22  H    0.018860  -0.014932   0.013050  -0.000242  -0.000003   0.000000
    23  H   -0.006070   0.002456   0.002436  -0.000289   0.000141  -0.000001
    24  H    0.000944  -0.007615   0.001898   0.000641  -0.000002   0.000000
               7          8          9         10         11         12
     1  C    0.021684  -0.001227  -0.112444  -0.005577   0.008563  -0.079852
     2  C    0.006551  -0.000256  -0.002241   0.000059  -0.000002  -0.001152
     3  O    0.000468  -0.000370   0.000170  -0.000024  -0.000007  -0.000008
     4  C   -0.005187  -0.002358   0.101684  -0.004751  -0.006592   0.259717
     5  C    0.402538   0.406019   0.311952  -0.016302  -0.016386   0.002923
     6  H   -0.018767  -0.019212  -0.015818  -0.009029  -0.002968  -0.000164
     7  H    0.545229  -0.014950  -0.028510  -0.001906   0.006373   0.000392
     8  H   -0.014950   0.567785  -0.020955   0.005692  -0.008211   0.000020
     9  N   -0.028510  -0.020955   6.368281   0.338102   0.333060  -0.084316
    10  H   -0.001906   0.005692   0.338102   0.508951  -0.013063   0.009006
    11  H    0.006373  -0.008211   0.333060  -0.013063   0.514595   0.011187
    12  Cl   0.000392   0.000020  -0.084316   0.009006   0.011187  17.088677
    13  C   -0.002666   0.006032  -0.045261   0.004664  -0.004280  -0.062012
    14  H    0.000068   0.001877  -0.000254  -0.000131  -0.000647   0.002921
    15  H    0.000013  -0.000176   0.003598  -0.000232  -0.000095   0.002505
    16  H   -0.000021  -0.000117  -0.002424  -0.000051   0.004439   0.001377
    17  C   -0.002575   0.000065   0.003078   0.004793  -0.000488  -0.015602
    18  H    0.000025  -0.000015  -0.002699   0.004101  -0.000082   0.021689
    19  H    0.000130   0.000002  -0.000315  -0.000124   0.000017   0.001309
    20  H   -0.000668  -0.000009   0.002868  -0.000163  -0.000119   0.000009
    21  C    0.000131  -0.000036  -0.000100  -0.000027   0.000009  -0.000112
    22  H   -0.000059   0.000001   0.000004   0.000000  -0.000000   0.000002
    23  H   -0.000469   0.000007   0.000042  -0.000004  -0.000001  -0.000001
    24  H    0.000034   0.000001  -0.000010   0.000002   0.000000   0.000013
              13         14         15         16         17         18
     1  C   -0.054268  -0.027718  -0.011757   0.011722   0.328125  -0.023741
     2  C    0.001222   0.003578   0.000178   0.001208  -0.009434   0.007744
     3  O   -0.004315   0.026549   0.003205   0.001861   0.004040  -0.000073
     4  C    0.375052   0.012414  -0.003210  -0.031719  -0.069868  -0.017138
     5  C    0.000485   0.003345  -0.000133  -0.001397  -0.000587  -0.000079
     6  H   -0.000076   0.000025   0.000007  -0.000020   0.000096  -0.000012
     7  H   -0.002666   0.000068   0.000013  -0.000021  -0.002575   0.000025
     8  H    0.006032   0.001877  -0.000176  -0.000117   0.000065  -0.000015
     9  N   -0.045261  -0.000254   0.003598  -0.002424   0.003078  -0.002699
    10  H    0.004664  -0.000131  -0.000232  -0.000051   0.004793   0.004101
    11  H   -0.004280  -0.000647  -0.000095   0.004439  -0.000488  -0.000082
    12  Cl  -0.062012   0.002921   0.002505   0.001377  -0.015602   0.021689
    13  C    4.553963   0.362375   0.391282   0.368324   0.006867   0.001208
    14  H    0.362375   0.575937  -0.010848  -0.017801  -0.000124  -0.000106
    15  H    0.391282  -0.010848   0.573227  -0.020230   0.000023  -0.000014
    16  H    0.368324  -0.017801  -0.020230   0.660408  -0.000257  -0.000025
    17  C    0.006867  -0.000124   0.000023  -0.000257   4.564948   0.383403
    18  H    0.001208  -0.000106  -0.000014  -0.000025   0.383403   0.651737
    19  H   -0.000249  -0.000017   0.000033  -0.000001   0.372898  -0.017001
    20  H   -0.000227   0.000046  -0.000013   0.000013   0.385835  -0.027075
    21  C    0.000427   0.001120   0.000021   0.000063   0.010198  -0.000332
    22  H   -0.000058  -0.000024   0.000007  -0.000003  -0.000481  -0.000016
    23  H    0.000041  -0.000083   0.000002  -0.000002   0.006544   0.000312
    24  H   -0.000051  -0.000019  -0.000021  -0.000003  -0.001029   0.000155
              19         20         21         22         23         24
     1  C   -0.001122  -0.023888  -0.196865   0.018860  -0.006070   0.000944
     2  C   -0.018811  -0.012434   0.425983  -0.014932   0.002456  -0.007615
     3  O    0.000006   0.000042  -0.087781   0.013050   0.002436   0.001898
     4  C    0.005742   0.000110   0.007542  -0.000242  -0.000289   0.000641
     5  C   -0.000052   0.000972  -0.000095  -0.000003   0.000141  -0.000002
     6  H   -0.000002   0.000038  -0.000000   0.000000  -0.000001   0.000000
     7  H    0.000130  -0.000668   0.000131  -0.000059  -0.000469   0.000034
     8  H    0.000002  -0.000009  -0.000036   0.000001   0.000007   0.000001
     9  N   -0.000315   0.002868  -0.000100   0.000004   0.000042  -0.000010
    10  H   -0.000124  -0.000163  -0.000027   0.000000  -0.000004   0.000002
    11  H    0.000017  -0.000119   0.000009  -0.000000  -0.000001   0.000000
    12  Cl   0.001309   0.000009  -0.000112   0.000002  -0.000001   0.000013
    13  C   -0.000249  -0.000227   0.000427  -0.000058   0.000041  -0.000051
    14  H   -0.000017   0.000046   0.001120  -0.000024  -0.000083  -0.000019
    15  H    0.000033  -0.000013   0.000021   0.000007   0.000002  -0.000021
    16  H   -0.000001   0.000013   0.000063  -0.000003  -0.000002  -0.000003
    17  C    0.372898   0.385835   0.010198  -0.000481   0.006544  -0.001029
    18  H   -0.017001  -0.027075  -0.000332  -0.000016   0.000312   0.000155
    19  H    0.647445  -0.029247   0.010676   0.000055  -0.003365   0.001462
    20  H   -0.029247   0.682671   0.002806   0.000069   0.001500  -0.001335
    21  C    0.010676   0.002806   4.780233   0.349250   0.351551   0.366449
    22  H    0.000055   0.000069   0.349250   0.628609  -0.014974  -0.013181
    23  H   -0.003365   0.001500   0.351551  -0.014974   0.644180  -0.016173
    24  H    0.001462  -0.001335   0.366449  -0.013181  -0.016173   0.621182
 Mulliken charges:
               1
     1  C   -0.177999
     2  C    0.015604
     3  O   -0.353692
     4  C   -0.246951
     5  C    0.015667
     6  H    0.075700
     7  H    0.092143
     8  H    0.080391
     9  N   -0.147493
    10  H    0.176014
    11  H    0.174696
    12  Cl  -0.158530
    13  C    0.101521
    14  H    0.067516
    15  H    0.072626
    16  H    0.024656
    17  C    0.029530
    18  H    0.018034
    19  H    0.030530
    20  H    0.018199
    21  C   -0.021110
    22  H    0.034063
    23  H    0.032222
    24  H    0.046660
 Sum of Mulliken charges =  -0.00000
 Mulliken charges with hydrogens summed into heavy atoms:
               1
     1  C   -0.177999
     2  C    0.015604
     3  O   -0.353692
     4  C   -0.246951
     5  C    0.263901
     9  N    0.203217
    12  Cl  -0.158530
    13  C    0.266320
    17  C    0.096294
    21  C    0.091836
 APT charges:
               1
     1  C   -1.048478
     2  C    1.181414
     3  O   -0.965076
     4  C    1.678143
     5  C    0.145838
     6  H    0.014106
     7  H    0.079822
     8  H    0.037754
     9  N   -0.807641
    10  H    0.198873
    11  H    0.173095
    12  Cl  -0.632760
    13  C   -0.109220
    14  H    0.065044
    15  H    0.037260
    16  H    0.002507
    17  C    0.133283
    18  H    0.017373
    19  H   -0.029410
    20  H   -0.061345
    21  C   -0.108959
    22  H    0.004934
    23  H   -0.006754
    24  H    0.000196
 Sum of APT charges =  -0.00000
 APT charges with hydrogens summed into heavy atoms:
               1
     1  C   -1.048478
     2  C    1.181414
     3  O   -0.965076
     4  C    1.678143
     5  C    0.277519
     9  N   -0.435672
    12  Cl  -0.632760
    13  C   -0.004409
    17  C    0.059902
    21  C   -0.110583
 Electronic spatial extent (au):  <R**2>=           1844.8401
 Charge=              0.0000 electrons
 Dipole moment (field-independent basis, Debye):
    X=             -4.9605    Y=              2.7819    Z=              4.8826  Tot=              7.4956
 Quadrupole moment (field-independent basis, Debye-Ang):
   XX=            -70.4254   YY=            -66.8925   ZZ=            -67.6868
   XY=            -10.8633   XZ=              1.0716   YZ=              4.9402
 Traceless Quadrupole moment (field-independent basis, Debye-Ang):
   XX=             -2.0905   YY=              1.4424   ZZ=              0.6481
   XY=            -10.8633   XZ=              1.0716   YZ=              4.9402
 Octapole moment (field-independent basis, Debye-Ang**2):
  XXX=            -31.3900  YYY=             16.7796  ZZZ=              8.0328  XYY=            -11.3729
  XXY=              4.1578  XXZ=             18.2701  XZZ=            -17.7797  YZZ=              4.3548
  YYZ=              7.7286  XYZ=              4.0608
 Hexadecapole moment (field-independent basis, Debye-Ang**3):
 XXXX=          -1251.2401 YYYY=           -615.3541 ZZZZ=           -475.1326 XXXY=            -29.5832
 XXXZ=             -8.1934 YYYX=             -9.1783 YYYZ=             19.3644 ZZZX=            -10.9428
 ZZZY=             23.4346 XXYY=           -313.2746 XXZZ=           -300.0684 YYZZ=           -186.6038
 XXYZ=             18.5872 YYXZ=             -4.1034 ZZXY=             -9.5519
 N-N= 6.706484842706D+02 E-N=-3.375342278601D+03  KE= 8.592689587506D+02
  Exact polarizability:     139.233      -0.995     106.167      -1.012      -5.159     100.163
 Approx polarizability:     127.135       5.694     107.488      -3.508      -6.621     101.609
   1 Symmetry operations used in ECPInt.
 ECPInt:  NShTT=    5460 NPrTT=   19488 LenC2=    5396 LenP2D=   15064.
 LDataN:  DoStor=T MaxTD1= 6 Len=  172
 D2PCM: PCM CHGder 2nd derivatives, FixD1E=F FixD2E=F DoIter=F DoCFld=F I1PDM=0
 Calling FoFJK, ICntrl=    100127 FMM=F ISym2X=0 I1Cent= 0 IOpClX= 0 NMat=1 NMatS=1 NMatT=0.
 Full mass-weighted force constant matrix:
 Low frequencies --- -327.6153   -5.5805   -0.0029   -0.0011    0.0016    6.7118
 Low frequencies ---   17.2445   61.1927   71.2472
 ******    1 imaginary frequencies (negative Signs) ****** 
 Diagonal vibrational polarizability:
      123.5099591      58.1806460      52.4778045
 Harmonic frequencies (cm**-1), IR intensities (KM/Mole), Raman scattering
 activities (A**4/AMU), depolarization ratios for plane and unpolarized
 incident light, reduced masses (AMU), force constants (mDyne/A),
 and normal coordinates:
                      1                      2                      3
                      A                      A                      A
 Frequencies --   -327.6149                61.1389                70.8405
 Red. masses --      5.5922                 2.1446                 4.2990
 Frc consts  --      0.3536                 0.0047                 0.0127
 IR Inten    --    375.7454                 4.0139                 0.9824
  Atom  AN      X      Y      Z        X      Y      Z        X      Y      Z
     1   6     0.02   0.09   0.07    -0.00  -0.03  -0.04    -0.01  -0.10  -0.06
     2   6    -0.04  -0.02  -0.01    -0.00  -0.01  -0.02    -0.03   0.06   0.06
     3   8     0.00   0.00  -0.02    -0.01  -0.10  -0.11    -0.04   0.19   0.18
     4   6    -0.11   0.30   0.27     0.00  -0.02  -0.03    -0.03  -0.05  -0.01
     5   6     0.01  -0.08  -0.08     0.09  -0.08   0.07     0.18   0.01  -0.16
     6   1    -0.30  -0.23  -0.13     0.11  -0.09   0.08     0.18   0.11  -0.20
     7   1     0.02   0.06   0.08     0.08  -0.13   0.07     0.16  -0.03  -0.13
     8   1    -0.03  -0.09  -0.08     0.13  -0.05   0.10     0.21  -0.06  -0.24
     9   7     0.22  -0.26  -0.22     0.04  -0.03   0.03     0.11   0.01  -0.06
    10   1     0.20  -0.21  -0.16     0.01  -0.05   0.00     0.14   0.06  -0.01
    11   1     0.19  -0.35  -0.24     0.05   0.03   0.04     0.10   0.03  -0.00
    12  17    -0.05  -0.01  -0.01    -0.04   0.02  -0.02    -0.08   0.01   0.07
    13   6    -0.00   0.06   0.06    -0.01   0.01  -0.00    -0.03  -0.10  -0.05
    14   1     0.08   0.02  -0.10     0.01  -0.00   0.00     0.04  -0.14  -0.12
    15   1    -0.01  -0.15   0.20    -0.05   0.02  -0.02    -0.10  -0.17  -0.04
    16   1     0.02   0.09  -0.03    -0.01   0.04   0.03    -0.02  -0.04  -0.03
    17   6    -0.00   0.06   0.05    -0.02   0.04   0.02     0.00  -0.17  -0.12
    18   1     0.00   0.01  -0.00     0.04  -0.26  -0.25     0.04  -0.33  -0.26
    19   1     0.00   0.07   0.02     0.31   0.24   0.25     0.15  -0.06  -0.12
    20   1    -0.03  -0.03   0.12    -0.44   0.21   0.11    -0.16  -0.19  -0.04
    21   6    -0.02  -0.02  -0.01     0.00   0.15   0.11    -0.01   0.09   0.07
    22   1    -0.03  -0.02  -0.03    -0.01   0.27   0.20    -0.03   0.22   0.17
    23   1     0.01  -0.01  -0.01    -0.13   0.13   0.12    -0.08  -0.03   0.09
    24   1     0.00  -0.02  -0.00     0.16   0.17   0.09     0.09   0.12  -0.05
                      4                      5                      6
                      A                      A                      A
 Frequencies --    104.6929               107.8296               158.0690
 Red. masses --      1.3413                 2.0606                 1.7829
 Frc consts  --      0.0087                 0.0141                 0.0262
 IR Inten    --      3.7847                 2.5560                 4.7252
  Atom  AN      X      Y      Z        X      Y      Z        X      Y      Z
     1   6    -0.01   0.00  -0.01    -0.01   0.03   0.01     0.02   0.02   0.02
     2   6    -0.01   0.01  -0.01    -0.02   0.03   0.00     0.02  -0.00  -0.00
     3   8    -0.00  -0.03  -0.04    -0.02   0.07   0.04     0.02  -0.06  -0.06
     4   6    -0.01   0.01  -0.00    -0.01   0.00  -0.02     0.02   0.03   0.03
     5   6     0.05  -0.03   0.02     0.11  -0.12   0.11    -0.10   0.03   0.05
     6   1     0.02  -0.02   0.01    -0.05  -0.06   0.03    -0.39   0.16  -0.10
     7   1     0.03  -0.08   0.07     0.03  -0.35   0.37    -0.14  -0.02   0.42
     8   1     0.11  -0.03   0.02     0.48  -0.10   0.09     0.19  -0.06  -0.06
     9   7     0.01  -0.00  -0.01    -0.04   0.05  -0.10    -0.05   0.03  -0.06
    10   1    -0.02  -0.01  -0.02    -0.30   0.03  -0.15    -0.17   0.04  -0.07
    11   1     0.03   0.04  -0.02     0.06   0.25  -0.25    -0.00   0.05  -0.19
    12  17    -0.01   0.00   0.00     0.01  -0.02   0.01    -0.01   0.03   0.05
    13   6    -0.01   0.00  -0.01     0.00  -0.06  -0.07     0.04  -0.01  -0.01
    14   1     0.01  -0.01  -0.02    -0.06  -0.01  -0.07     0.05  -0.02  -0.04
    15   1    -0.03  -0.01  -0.01     0.08  -0.07  -0.02     0.04  -0.05   0.02
    16   1    -0.01   0.02   0.00    -0.01  -0.13  -0.13     0.05  -0.01  -0.03
    17   6     0.01  -0.04  -0.05    -0.02   0.09   0.06     0.05  -0.11  -0.08
    18   1    -0.05   0.27   0.24    -0.02   0.11   0.09     0.06  -0.15  -0.12
    19   1    -0.32  -0.25  -0.26    -0.03   0.07   0.10     0.07  -0.07  -0.20
    20   1     0.43  -0.19  -0.15    -0.01   0.13   0.03     0.04  -0.22  -0.02
    21   6    -0.02   0.09   0.09    -0.01  -0.03  -0.06     0.03   0.03   0.01
    22   1    -0.01  -0.07  -0.05    -0.01  -0.07  -0.10     0.01   0.25   0.20
    23   1    -0.00   0.39   0.04     0.05  -0.04  -0.06    -0.09  -0.25   0.06
    24   1    -0.08   0.04   0.40    -0.07  -0.04  -0.07     0.18   0.08  -0.27
                      7                      8                      9
                      A                      A                      A
 Frequencies --    191.1468               211.7550               217.2307
 Red. masses --      1.4050                 1.5998                 1.9524
 Frc consts  --      0.0302                 0.0423                 0.0543
 IR Inten    --      1.7251                 1.2264                 2.1045
  Atom  AN      X      Y      Z        X      Y      Z        X      Y      Z
     1   6     0.03  -0.04  -0.04    -0.01  -0.01   0.03     0.01   0.02  -0.09
     2   6     0.03  -0.02  -0.02    -0.03  -0.01   0.01     0.05   0.03  -0.02
     3   8     0.04   0.03   0.03    -0.05  -0.02  -0.00     0.14   0.04   0.00
     4   6     0.02  -0.02  -0.02    -0.01   0.00   0.03    -0.01  -0.01  -0.06
     5   6    -0.08   0.01   0.03     0.05   0.04  -0.06    -0.03  -0.03   0.03
     6   1    -0.25   0.09  -0.05    -0.21   0.41  -0.30    -0.13   0.07  -0.05
     7   1    -0.09   0.04   0.23    -0.01  -0.06   0.37    -0.03  -0.01   0.16
     8   1     0.03  -0.06  -0.04     0.40  -0.20  -0.34     0.05  -0.11  -0.06
     9   7    -0.00  -0.03   0.00     0.01   0.02   0.07     0.01  -0.06   0.05
    10   1     0.01  -0.04  -0.01     0.05   0.08   0.12     0.12  -0.09   0.04
    11   1    -0.01  -0.08  -0.02    -0.00   0.02   0.10    -0.03  -0.10   0.14
    12  17    -0.05   0.03   0.02     0.06  -0.03  -0.06    -0.03  -0.01   0.03
    13   6     0.03  -0.02  -0.02    -0.05   0.04   0.06    -0.07  -0.01  -0.05
    14   1     0.08  -0.06  -0.04     0.09  -0.05  -0.02     0.22  -0.20  -0.20
    15   1    -0.03  -0.06  -0.02    -0.24  -0.00   0.01    -0.43  -0.15  -0.12
    16   1     0.04   0.03   0.01    -0.04   0.18   0.20    -0.03   0.27   0.16
    17   6     0.03   0.00  -0.01    -0.02  -0.01   0.02    -0.01   0.11  -0.02
    18   1     0.06  -0.15  -0.14    -0.02  -0.05  -0.02    -0.04   0.26   0.11
    19   1     0.19   0.10   0.10     0.02   0.01   0.04    -0.15   0.01   0.00
    20   1    -0.17   0.09   0.03    -0.07  -0.01   0.04     0.13   0.15  -0.10
    21   6     0.04  -0.01  -0.02    -0.02  -0.00  -0.01    -0.02  -0.05   0.05
    22   1     0.05  -0.31  -0.33    -0.03  -0.05  -0.08     0.03   0.06   0.26
    23   1     0.20   0.44  -0.10     0.02   0.06  -0.03    -0.15  -0.27   0.09
    24   1    -0.14  -0.09   0.43    -0.05  -0.01   0.05     0.02  -0.01  -0.17
                     10                     11                     12
                      A                      A                      A
 Frequencies --    233.6523               280.4628               301.5059
 Red. masses --      2.9043                 1.3937                 2.3975
 Frc consts  --      0.0934                 0.0646                 0.1284
 IR Inten    --     23.4496                 1.2952                 3.3286
  Atom  AN      X      Y      Z        X      Y      Z        X      Y      Z
     1   6    -0.03   0.08  -0.04    -0.00  -0.03  -0.06     0.01  -0.00  -0.04
     2   6    -0.00   0.01  -0.02    -0.01  -0.01  -0.02     0.04   0.00  -0.02
     3   8     0.08  -0.01  -0.02    -0.01   0.01  -0.00     0.10   0.01  -0.00
     4   6    -0.04   0.09  -0.00     0.02   0.01  -0.05    -0.02  -0.03   0.00
     5   6     0.02   0.01   0.01    -0.01   0.03   0.03     0.03  -0.06  -0.13
     6   1     0.12  -0.14   0.11    -0.20   0.14  -0.08     0.05   0.10  -0.19
     7   1     0.02  -0.02  -0.14    -0.01   0.10   0.24    -0.02  -0.19  -0.06
     8   1    -0.06   0.11   0.13     0.08  -0.06  -0.08     0.16  -0.13  -0.21
     9   7    -0.03   0.05  -0.06     0.08  -0.04   0.04    -0.09  -0.00  -0.03
    10   1    -0.10   0.04  -0.08     0.23  -0.07   0.03    -0.21   0.07   0.01
    11   1    -0.00   0.11  -0.09     0.02  -0.12   0.15    -0.04   0.06  -0.14
    12  17     0.11  -0.06   0.08     0.02  -0.00   0.03    -0.08  -0.05   0.02
    13   6    -0.10   0.08  -0.01    -0.01   0.01  -0.05    -0.00   0.15   0.13
    14   1    -0.06   0.06  -0.04    -0.39   0.26   0.12    -0.22   0.28   0.42
    15   1    -0.17   0.07  -0.03     0.42   0.19   0.03     0.28   0.44   0.07
    16   1    -0.10   0.13   0.05    -0.07  -0.37  -0.27    -0.03  -0.02   0.02
    17   6    -0.09  -0.04  -0.14    -0.07   0.02  -0.02     0.09   0.04  -0.01
    18   1    -0.05  -0.26  -0.41    -0.09   0.09  -0.01     0.12   0.01   0.04
    19   1     0.12   0.11  -0.11    -0.12  -0.03   0.03     0.13   0.06   0.01
    20   1    -0.38  -0.09   0.01    -0.05   0.04  -0.04     0.10   0.11  -0.05
    21   6    -0.08  -0.07   0.07    -0.03  -0.02   0.03     0.02  -0.02   0.03
    22   1    -0.00  -0.28  -0.00    -0.00  -0.01   0.09     0.04  -0.02   0.07
    23   1    -0.08   0.13   0.04    -0.10  -0.05   0.03    -0.02  -0.03   0.03
    24   1    -0.22  -0.11   0.28    -0.03  -0.01   0.00     0.02  -0.02   0.02
                     13                     14                     15
                      A                      A                      A
 Frequencies --    330.7077               353.9817               365.1001
 Red. masses --      2.9450                 3.5781                 2.9686
 Frc consts  --      0.1898                 0.2642                 0.2331
 IR Inten    --      3.6479                32.7441                 5.4193
  Atom  AN      X      Y      Z        X      Y      Z        X      Y      Z
     1   6     0.01   0.16   0.10     0.02  -0.10  -0.06    -0.04  -0.00  -0.03
     2   6     0.03   0.06   0.02     0.03  -0.07  -0.00    -0.09   0.04  -0.07
     3   8     0.11  -0.01  -0.04     0.01  -0.01   0.05    -0.02   0.06  -0.05
     4   6    -0.04   0.04   0.09     0.01   0.01   0.01    -0.03  -0.01   0.02
     5   6     0.04   0.03   0.02    -0.00   0.20   0.14     0.02   0.08   0.05
     6   1     0.10   0.10   0.01    -0.16  -0.05   0.19    -0.03   0.05   0.05
     7   1     0.03  -0.02  -0.01     0.04   0.34   0.18     0.03   0.12   0.08
     8   1     0.04  -0.01  -0.03    -0.06   0.34   0.28    -0.00   0.08   0.06
     9   7    -0.02   0.03   0.11     0.13   0.14  -0.11     0.04   0.04   0.03
    10   1     0.05   0.04   0.12    -0.03   0.17  -0.10     0.08   0.04   0.03
    11   1    -0.05   0.05   0.19     0.18   0.16  -0.23     0.02   0.04   0.08
    12  17    -0.05  -0.01  -0.08    -0.06  -0.11  -0.06    -0.02  -0.08  -0.00
    13   6    -0.10  -0.16  -0.04    -0.14   0.03   0.04     0.24   0.00   0.02
    14   1    -0.34   0.03  -0.15    -0.19   0.07   0.04     0.44  -0.15   0.12
    15   1     0.13  -0.24   0.12    -0.22   0.11  -0.04     0.27  -0.06   0.08
    16   1    -0.15  -0.45  -0.21    -0.18  -0.01   0.18     0.33   0.22  -0.13
    17   6     0.12  -0.00  -0.04     0.05  -0.00   0.03     0.09   0.02  -0.02
    18   1     0.17  -0.18  -0.13     0.06   0.03   0.12     0.14  -0.07   0.01
    19   1     0.24   0.12  -0.20     0.04  -0.02   0.08     0.17   0.08  -0.02
    20   1     0.05  -0.13   0.05     0.11   0.09  -0.03     0.07   0.07  -0.04
    21   6    -0.02  -0.05   0.04     0.07  -0.00   0.02    -0.20  -0.03   0.02
    22   1     0.03  -0.17   0.03     0.03   0.08   0.04    -0.10  -0.11   0.13
    23   1    -0.00  -0.03   0.04     0.04   0.01   0.02    -0.31  -0.04   0.03
    24   1    -0.14  -0.06   0.07     0.16   0.01   0.02    -0.29  -0.03   0.03
                     16                     17                     18
                      A                      A                      A
 Frequencies --    371.5931               466.6147               500.6563
 Red. masses --      3.4271                 3.1905                 3.0931
 Frc consts  --      0.2788                 0.4093                 0.4568
 IR Inten    --     16.9035                24.4379                77.1537
  Atom  AN      X      Y      Z        X      Y      Z        X      Y      Z
     1   6    -0.01  -0.10  -0.06     0.08  -0.10  -0.07     0.12   0.09   0.13
     2   6    -0.06  -0.05  -0.01     0.03   0.02  -0.14     0.06   0.17   0.05
     3   8    -0.08  -0.01   0.03     0.09   0.11  -0.08    -0.09   0.03  -0.11
     4   6    -0.01  -0.03  -0.02     0.01  -0.07   0.16     0.17  -0.12  -0.10
     5   6    -0.03  -0.03  -0.01    -0.01   0.02  -0.01    -0.01  -0.02  -0.01
     6   1    -0.06  -0.08  -0.00     0.01  -0.01   0.01    -0.06  -0.05  -0.01
     7   1    -0.03  -0.00  -0.01    -0.01   0.03  -0.06     0.01   0.05   0.04
     8   1    -0.04  -0.00   0.02    -0.05   0.03   0.01    -0.00   0.01   0.02
     9   7     0.00  -0.03  -0.06    -0.02   0.01  -0.00     0.07  -0.03  -0.07
    10   1    -0.04  -0.03  -0.08    -0.32   0.16   0.08     0.07  -0.05  -0.09
    11   1     0.02  -0.03  -0.12     0.11   0.06  -0.33     0.08  -0.07  -0.10
    12  17     0.08   0.12  -0.01     0.04   0.05  -0.03    -0.05  -0.00   0.01
    13   6    -0.12   0.00  -0.01    -0.02  -0.15   0.18    -0.02   0.02   0.02
    14   1    -0.18   0.05  -0.06    -0.08  -0.10   0.13    -0.06   0.05   0.08
    15   1    -0.18   0.04  -0.06     0.02  -0.18   0.22    -0.20   0.22  -0.18
    16   1    -0.16  -0.07   0.10    -0.03  -0.23   0.15    -0.08   0.02   0.31
    17   6     0.25   0.01   0.04    -0.11  -0.02   0.02    -0.02  -0.04   0.05
    18   1     0.34  -0.14   0.23    -0.20   0.18  -0.07    -0.08   0.01  -0.14
    19   1     0.38   0.11   0.08    -0.24  -0.16   0.21    -0.07  -0.08   0.02
    20   1     0.29   0.20  -0.07    -0.17   0.01   0.03    -0.11  -0.19   0.16
    21   6    -0.14  -0.09   0.10    -0.07   0.02  -0.01    -0.05  -0.05   0.04
    22   1    -0.05  -0.12   0.22     0.05  -0.01   0.17     0.17  -0.35   0.13
    23   1    -0.26  -0.10   0.10    -0.30   0.04  -0.01    -0.06  -0.18   0.06
    24   1    -0.16  -0.09   0.10    -0.08   0.01   0.04    -0.46  -0.07  -0.05
                     19                     20                     21
                      A                      A                      A
 Frequencies --    566.2397               614.1174               658.9285
 Red. masses --      3.5943                 3.2429                 2.8404
 Frc consts  --      0.6790                 0.7206                 0.7266
 IR Inten    --     83.7765                11.6429                43.2696
  Atom  AN      X      Y      Z        X      Y      Z        X      Y      Z
     1   6    -0.10  -0.03   0.04     0.01   0.01   0.14    -0.02   0.19   0.10
     2   6    -0.11   0.12   0.12    -0.01  -0.12  -0.18    -0.01  -0.14  -0.10
     3   8     0.23  -0.06  -0.02     0.11   0.08   0.01    -0.03   0.02   0.06
     4   6    -0.12  -0.15  -0.06     0.08   0.06  -0.04    -0.05  -0.17  -0.06
     5   6     0.00   0.01   0.01    -0.00  -0.01  -0.00     0.00   0.00   0.00
     6   1    -0.14  -0.09   0.01     0.04   0.02  -0.00    -0.11  -0.08   0.00
     7   1     0.01   0.08   0.12    -0.02  -0.07  -0.02    -0.00   0.02   0.09
     8   1     0.02   0.07   0.07     0.03  -0.02  -0.02     0.05   0.06   0.06
     9   7     0.08  -0.01  -0.09    -0.03   0.02   0.01     0.05   0.00  -0.08
    10   1     0.23  -0.05  -0.10     0.12  -0.07  -0.04     0.25  -0.05  -0.09
    11   1     0.00  -0.02   0.12    -0.09  -0.02   0.15    -0.05  -0.03   0.17
    12  17     0.03   0.04   0.00    -0.01  -0.02   0.01     0.01   0.03  -0.00
    13   6    -0.04  -0.02   0.04    -0.02   0.09  -0.12    -0.00  -0.09   0.11
    14   1    -0.04  -0.04   0.28    -0.10   0.15  -0.19     0.05  -0.16   0.38
    15   1     0.03   0.17  -0.05    -0.11   0.10  -0.17     0.01   0.14  -0.03
    16   1    -0.02   0.05   0.03    -0.06  -0.00   0.02     0.03   0.04   0.16
    17   6    -0.01  -0.06   0.07     0.01  -0.14   0.20    -0.01   0.10  -0.08
    18   1     0.03  -0.13   0.15     0.00  -0.16   0.14     0.00   0.03  -0.15
    19   1     0.04  -0.02   0.05     0.01  -0.13   0.11    -0.00   0.15  -0.27
    20   1     0.02  -0.04   0.05     0.00  -0.23   0.24    -0.01  -0.08   0.00
    21   6    -0.10   0.10  -0.10    -0.10   0.03  -0.08     0.02  -0.04  -0.01
    22   1    -0.28   0.10  -0.41    -0.09   0.21   0.13    -0.04   0.19   0.12
    23   1     0.31  -0.01  -0.09    -0.47   0.25  -0.10    -0.24   0.18  -0.03
    24   1    -0.21   0.12  -0.27     0.21   0.03   0.15     0.40  -0.04   0.21
                     22                     23                     24
                      A                      A                      A
 Frequencies --    717.4181               776.2301               939.0034
 Red. masses --      2.1353                 1.8453                 1.8284
 Frc consts  --      0.6475                 0.6551                 0.9499
 IR Inten    --     28.7788               109.3534                48.9229
  Atom  AN      X      Y      Z        X      Y      Z        X      Y      Z
     1   6     0.02   0.04   0.03     0.04  -0.05  -0.03     0.13   0.00  -0.00
     2   6    -0.05  -0.06   0.05     0.01  -0.01   0.03     0.07  -0.04   0.04
     3   8     0.03  -0.07   0.08     0.00  -0.04   0.04    -0.02  -0.05   0.05
     4   6     0.15   0.00  -0.02     0.13   0.08   0.04    -0.08  -0.04   0.03
     5   6    -0.00  -0.01  -0.00    -0.01  -0.02  -0.01     0.00   0.02  -0.00
     6   1     0.03   0.09  -0.04     0.06  -0.09   0.04    -0.01  -0.05   0.02
     7   1     0.05   0.14  -0.05    -0.08  -0.24   0.01    -0.02  -0.06   0.02
     8   1    -0.14  -0.10  -0.08     0.19   0.09   0.07     0.06   0.06   0.04
     9   7     0.05  -0.05   0.07    -0.07   0.07  -0.08    -0.02  -0.00  -0.00
    10   1    -0.44   0.08   0.11     0.49  -0.11  -0.15     0.02   0.09   0.09
    11   1     0.27   0.03  -0.48    -0.30  -0.14   0.43    -0.04  -0.04   0.04
    12  17    -0.01  -0.01   0.00    -0.01  -0.01  -0.00     0.00   0.00  -0.00
    13   6     0.02   0.00  -0.00     0.03  -0.04   0.08    -0.08   0.03  -0.06
    14   1    -0.08   0.08  -0.13    -0.10   0.07  -0.09     0.13  -0.13   0.13
    15   1    -0.09   0.00  -0.05    -0.09  -0.08   0.06     0.15   0.05   0.02
    16   1    -0.04  -0.13   0.14    -0.04  -0.19   0.27     0.03   0.26  -0.35
    17   6     0.00   0.07  -0.08     0.01   0.04  -0.06     0.10   0.02  -0.01
    18   1    -0.00   0.08  -0.13    -0.02   0.10  -0.09    -0.11   0.35  -0.40
    19   1     0.00   0.09  -0.15    -0.02   0.00   0.02    -0.19  -0.25   0.24
    20   1     0.01   0.04  -0.07    -0.01   0.09  -0.07    -0.19  -0.12   0.18
    21   6    -0.14   0.05  -0.06    -0.08   0.04  -0.03    -0.06   0.05  -0.06
    22   1    -0.29   0.18  -0.19    -0.11   0.04  -0.09     0.01  -0.01   0.02
    23   1    -0.05   0.09  -0.07    -0.03   0.01  -0.03    -0.22   0.04  -0.06
    24   1    -0.01   0.06  -0.07    -0.12   0.05  -0.08    -0.20   0.04  -0.04
                     25                     26                     27
                      A                      A                      A
 Frequencies --    974.1880              1005.0371              1018.8025
 Red. masses --      1.4958                 1.0988                 1.5839
 Frc consts  --      0.8364                 0.6539                 0.9687
 IR Inten    --     74.1401                21.9352                 2.0796
  Atom  AN      X      Y      Z        X      Y      Z        X      Y      Z
     1   6     0.04  -0.01   0.00     0.01  -0.00  -0.00     0.00   0.02   0.01
     2   6    -0.09   0.03  -0.03    -0.00   0.01   0.01     0.00   0.12   0.11
     3   8     0.00   0.04  -0.05    -0.00  -0.00  -0.00     0.00  -0.02  -0.02
     4   6     0.01  -0.02   0.01    -0.01   0.02  -0.00     0.01  -0.02  -0.01
     5   6    -0.00   0.01  -0.00     0.03  -0.06   0.00    -0.01  -0.00  -0.02
     6   1     0.04  -0.02   0.03    -0.21   0.04  -0.12    -0.02  -0.09   0.02
     7   1    -0.03  -0.08  -0.00     0.15   0.38   0.02    -0.03  -0.06   0.03
     8   1     0.07   0.05   0.03    -0.34  -0.19  -0.09     0.07   0.07   0.05
     9   7    -0.01   0.00   0.00    -0.01   0.01  -0.02     0.02   0.00  -0.00
    10   1     0.03   0.05   0.06    -0.12  -0.17  -0.18     0.04   0.11   0.09
    11   1    -0.03  -0.10  -0.02    -0.00   0.56   0.36     0.01  -0.08  -0.04
    12  17    -0.00  -0.00   0.00    -0.00  -0.00   0.00    -0.00  -0.00   0.00
    13   6     0.01   0.01  -0.02     0.02  -0.00   0.01    -0.01   0.04   0.02
    14   1    -0.03   0.05  -0.05    -0.03   0.03  -0.03     0.03   0.03  -0.16
    15   1    -0.04   0.04  -0.06    -0.02  -0.02   0.01     0.02  -0.16   0.16
    16   1    -0.01  -0.02   0.04    -0.01  -0.05   0.08    -0.01  -0.04  -0.11
    17   6     0.06  -0.00   0.00     0.03  -0.01  -0.01    -0.01  -0.05  -0.05
    18   1    -0.09   0.24  -0.27    -0.04   0.12  -0.10    -0.01   0.06   0.17
    19   1    -0.13  -0.17   0.14    -0.05  -0.10   0.12     0.07  -0.07   0.27
    20   1    -0.13  -0.06   0.11    -0.07   0.03   0.01    -0.02   0.29  -0.21
    21   6    -0.02  -0.10   0.10    -0.00  -0.02  -0.01    -0.00  -0.09  -0.09
    22   1    -0.40   0.22  -0.26    -0.03   0.04   0.01    -0.03   0.20   0.18
    23   1     0.45   0.01   0.08    -0.03   0.04  -0.01    -0.38   0.28  -0.13
    24   1     0.43  -0.05   0.00     0.07  -0.01   0.03     0.39  -0.11   0.28
                     28                     29                     30
                      A                      A                      A
 Frequencies --   1040.8328              1049.0454              1057.1633
 Red. masses --      1.4679                 1.5631                 1.5099
 Frc consts  --      0.9369                 1.0135                 0.9942
 IR Inten    --     37.9121                37.6207                 1.2677
  Atom  AN      X      Y      Z        X      Y      Z        X      Y      Z
     1   6    -0.04  -0.03   0.04     0.03   0.04  -0.00     0.01   0.09   0.07
     2   6    -0.03  -0.01  -0.02     0.02  -0.05  -0.04     0.01  -0.07  -0.06
     3   8     0.01  -0.00   0.01    -0.01   0.01   0.00    -0.00   0.01   0.01
     4   6    -0.05  -0.08   0.06     0.04  -0.03  -0.09    -0.00   0.00   0.02
     5   6     0.00  -0.01  -0.05    -0.02  -0.06  -0.04     0.00   0.00   0.00
     6   1    -0.21  -0.31   0.00    -0.15  -0.20  -0.02    -0.01  -0.01   0.00
     7   1    -0.00   0.01   0.14    -0.01   0.03   0.08     0.00  -0.01   0.00
     8   1     0.06   0.20   0.15    -0.02   0.06   0.07     0.01   0.01   0.00
     9   7     0.01  -0.02   0.00     0.03   0.03  -0.00     0.00  -0.01   0.00
    10   1    -0.03   0.36   0.32     0.03   0.17   0.11    -0.01   0.02   0.02
    11   1    -0.02   0.08   0.14     0.03   0.12   0.09     0.00  -0.01   0.00
    12  17     0.00   0.00   0.00    -0.00  -0.00   0.00    -0.00   0.00  -0.00
    13   6     0.09   0.07  -0.04    -0.06   0.08   0.09     0.00  -0.02  -0.03
    14   1    -0.17   0.28  -0.36     0.17  -0.05  -0.26    -0.02  -0.01   0.08
    15   1    -0.21  -0.03  -0.11     0.13  -0.43   0.50    -0.00   0.10  -0.11
    16   1    -0.03  -0.21   0.18    -0.01  -0.06  -0.36     0.01   0.04   0.04
    17   6     0.02   0.04  -0.03    -0.02  -0.02   0.03    -0.01  -0.10  -0.09
    18   1    -0.02   0.09  -0.12     0.02  -0.07   0.07    -0.03   0.14   0.27
    19   1    -0.04   0.00  -0.04     0.04   0.03  -0.03     0.11  -0.14   0.52
    20   1    -0.04  -0.02   0.02     0.03  -0.02   0.01    -0.07   0.52  -0.37
    21   6     0.04   0.03  -0.01    -0.03   0.02   0.05    -0.00   0.05   0.04
    22   1     0.17  -0.11   0.09    -0.12  -0.01  -0.14    -0.00  -0.08  -0.09
    23   1    -0.04  -0.06   0.01     0.19  -0.08   0.05     0.18  -0.12   0.06
    24   1    -0.12   0.01  -0.00    -0.08   0.04  -0.12    -0.17   0.06  -0.14
                     31                     32                     33
                      A                      A                      A
 Frequencies --   1081.6068              1103.6201              1146.6404
 Red. masses --      1.6010                 2.9913                 2.5705
 Frc consts  --      1.1035                 2.1466                 1.9912
 IR Inten    --     49.9026                56.2016                36.3779
  Atom  AN      X      Y      Z        X      Y      Z        X      Y      Z
     1   6    -0.04   0.01   0.03    -0.09  -0.01   0.02     0.11  -0.04   0.04
     2   6    -0.05  -0.01  -0.02    -0.09   0.00  -0.02     0.13  -0.01   0.01
     3   8     0.01  -0.00   0.01     0.02  -0.01   0.01    -0.02   0.02  -0.02
     4   6    -0.04  -0.06  -0.05    -0.02   0.03  -0.02    -0.08  -0.16   0.17
     5   6     0.04   0.10   0.08    -0.17  -0.17  -0.02    -0.06  -0.04   0.06
     6   1     0.25   0.36   0.04     0.11   0.05  -0.01     0.15   0.25   0.01
     7   1     0.04   0.03  -0.12    -0.19  -0.32  -0.19    -0.06  -0.10  -0.20
     8   1     0.04  -0.09  -0.11    -0.08  -0.31  -0.16    -0.08  -0.28  -0.18
     9   7    -0.04  -0.06  -0.04     0.17   0.21   0.06     0.05   0.08  -0.03
    10   1     0.00  -0.35  -0.28     0.23  -0.05  -0.16     0.14  -0.17  -0.22
    11   1    -0.04  -0.18  -0.14     0.24  -0.05  -0.27     0.02   0.07   0.04
    12  17     0.00   0.00   0.00     0.00  -0.01  -0.00    -0.00  -0.00  -0.00
    13   6     0.03   0.07   0.06     0.01  -0.01   0.02     0.03   0.09  -0.07
    14   1    -0.02   0.15  -0.34    -0.02   0.01   0.01    -0.08   0.19  -0.31
    15   1    -0.09  -0.28   0.23    -0.02  -0.01   0.01    -0.11   0.01  -0.08
    16   1    -0.03  -0.22  -0.02    -0.00  -0.04   0.05     0.01   0.03  -0.14
    17   6     0.05   0.00  -0.02     0.08   0.00  -0.01    -0.09   0.04  -0.04
    18   1    -0.04   0.15  -0.13    -0.06   0.23  -0.23     0.06  -0.21   0.20
    19   1    -0.07  -0.12   0.12    -0.11  -0.17   0.14     0.10   0.20  -0.17
    20   1    -0.10   0.01   0.04    -0.15  -0.01   0.08     0.14   0.03  -0.12
    21   6     0.04   0.02  -0.01     0.06   0.02  -0.02    -0.07  -0.02   0.02
    22   1     0.15  -0.09   0.07     0.23  -0.13   0.14    -0.25   0.13  -0.16
    23   1    -0.02  -0.06   0.01    -0.05  -0.06   0.00     0.06   0.07   0.00
    24   1    -0.09   0.01   0.01    -0.07  -0.00   0.05     0.04   0.01  -0.09
                     34                     35                     36
                      A                      A                      A
 Frequencies --   1167.7942              1237.2921              1319.2316
 Red. masses --      3.0312                 1.3825                 1.3392
 Frc consts  --      2.4356                 1.2470                 1.3732
 IR Inten    --      2.3851                50.1981                 4.2539
  Atom  AN      X      Y      Z        X      Y      Z        X      Y      Z
     1   6     0.00  -0.18   0.20     0.00  -0.00  -0.00     0.00   0.03  -0.03
     2   6    -0.18   0.02  -0.03    -0.02   0.00   0.00    -0.02   0.00  -0.00
     3   8     0.05   0.03  -0.03     0.00  -0.00  -0.00    -0.00  -0.01   0.01
     4   6     0.16  -0.04   0.09     0.02   0.02  -0.02     0.01  -0.00   0.00
     5   6     0.03  -0.01   0.01    -0.09   0.04   0.06     0.06  -0.07   0.10
     6   1    -0.02   0.02  -0.02     0.35   0.23   0.13    -0.14   0.30  -0.12
     7   1     0.06   0.12   0.02    -0.16  -0.24  -0.22     0.17   0.23  -0.18
     8   1    -0.04  -0.01   0.00     0.19  -0.14  -0.15    -0.28  -0.26  -0.05
     9   7    -0.03  -0.00  -0.03     0.06  -0.08  -0.08    -0.03   0.04  -0.07
    10   1     0.04  -0.06  -0.06    -0.21   0.37   0.28     0.18   0.49   0.34
    11   1    -0.08   0.02   0.11     0.00   0.39   0.40    -0.15  -0.40  -0.06
    12  17    -0.00   0.00  -0.00    -0.00   0.00   0.00    -0.00   0.00   0.00
    13   6    -0.13   0.04  -0.05    -0.01  -0.01   0.00     0.00  -0.00   0.00
    14   1     0.20  -0.19   0.05     0.03  -0.04   0.05    -0.02   0.01   0.01
    15   1     0.26   0.07   0.09     0.05  -0.00   0.02    -0.01   0.00  -0.01
    16   1     0.02   0.32  -0.42    -0.01  -0.01   0.05     0.01   0.02  -0.01
    17   6    -0.03   0.08  -0.09    -0.00  -0.00   0.00    -0.00  -0.01   0.02
    18   1    -0.03   0.09  -0.13    -0.01   0.02  -0.01    -0.01   0.01   0.01
    19   1     0.05   0.18  -0.24     0.02   0.01  -0.02     0.02   0.01  -0.00
    20   1     0.07   0.20  -0.20     0.01   0.01  -0.01     0.00  -0.01   0.01
    21   6     0.05   0.01  -0.01     0.00   0.00  -0.00     0.00   0.00  -0.01
    22   1     0.24  -0.14   0.16     0.02  -0.01   0.02     0.03  -0.02   0.02
    23   1     0.04  -0.10   0.02     0.00  -0.01  -0.00     0.02  -0.02  -0.00
    24   1     0.04  -0.02   0.11     0.00  -0.00   0.01     0.02  -0.00   0.03
                     37                     38                     39
                      A                      A                      A
 Frequencies --   1346.5544              1378.8781              1400.6960
 Red. masses --      1.5909                 1.9337                 1.4630
 Frc consts  --      1.6996                 2.1662                 1.6912
 IR Inten    --     33.1789                14.1809               164.3080
  Atom  AN      X      Y      Z        X      Y      Z        X      Y      Z
     1   6     0.10   0.07  -0.09    -0.01  -0.11   0.12    -0.10  -0.01   0.02
     2   6    -0.08   0.01  -0.01     0.12  -0.03   0.04     0.11   0.00  -0.00
     3   8     0.00  -0.03   0.03    -0.00   0.04  -0.04    -0.01   0.01  -0.01
     4   6     0.00  -0.03   0.03    -0.09   0.06  -0.08     0.01   0.01  -0.01
     5   6    -0.01   0.01  -0.01     0.02   0.00   0.01    -0.01  -0.00  -0.00
     6   1     0.02  -0.04   0.02    -0.10   0.02  -0.04     0.02   0.01   0.00
     7   1    -0.02  -0.03   0.02    -0.01  -0.09  -0.04     0.01   0.05  -0.00
     8   1     0.02   0.01  -0.01    -0.09  -0.01   0.01     0.06   0.02   0.01
     9   7    -0.00   0.01   0.01     0.00   0.00   0.01     0.01  -0.01  -0.01
    10   1    -0.00  -0.08  -0.07    -0.00   0.06   0.05    -0.01   0.00   0.00
    11   1     0.01   0.07   0.03     0.01  -0.07  -0.07     0.01  -0.01  -0.01
    12  17    -0.00  -0.00  -0.00     0.00  -0.00   0.00     0.00   0.00   0.00
    13   6     0.01   0.00   0.00     0.01   0.04  -0.05     0.01  -0.06   0.06
    14   1    -0.02   0.03  -0.08     0.12  -0.09   0.43    -0.28   0.18  -0.24
    15   1    -0.02   0.05  -0.04    -0.04  -0.31   0.16    -0.06   0.10  -0.07
    16   1     0.02   0.02  -0.05    -0.15  -0.34   0.34     0.17   0.39  -0.24
    17   6    -0.03  -0.02   0.03     0.00   0.02  -0.02     0.03  -0.05   0.07
    18   1     0.00  -0.08   0.06    -0.05   0.10  -0.13    -0.15   0.22  -0.32
    19   1     0.04   0.02   0.04     0.04   0.06  -0.10     0.01   0.05  -0.36
    20   1     0.07  -0.04   0.00     0.04   0.11  -0.08    -0.03   0.38  -0.14
    21   6    -0.09   0.06  -0.06    -0.10   0.03  -0.03    -0.06   0.01  -0.01
    22   1     0.32  -0.30   0.30     0.07  -0.14   0.11     0.03  -0.10   0.05
    23   1     0.43  -0.35   0.00     0.26  -0.15  -0.01     0.13   0.02  -0.01
    24   1     0.42   0.02   0.36     0.27   0.03   0.15     0.16   0.03  -0.03
                     40                     41                     42
                      A                      A                      A
 Frequencies --   1408.1786              1417.9348              1433.1865
 Red. masses --      1.5283                 1.1121                 1.2421
 Frc consts  --      1.7855                 1.3174                 1.5032
 IR Inten    --     96.3772                12.0238                92.7494
  Atom  AN      X      Y      Z        X      Y      Z        X      Y      Z
     1   6    -0.09  -0.05   0.05    -0.02  -0.01   0.01    -0.05   0.02  -0.02
     2   6     0.08   0.00  -0.00     0.03  -0.01   0.02     0.03   0.00  -0.00
     3   8    -0.00   0.02  -0.02    -0.00   0.01  -0.01    -0.00  -0.00   0.00
     4   6     0.03   0.02  -0.02    -0.02   0.02  -0.01     0.02  -0.02   0.05
     5   6    -0.01  -0.01   0.00     0.01   0.02   0.01    -0.06  -0.08  -0.03
     6   1     0.07   0.04   0.00    -0.11  -0.11   0.02     0.46   0.16   0.05
     7   1     0.02   0.08   0.03    -0.01  -0.09  -0.07     0.12   0.59   0.23
     8   1     0.04   0.02   0.02    -0.05  -0.09  -0.09     0.33   0.13   0.14
     9   7     0.00  -0.01  -0.01    -0.00   0.00   0.00    -0.01  -0.00  -0.01
    10   1    -0.00   0.06   0.05     0.00   0.02   0.02     0.06   0.01   0.00
    11   1    -0.00  -0.01   0.00    -0.00  -0.01  -0.00    -0.01  -0.02  -0.03
    12  17     0.00  -0.00   0.00     0.00  -0.00   0.00     0.00   0.00  -0.00
    13   6    -0.01  -0.04   0.04    -0.02  -0.00   0.07    -0.01   0.04  -0.03
    14   1    -0.16   0.09  -0.15     0.42  -0.26  -0.39     0.21  -0.13   0.08
    15   1     0.02   0.07  -0.02     0.06   0.51  -0.25     0.02   0.04  -0.02
    16   1     0.10   0.27  -0.12    -0.08  -0.42  -0.14    -0.09  -0.24   0.04
    17   6     0.02   0.08  -0.11     0.01   0.00  -0.00     0.02  -0.01   0.01
    18   1     0.21  -0.15   0.41    -0.00   0.02  -0.01     0.00   0.02   0.01
    19   1    -0.15  -0.16   0.36    -0.01  -0.01  -0.03    -0.05  -0.04  -0.09
    20   1    -0.23  -0.40   0.26    -0.03   0.03   0.00    -0.10   0.07   0.01
    21   6    -0.05   0.01  -0.01    -0.01   0.00  -0.01    -0.01   0.00   0.00
    22   1     0.02  -0.07   0.02    -0.00  -0.01   0.00     0.01  -0.05  -0.02
    23   1     0.14  -0.11   0.00     0.02  -0.03  -0.00     0.01  -0.00  -0.00
    24   1     0.17   0.01   0.10     0.03   0.00   0.03     0.07   0.01  -0.02
                     43                     44                     45
                      A                      A                      A
 Frequencies --   1438.1046              1449.3251              1457.8926
 Red. masses --      1.0572                 1.3648                 1.0759
 Frc consts  --      1.2882                 1.6891                 1.3474
 IR Inten    --     27.6298               116.5391                38.3617
  Atom  AN      X      Y      Z        X      Y      Z        X      Y      Z
     1   6     0.00   0.00   0.00     0.07  -0.04   0.05    -0.04   0.01  -0.00
     2   6     0.01  -0.01   0.01    -0.02  -0.02   0.01     0.02  -0.01  -0.01
     3   8    -0.00   0.02  -0.02     0.01   0.01  -0.01    -0.00   0.00   0.00
     4   6    -0.00   0.00  -0.00    -0.06   0.05  -0.07     0.00  -0.02   0.01
     5   6    -0.00  -0.00  -0.00    -0.02  -0.03  -0.01    -0.00   0.00   0.00
     6   1     0.01   0.00   0.00     0.17   0.10   0.00    -0.02  -0.05   0.02
     7   1     0.01   0.03  -0.01     0.04   0.20   0.09     0.02   0.05  -0.04
     8   1     0.03   0.01   0.01     0.10   0.07   0.08     0.06  -0.03  -0.04
     9   7    -0.00   0.00   0.00    -0.01  -0.00   0.00    -0.00   0.00  -0.00
    10   1     0.00   0.00   0.00     0.04   0.04   0.05    -0.00  -0.00  -0.00
    11   1    -0.00  -0.00  -0.00     0.01   0.01  -0.04    -0.00  -0.02  -0.01
    12  17    -0.00  -0.00   0.00    -0.00  -0.00   0.00     0.00   0.00  -0.00
    13   6     0.00  -0.01   0.00     0.03  -0.03   0.07    -0.02  -0.00  -0.03
    14   1    -0.04   0.02  -0.02    -0.10   0.06   0.04     0.04  -0.02  -0.20
    15   1     0.00  -0.00   0.00    -0.37   0.06  -0.17     0.39   0.04   0.13
    16   1     0.01   0.04   0.00     0.09  -0.06  -0.36    -0.05   0.13   0.35
    17   6     0.01  -0.00   0.01    -0.04   0.03  -0.01    -0.00   0.01   0.01
    18   1     0.03  -0.07  -0.02    -0.03  -0.11  -0.26     0.03  -0.18  -0.19
    19   1    -0.09  -0.05  -0.10     0.10   0.05   0.29    -0.11  -0.10   0.11
    20   1    -0.05   0.13  -0.03     0.43  -0.12  -0.12     0.16   0.04  -0.07
    21   6     0.04   0.02  -0.03     0.01  -0.02  -0.01    -0.01  -0.03  -0.03
    22   1    -0.23   0.28  -0.23    -0.01   0.20   0.18     0.00   0.33   0.38
    23   1    -0.14  -0.58   0.08     0.14   0.07  -0.02     0.36   0.15  -0.06
    24   1    -0.21  -0.09   0.59    -0.20  -0.04   0.05    -0.28  -0.05   0.07
                     46                     47                     48
                      A                      A                      A
 Frequencies --   1464.4029              1479.4677              1480.3030
 Red. masses --      1.1625                 1.1113                 1.0486
 Frc consts  --      1.4688                 1.4332                 1.3539
 IR Inten    --     41.9684                43.2014                30.0715
  Atom  AN      X      Y      Z        X      Y      Z        X      Y      Z
     1   6     0.05  -0.02   0.02     0.06  -0.02   0.01     0.01  -0.01   0.00
     2   6    -0.02  -0.01   0.02    -0.02  -0.01   0.00    -0.00  -0.01   0.00
     3   8     0.00   0.01  -0.01     0.00   0.00  -0.00     0.00   0.00  -0.00
     4   6    -0.06   0.02  -0.05    -0.03   0.02  -0.03    -0.02   0.00  -0.01
     5   6    -0.02  -0.01   0.00    -0.02   0.00   0.02     0.01  -0.01  -0.03
     6   1     0.05  -0.07   0.05    -0.12  -0.21   0.07     0.28   0.22  -0.03
     7   1     0.05   0.20  -0.03     0.08   0.24  -0.26    -0.08  -0.18   0.46
     8   1     0.17  -0.04  -0.04     0.36  -0.11  -0.14    -0.42   0.11   0.14
     9   7    -0.01   0.01   0.01    -0.01   0.01   0.01     0.01  -0.00  -0.01
    10   1     0.01   0.01   0.01    -0.00  -0.03  -0.01    -0.01   0.03   0.01
    11   1    -0.00  -0.04  -0.05    -0.01  -0.03  -0.02    -0.01  -0.02   0.01
    12  17    -0.00  -0.00   0.00    -0.00  -0.00   0.00     0.00  -0.00   0.00
    13   6    -0.01  -0.03   0.01     0.01  -0.01   0.01    -0.01  -0.01   0.01
    14   1    -0.05   0.04  -0.32    -0.06   0.04   0.00     0.01  -0.00  -0.14
    15   1     0.37   0.10   0.09    -0.03  -0.01  -0.00     0.13   0.07   0.01
    16   1    -0.01   0.20   0.35     0.02   0.03   0.01    -0.01   0.04   0.10
    17   6    -0.03   0.00  -0.01     0.00  -0.03  -0.02    -0.01  -0.03  -0.01
    18   1    -0.07   0.07  -0.13    -0.07   0.36   0.33    -0.11   0.34   0.15
    19   1     0.19   0.12   0.16     0.23   0.20  -0.21     0.28   0.20  -0.07
    20   1     0.26  -0.13  -0.05    -0.30  -0.08   0.14    -0.09  -0.12   0.09
    21   6     0.01   0.02   0.02     0.00  -0.01  -0.01     0.00  -0.01  -0.01
    22   1    -0.00  -0.25  -0.29    -0.00   0.18   0.18    -0.02   0.12   0.09
    23   1    -0.28  -0.12   0.04     0.14   0.07  -0.02     0.08  -0.00  -0.01
    24   1     0.20   0.04  -0.05    -0.18  -0.03   0.04    -0.11  -0.03   0.07
                     49                     50                     51
                      A                      A                      A
 Frequencies --   1487.0466              1495.1407              1614.4370
 Red. masses --      1.0684                 1.4307                 1.0945
 Frc consts  --      1.3920                 1.8844                 1.6807
 IR Inten    --     39.5163               331.7630                48.4140
  Atom  AN      X      Y      Z        X      Y      Z        X      Y      Z
     1   6     0.03  -0.01   0.01     0.13  -0.03   0.04    -0.00  -0.00  -0.00
     2   6    -0.02  -0.00   0.00    -0.06  -0.02   0.02     0.00   0.00  -0.00
     3   8     0.00   0.00  -0.00     0.01   0.01  -0.01     0.00  -0.00   0.00
     4   6    -0.02   0.01  -0.01    -0.07   0.04  -0.07     0.00  -0.00   0.00
     5   6    -0.01  -0.05   0.00    -0.00  -0.01  -0.01    -0.00   0.01   0.01
     6   1    -0.26   0.48  -0.30     0.19  -0.02   0.06     0.01   0.00   0.03
     7   1    -0.00  -0.09  -0.36    -0.01   0.04   0.23    -0.02  -0.04  -0.00
     8   1     0.14   0.43   0.45    -0.12  -0.06  -0.04    -0.03  -0.04  -0.03
     9   7     0.01  -0.01   0.02    -0.01   0.01   0.00    -0.06  -0.05   0.00
    10   1    -0.01  -0.07  -0.03     0.01   0.06   0.05     0.68   0.05   0.17
    11   1     0.05   0.10   0.01    -0.02  -0.04  -0.02     0.24   0.51  -0.41
    12  17    -0.00  -0.00   0.00    -0.00  -0.00   0.00    -0.00   0.00   0.00
    13   6    -0.00  -0.01   0.01     0.01  -0.03   0.03    -0.00  -0.00  -0.00
    14   1     0.03  -0.02  -0.11    -0.08   0.05  -0.14    -0.00   0.00  -0.00
    15   1     0.08   0.07  -0.01     0.05   0.05  -0.00     0.02  -0.00   0.01
    16   1    -0.01   0.01   0.06     0.03   0.07   0.09    -0.00   0.02   0.02
    17   6     0.00   0.00  -0.00     0.02   0.02   0.00     0.00  -0.00  -0.00
    18   1     0.02  -0.01   0.06     0.19  -0.35   0.17    -0.01   0.02   0.01
    19   1    -0.04  -0.01  -0.07    -0.42  -0.22  -0.33     0.01   0.01  -0.01
    20   1    -0.08   0.04   0.01    -0.32   0.35  -0.04    -0.02   0.01   0.01
    21   6     0.00  -0.00   0.00     0.00  -0.00   0.01     0.00  -0.00   0.00
    22   1     0.01   0.00   0.02     0.06  -0.06   0.04    -0.00   0.00  -0.00
    23   1     0.00   0.03  -0.00    -0.02   0.13  -0.02     0.00  -0.00   0.00
    24   1    -0.01   0.00  -0.02    -0.00   0.02  -0.14    -0.00  -0.00   0.00
[...]
 0023645,0.00002502,-0.00002060,-0.00000959,0.00005729,-0.00002918,0.00
 014729,-0.00019259,0.00001030,-0.00012025,0.00117290,-0.00088778,0.000
 62056,0.00021098,0.00000944,0.00025613,0.00055455,0.00021624,-0.000664
 06,0.00195267,-0.00088711,0.00104745,-0.30048068,0.06540403,-0.0444014
 5,-0.01031129,0.00706692,-0.00159082,-0.00764645,0.00058437,-0.0033286
 6,0.31989264,-0.00009511,-0.00092245,0.00331081,-0.00153702,-0.0021385
 7,0.00127021,-0.00217833,0.00241710,-0.00098333,0.01806656,-0.00673273
 ,0.00190045,0.00008145,0.00016055,-0.00005121,-0.00001841,-0.00008020,
 -0.00000942,-0.00000263,-0.00005045,0.00003206,-0.00001020,-0.00004975
 ,0.00007914,-0.00010995,-0.00031365,-0.00138674,0.00002421,-0.00006300
 ,-0.00007420,0.00008551,0.00026721,-0.00003790,0.00062379,-0.00010263,
 0.00000237,0.06076509,-0.06417516,0.00990960,-0.02101072,0.01066028,-0
 .00399592,0.01388469,-0.00371070,0.00446112,-0.06949408,0.06449665,0.0
 0215820,0.00304683,-0.00303176,0.00081402,0.00053509,-0.00075231,0.000
 41015,-0.00008452,0.00157457,-0.02808178,0.00716607,-0.00698249,-0.000
 04037,-0.00020868,-0.00012734,0.00003267,0.00000920,0.00002632,0.00005
 470,0.00012150,0.00012676,0.00000564,-0.00000010,0.00001535,-0.0007804
 5,0.00001038,0.00078414,-0.00006079,0.00018497,0.00028999,0.00068860,-
 0.00045823,-0.00132890,-0.00053069,-0.00120729,0.00046098,-0.04017910,
 0.00939853,-0.05445547,-0.00169978,0.00081434,-0.00194321,0.02297730,-
 0.00438869,0.00632513,0.04552425,-0.01514979,0.05947093,-0.08592344,0.
 00262600,-0.00288254,0.00538212,-0.01937117,0.02251966,-0.00577526,-0.
 00150241,0.00118133,0.00084104,0.01929962,-0.02319108,0.00023785,-0.00
 023226,0.00003031,-0.00000786,-0.00005168,0.00002249,-0.00005861,0.000
 07003,-0.00001347,-0.00002633,-0.00008193,-0.00003902,0.00040102,-0.00
 076542,0.00038310,-0.00049379,0.00132568,0.00030138,0.00032306,-0.0003
 2006,-0.00026615,-0.00157093,0.00071000,-0.00252914,-0.00424443,0.0001
 3941,-0.00003889,-0.00022089,0.00008330,0.00015958,-0.00001193,-0.0000
 7893,-0.00006685,-0.00014145,0.00078018,-0.00114280,0.58944340,0.00197
 140,-0.12363077,0.07676831,-0.00476983,-0.00982492,0.01011624,-0.00055
 726,0.00385156,0.00161313,0.00766064,-0.01542083,0.00512911,-0.0010657
 6,-0.00020293,0.00006188,0.00023517,0.00018722,0.00003762,0.00034354,-
 0.00095626,0.00007974,-0.00023730,0.00008273,-0.00004518,-0.00387393,0
 .00354994,0.00354867,-0.00024261,0.00128744,-0.00032758,-0.00036958,0.
 00063337,0.00078028,0.00245133,0.00211851,0.00009812,-0.00035010,0.003
 25878,0.00125483,-0.00011910,0.00018764,-0.00031403,0.00015543,-0.0002
 0654,0.00052057,-0.00030474,0.00058872,0.00022467,0.00366448,0.5238120
 4,-0.00451566,0.07461789,-0.15327958,0.00602337,0.00746604,-0.01192616
 ,-0.00031705,0.00189616,0.00392894,-0.00985979,0.00347441,-0.01406117,
 0.00039258,-0.00039747,-0.00009906,0.00015427,-0.00004470,0.00006045,0
 .00010892,0.00033169,0.00018018,0.00005174,-0.00002659,-0.00001665,-0.
 00044343,0.00065573,0.00183741,-0.00009336,0.00018250,0.00041526,0.000
 19735,-0.00025165,-0.00005235,0.00332245,0.00457009,-0.00307613,-0.000
 98854,0.00203948,0.00245124,-0.00010201,0.00022955,-0.00031088,0.00016
 351,-0.00029258,0.00037173,0.00026745,0.00061041,-0.00002323,-0.000845
 00,0.02282000,0.50263013,0.00263158,0.00068715,0.00008239,0.00053586,0
 .00022247,-0.00127347,0.00007737,-0.00022256,0.00042438,-0.00141343,0.
 00114155,0.00029897,0.00004890,0.00001727,-0.00005812,-0.00001033,-0.0
 0004204,-0.00000747,-0.00003928,0.00005771,0.00005275,0.00001287,0.000
 02205,0.00000410,0.00024688,-0.00017246,-0.00066170,0.00054847,-0.0004
 2299,0.00026836,0.00000770,0.00001444,-0.00012206,-0.00253766,0.001458
 76,-0.00367715,0.00005115,-0.00017574,-0.00008857,-0.00003130,-0.00001
 828,0.00004120,-0.00000330,-0.00001801,-0.00002705,0.00014755,-0.00000
 534,0.00001740,-0.27871250,-0.08940980,0.04857164,0.30029662,-0.016570
 84,-0.00735799,0.00301620,0.00201753,-0.00256451,0.00235104,-0.0013054
 0,-0.00025373,0.00076195,-0.00405109,0.00065196,0.00102879,-0.00009386
 ,-0.00006322,-0.00013827,0.00000961,-0.00001975,0.00002098,-0.00005577
 ,0.00006711,0.00008041,0.00004082,0.00006458,0.00001678,0.00087399,-0.
 00076234,-0.00057083,0.00075015,-0.00151869,-0.00002316,0.00012236,0.0
 0004322,-0.00019204,0.00057344,0.00111426,-0.00112840,-0.00022692,0.00
 004607,-0.00021765,-0.00004793,0.00001125,0.00000727,-0.00001247,-0.00
 000031,-0.00002202,0.00006227,0.00001573,-0.00005398,-0.08969214,-0.08
 038195,0.01848093,0.09618739,0.08545817,0.02158983,0.00594509,-0.00430
 811,-0.00234835,0.00304840,-0.00356961,0.00165156,0.00075444,-0.000619
 33,0.00438629,0.00134298,0.00052633,-0.00000263,-0.00012015,-0.0000590
 1,-0.00001325,-0.00004064,0.00000242,-0.00000085,-0.00003737,-0.000059
 16,0.00000293,-0.00001133,-0.00000768,-0.00103505,0.00015332,0.0004940
 0,0.00000413,0.00026711,0.00029778,-0.00004070,0.00014537,0.00016507,-
 0.00228850,-0.00095632,-0.00039693,0.00004952,-0.00045289,-0.00009143,
 0.00007321,-0.00009277,0.00013100,0.00000562,0.00004359,-0.00002843,-0
 .00003411,0.00004138,0.00002458,0.04530860,0.01754927,-0.05416472,-0.0
 4864729,-0.02281239,0.05741016,0.00145694,-0.00071874,-0.00269200,-0.0
 0137116,-0.00087241,-0.00002755,0.00037791,0.00037507,-0.00011193,0.00
 023720,0.00043880,0.00009373,-0.00020594,-0.00010346,-0.00006502,0.000
 01804,0.00002657,0.00002833,0.00002782,-0.00005029,-0.00003315,0.00002
 139,0.00004551,0.00001371,-0.00018299,0.00010463,0.00019264,0.00030990
 ,-0.00045574,-0.00013163,0.00010434,0.00000320,-0.00000353,0.00002827,
 0.00024986,-0.00059239,-0.00018123,0.00001160,-0.00005204,0.00003615,-
 0.00003255,0.00003337,-0.00000933,0.00005114,-0.00000609,-0.00000090,0
 .00004776,-0.00006327,-0.13633095,0.12426871,0.03196195,-0.01463875,0.
 02340784,0.00605169,0.14562098,0.00973046,-0.01334585,0.00278776,0.003
 79076,0.00125888,-0.00027240,-0.00099193,-0.00058321,0.00093269,-0.004
 56668,-0.00269645,0.00078223,-0.00000911,0.00019570,-0.00004832,0.0000
 0875,-0.00003331,-0.00002501,-0.00001045,0.00005185,0.00011992,-0.0000
 1578,0.00001958,0.00001478,0.00059547,-0.00014368,-0.00063056,0.000099
 27,-0.00032849,0.00002680,-0.00001631,0.00005179,-0.00009899,0.0011529
 0,0.00061070,-0.00038808,0.00041861,0.00038365,0.00017061,-0.00002135,
 -0.00000147,-0.00008240,0.00005662,-0.00006960,0.00011087,0.00005019,-
 0.00003998,0.00018771,0.12440433,-0.21175480,-0.04302665,-0.00754410,0
 .01017644,0.00296267,-0.13491443,0.22709663,-0.01667121,0.02211287,0.0
 0308683,-0.00135546,-0.00062965,0.00144608,0.00018080,0.00012909,-0.00
 110043,0.00342269,0.00390187,-0.00156780,-0.00017596,0.00003456,0.0000
 9616,-0.00003364,0.00005170,-0.00000699,0.00005357,-0.00003565,-0.0001
 4096,0.00002500,-0.00002358,0.00000649,-0.00007102,-0.00004113,-0.0000
 2019,-0.00030795,0.00015766,-0.00012936,-0.00005709,-0.00001723,0.0000
 5606,-0.00113052,-0.00092258,0.00021395,-0.00073442,-0.00046478,-0.000
 39772,0.00002924,-0.00004285,0.00009816,-0.00002868,0.00005946,-0.0001
 2725,-0.00006657,0.00004230,-0.00027206,0.03024931,-0.04145054,-0.0531
 9896,0.00237145,-0.00393899,-0.00194461,-0.03314604,0.04041137,0.06004
 694,0.00027196,0.00137717,0.00016583,-0.00077245,0.00039164,0.00078499
 ,0.00019362,-0.00032747,-0.00010407,0.00008627,-0.00088320,-0.00076454
 ,-0.00019648,0.00005037,0.00014578,-0.00002695,0.00006672,-0.00000355,
 0.00012343,-0.00001660,-0.00009604,0.00003117,-0.00002382,0.00001604,0
 .00025949,0.00014179,-0.00000070,-0.00043400,0.00010082,-0.00027291,-0
 .00002707,-0.00010581,0.00000032,-0.00048220,0.00069259,-0.00076680,-0
 .00025509,0.00029298,0.00010812,-0.00000033,-0.00000036,-0.00004595,0.
 00000704,-0.00006518,0.00006704,0.00001575,0.00005547,-0.00006278,-0.0
 7587134,-0.03945335,-0.07186867,-0.00688167,-0.01240070,-0.02462795,0.
 00646590,0.00872712,0.01591719,0.07719673,0.00884510,0.01002108,0.0210
 0982,0.00088041,0.00147039,-0.00032667,-0.00004906,-0.00120416,0.00008
 567,-0.00277019,0.00109894,0.00321745,0.00000312,0.00050751,-0.0000985
 0,-0.00002524,-0.00005500,-0.00006191,-0.00011138,-0.00026022,0.000287
 48,-0.00013964,0.00002076,-0.00001006,0.00118029,-0.00079415,-0.001503
 19,0.00025550,-0.00028691,-0.00002363,-0.00009907,0.00004244,-0.000123
 15,-0.00065450,-0.00007275,-0.00029031,0.00063675,-0.00063170,-0.00039
 578,0.00000138,-0.00004448,0.00003911,-0.00002799,0.00002906,-0.000097
 99,0.00009134,-0.00025345,0.00010507,-0.03789911,-0.09480662,-0.092925
 27,-0.00153172,-0.00513998,-0.00779565,-0.00979403,-0.01123215,-0.0197
 2028,0.04177544,0.10161079,-0.00775180,-0.00069204,-0.02007300,-0.0045
 6203,-0.00100265,0.00091513,0.00117711,0.00164194,-0.00119818,0.006542
 75,-0.00258184,-0.00431085,-0.00092652,-0.00013029,0.00010302,0.000098
 42,0.00014683,0.00001845,0.00019911,-0.00008007,-0.00027586,0.00004378
 ,0.00000280,0.00000567,-0.00182377,0.00170408,0.00196890,-0.00031398,0
 .00012990,-0.00019163,-0.00004914,0.00013042,0.00021065,0.00013658,-0.
 00005952,0.00033990,-0.00081902,0.00062932,0.00037768,-0.00001237,0.00
 006746,-0.00005166,0.00004119,-0.00001608,0.00008166,-0.00008423,0.000
 32107,-0.00017806,-0.07281515,-0.09829028,-0.22040664,0.00214250,0.003
 52055,0.00597665,-0.00292683,-0.00326413,-0.00587083,0.08088509,0.0982
 7608,0.24184836,-0.02688614,0.00868962,-0.00929744,-0.17331253,0.02228
 348,-0.02626732,0.00833061,0.01216126,-0.01357010,-0.00127910,-0.00213
 520,0.00177594,-0.00009069,-0.00012736,0.00000157,0.00000520,0.0000846
 4,0.00002860,-0.00006605,-0.00005594,-0.00001647,0.00004620,-0.0000015
 8,-0.00000396,-0.00060089,0.00038625,0.00006703,0.00010567,-0.00006293
 ,-0.00015276,-0.00002653,0.00010434,0.00014199,-0.00129806,-0.00031834
 ,-0.00029014,0.00001577,0.00002556,0.00016948,0.00007712,-0.00008478,-
 0.00004351,0.00005861,0.00005608,0.00000747,-0.00013093,-0.00000682,-0
 .00003333,-0.00495935,-0.00061364,-0.00068586,-0.00055940,0.00043732,-
 0.00015439,-0.00080764,0.00010076,0.00065409,0.00057206,-0.00023432,-0
 .00013624,0.51331813,-0.00328728,0.01161487,0.00118642,0.01901683,-0.0
 9112909,0.00359803,0.02653193,-0.01091664,0.03820138,-0.00450009,0.001
 30356,0.00198196,-0.00020553,-0.00005248,0.00005686,0.00004182,0.00001
 991,-0.00000104,0.00005984,0.00003630,-0.00001856,-0.00001686,0.000036
 89,0.00000445,-0.00080261,0.00076317,-0.00003367,0.00004494,-0.0000301
 4,-0.00005641,-0.00004515,0.00016872,0.00020199,0.00165888,0.00058432,
 -0.00048237,0.00006943,0.00063070,0.00032373,-0.00067320,0.00019042,0.
 00010820,0.00004128,-0.00047332,-0.00017287,0.00031934,-0.00000725,-0.
 00024527,-0.00119234,-0.00243166,0.00007449,-0.00006799,-0.00012529,-0
 .00019547,-0.00196554,0.00007739,0.00096501,-0.00019177,0.00004293,-0.
 00071476,0.04848348,0.55692720,0.00220566,0.00065782,0.01140045,-0.022
 16836,0.00387903,-0.09354261,-0.02931673,0.03811932,-0.01654224,0.0042
 2999,0.00050894,0.00062850,-0.00027323,-0.00028351,-0.00009832,0.00008
 867,0.00003306,0.00004614,0.00007073,0.00003326,-0.00004284,0.00003566
 ,-0.00002787,-0.00003415,-0.00220789,0.00145746,0.00093318,0.00001760,
 0.00011760,-0.00006318,-0.00006176,0.00023610,0.00032546,0.00206373,0.
 00070341,0.00040877,-0.00037296,0.00120734,0.00011785,0.00011555,-0.00
 061451,-0.00007577,0.00015405,-0.00010434,-0.00002329,-0.00018723,-0.0
 0028829,-0.00001691,0.00142717,-0.00014033,-0.00171967,0.00021047,-0.0
 0038032,-0.00031960,0.00078868,-0.00083562,0.00013400,0.00092190,0.000
 59478,0.00018300,-0.05048892,-0.01589447,0.55778670,-0.00359053,0.0028
 5877,-0.00306923,-0.02298244,-0.01536690,0.01487801,0.00649933,-0.0001
 4179,0.00062255,0.00013403,-0.00075101,0.00051572,-0.00012109,-0.00006
 574,0.00003189,0.00000806,0.00003670,0.00001095,0.00002225,-0.00007869
 ,-0.00004035,-0.00000814,0.00001566,-0.00000428,-0.00037402,0.00033922
 ,0.00015257,0.00003672,-0.00000755,-0.00006250,0.00000198,0.00003756,0
 .00007862,-0.00060658,-0.00017448,-0.00012153,0.00001566,-0.00005358,0
 .00003830,-0.00005570,0.00007145,0.00001780,-0.00003155,-0.00002557,-0
 .00001141,0.00002915,0.00006607,-0.00004869,0.00017909,0.00057492,-0.0
 0062382,0.00009664,-0.00003536,0.00004564,0.00017319,-0.00003094,-0.00
 011279,0.00007528,0.00007568,0.00004085,-0.21729687,-0.10039356,0.0947
 2678,0.23250500,0.00089296,-0.00046826,0.00143521,0.01183035,0.0041722
 2,-0.00496172,-0.00022211,0.00026124,-0.00143276,0.00064430,0.00013841
 ,0.00006376,-0.00003240,-0.00004423,-0.00001625,0.00001101,0.00000480,
 0.00000648,0.00000712,0.00001085,-0.00000269,0.00000728,0.00000184,0.0
 0000010,-0.00026045,0.00017119,0.00011904,0.00002884,-0.00001921,-0.00
 001163,-0.00000597,0.00002552,0.00003056,0.00023361,0.00008462,0.00002
 211,0.00002352,0.00000282,0.00001353,0.00004035,-0.00001014,-0.0000041
 1,-0.00000468,0.00001630,-0.00000354,-0.00002071,-0.00000148,-0.000002
 30,-0.00024052,-0.00063762,-0.00004476,-0.00015468,0.00030462,0.000088
 72,-0.00006841,0.00051965,-0.00004087,0.00000482,-0.00006524,0.0000760
 2,-0.10367914,-0.10610984,0.05498855,0.10787265,0.10866536,-0.00117613
 ,0.00137796,-0.00069683,-0.01253190,-0.00631193,0.00469311,0.00034915,
 -0.00128602,0.00063549,-0.00056846,0.00014893,0.00039792,-0.00001119,-
 0.00001073,0.00000857,0.00000138,0.00000827,-0.00000323,-0.00000746,0.
 00003951,-0.00000319,0.00001087,0.00000140,0.00000586,-0.00017481,0.00
 008164,-0.00003999,-0.00001630,0.00001576,-0.00001655,-0.00001681,0.00
 003158,0.00004497,0.00010939,-0.00001459,0.00000491,-0.00001348,-0.000
 01920,-0.00000457,-0.00003092,0.00001926,0.00001069,-0.00000911,-0.000
 01472,0.00000605,0.00002027,0.00000834,0.00000026,0.00038613,0.0002092
 0,-0.00048488,0.00010326,0.00000842,0.00024765,0.00010770,-0.00013229,
 -0.00023107,-0.00014953,0.00010750,0.00043047,0.09837635,0.05526121,-0
 .10016759,-0.10195288,-0.06047788,0.10193017,-0.00248061,0.00104104,0.
 00127353,0.00668253,-0.00874425,-0.02547936,-0.00307174,0.00442664,-0.
 00026505,0.00159721,-0.00048133,0.00035278,-0.00023329,-0.00015211,0.0
 0000598,0.00004197,0.00003526,0.00001862,0.00000652,0.00001680,-0.0000
 9369,0.00003998,-0.00000229,-0.00000109,-0.00087071,0.00067060,0.00040
 552,-0.00002397,0.00004549,-0.00005732,-0.00002497,0.00010600,0.000151
 98,0.00023742,0.00007553,0.00010473,-0.00004915,0.00024571,0.00003266,
 0.00001005,-0.00011431,0.00000170,0.00000891,-0.00002993,0.00001350,-0
 .00002768,-0.00003027,-0.00000273,-0.00141742,-0.00113730,-0.00119393,
 0.00007188,0.00009791,0.00009415,-0.00028399,-0.00026261,0.00026027,-0
 .00057411,-0.00012447,0.00092108,-0.04753577,-0.00317045,-0.00669198,0
 .00207495,0.00632233,0.02297698,0.04650893,-0.00050400,0.00004750,-0.0
 0035917,-0.00168514,0.00135429,0.01305397,0.00299753,-0.00307243,0.000
 20057,-0.00020937,-0.00000803,0.00010909,0.00009952,0.00004560,0.00000
 245,-0.00001690,-0.00001252,-0.00000947,0.00001347,0.00001792,0.000041
 54,-0.00002117,0.00000059,0.00000292,0.00012993,-0.00014211,-0.0001168
 8,-0.00001938,0.00003050,0.00000646,-0.00000263,-0.00003153,-0.0000248
 3,-0.00014688,-0.00007523,0.00001666,0.00008344,-0.00015127,-0.0000462
 2,-0.00002206,0.00007965,0.00001035,-0.00002157,0.00002049,0.00000430,
 0.00001971,0.00003202,0.00001906,-0.00012845,0.00038508,-0.00049094,0.
 00024090,-0.00011362,0.00005171,0.00000677,-0.00055909,-0.00045855,-0.
 00033386,0.00021422,0.00024510,-0.00265505,-0.04674246,-0.04187414,0.0
 0227418,0.00274922,0.01416309,0.00108537,0.04955210,-0.00130321,0.0013
 1793,-0.00017424,0.00441780,-0.00163737,-0.00952632,-0.00345225,0.0017
 1780,-0.00006637,0.00111541,-0.00042944,-0.00002295,-0.00022377,-0.000
 06472,0.00003355,0.00001813,0.00002296,0.00001669,-0.00002701,-0.00002
 983,-0.00009706,0.00000885,-0.00000173,-0.00000481,-0.00040132,0.00041
 480,0.00031381,-0.00001306,0.00003093,-0.00003572,0.00000391,0.0000500
 9,0.00005020,-0.00007993,-0.00011031,0.00012242,-0.00005079,0.00012046
 ,0.00004469,0.00004263,-0.00010482,-0.00001142,0.00003532,-0.00000442,
 0.00001877,-0.00005627,-0.00002502,0.,0.00177505,0.00049996,0.00054837
 ,0.00022258,0.00005565,0.00030548,0.00002836,-0.00026849,-0.00028597,-
 0.00007267,-0.00010561,0.00013832,-0.00418981,-0.04586350,-0.31399874,
 -0.00232417,-0.00323618,-0.00906755,0.00457820,0.04648218,0.33490746,-
 0.00237320,-0.00159754,-0.00142060,0.00445584,0.02618037,0.00843912,-0
 .00257672,-0.00031155,-0.00419164,0.00157297,-0.00064440,-0.00004100,-
 0.00000882,-0.00002352,0.00001044,-0.00001149,0.00001054,0.00000491,0.
 00000143,-0.00004616,-0.00004890,0.00000320,-0.00000443,-0.00000187,-0
 .00000178,-0.00002025,0.00000307,-0.00001459,0.00002050,-0.00001506,0.
 00000398,-0.00000608,0.00001083,-0.00077194,-0.00033092,0.00012010,0.0
 0001154,-0.00015288,-0.00007006,0.00013835,-0.00003333,-0.00000948,-0.
 00003960,0.00009239,0.00003596,-0.00005299,0.00001811,0.00004363,-0.00
 104110,0.00117869,0.00032191,0.00005414,-0.00008817,-0.00007011,-0.000
 86517,-0.00075155,0.00072775,0.00022302,-0.00028428,-0.00000737,-0.047
 67943,0.02024460,0.00471243,0.00321558,-0.02323007,-0.00578251,-0.0006
 8693,-0.00118436,-0.00005199,0.04644371,0.00092867,-0.00003949,0.00153
 787,-0.00292036,-0.00859471,-0.00109437,0.00296257,0.00031928,0.001420
 92,-0.00088942,0.00021111,-0.00002191,-0.00001167,0.00004072,-0.000011
 47,0.00000368,-0.00001263,-0.00000905,-0.00001924,0.00001594,0.0000439
 8,-0.00000686,0.00000614,0.00000261,0.00019115,-0.00010647,-0.00015256
 ,0.00002513,-0.00005089,0.00001551,-0.00000602,0.00000875,-0.00003367,
 0.00040321,0.00018363,-0.00004588,0.00002245,0.00005514,0.00001098,-0.
 00011496,0.00005441,-0.00000280,0.00000922,-0.00006538,-0.00002491,0.0
 0006019,0.00000319,-0.00002456,-0.00154660,0.00031188,0.00005122,-0.00
 026398,0.00034797,0.00012095,-0.00006188,0.00034583,-0.00007920,0.0001
 2519,-0.00021130,-0.00005988,0.01716232,-0.31437822,-0.04209327,0.0029
 0229,-0.00977264,-0.00321471,0.00008063,-0.00362087,0.00116869,-0.0190
 3573,0.33494861,0.00020360,-0.00032216,-0.00044036,0.00093597,0.014677
 20,0.00177467,-0.00279092,-0.00037940,-0.00333936,0.00051284,-0.000039
 43,-0.00018951,-0.00007279,-0.00001193,0.00000704,0.00000048,0.0000038
 0,0.00000614,-0.00001921,-0.00001865,-0.00003204,0.00000626,0.00000201
 ,0.00000023,0.00005000,-0.00000173,0.00007512,0.00001522,-0.00002289,0
 .00000204,0.00001832,-0.00001261,-0.00001348,-0.00027597,-0.00010573,-
 0.00001636,-0.00003329,-0.00011112,-0.00001787,0.00010334,-0.00001429,
 -0.00000468,-0.00001953,0.00006684,0.00001185,-0.00004061,0.00001256,0
 .00001273,0.00008597,-0.00074366,0.00039635,-0.00024854,0.00012907,-0.
 00001251,0.00055131,0.00056551,0.00010952,-0.00017612,-0.00024495,-0.0
 0004115,0.00410775,-0.03828533,-0.04531916,-0.00278802,0.01339061,0.00
 229932,0.00259345,-0.03102925,-0.00320861,-0.00271953,0.04249553,0.047
 94009\\0.00001032,0.00001384,-0.00001102,-0.00004684,-0.00003157,0.000
 01687,0.00003212,0.00000334,0.00000551,-0.00000187,0.00001482,0.000019
 09,0.00000943,-0.00000609,0.00000736,0.00000647,-0.00000425,0.00000906
 ,0.00000259,0.00000274,0.00000405,0.00000518,0.00000566,-0.00000135,-0
 .00013283,0.00000651,-0.00001776,-0.00000414,0.00002870,-0.00003414,0.
 00012680,-0.00003345,0.00004623,-0.00000694,-0.00000046,-0.00001145,-0
 .00000497,-0.00000159,-0.00001301,-0.00000181,0.00000831,0.00000399,0.
 00000590,0.00000851,0.00000339,0.00001312,0.00001311,0.00000311,0.0000
 0395,-0.00001059,-0.00000723,-0.00000175,-0.00000895,-0.00001357,-0.00
 002401,-0.00000300,0.00000049,0.00000035,0.00000085,0.00000082,0.00000
 453,-0.00000342,0.00001890,0.00001468,0.00000002,0.00000539,-0.0000041
 2,-0.00000224,-0.00002067,-0.00000616,-0.00000080,-0.00001405\\\@
 The archive entry for this job was punched.


 A politician is a person who can make waves and then
 make you think he's the only one who can save the ship.
 -- Ivern Ball
 Job cpu time:       0 days  0 hours 23 minutes 16.6 seconds.
 Elapsed time:       0 days  0 hours  1 minutes 57.7 seconds.
 File lengths (MBytes):  RWF=    184 Int=      0 D2E=      0 Chk=     10 Scr=      1
 Normal termination of Gaussian 16 at Sat Dec 30 21:02:59 2023.
