Unloading slurm/anatra/current
  ERROR: No such file or directory on
    '/cm/local/modulefiles/slurm/anatra/current'
environment: line 0: unalias: gv: not found
environment: line 0: unalias: sl: not found
 Entering Gaussian System, Link 0=g16
 Initial command:
 /apps/gaussian/g16/C.01/g16/l1.exe "/local/jobs/1153185/Gau-1741643.inp" -scrdir="/local/jobs/1153185/"
 Entering Link 1 = /apps/gaussian/g16/C.01/g16/l1.exe PID=   1741646.
  
 Copyright (c) 1988-2019, Gaussian, Inc.  All Rights Reserved.
  
 This is part of the Gaussian(R) 16 program.  It is based on
 the Gaussian(R) 09 system (copyright 2009, Gaussian, Inc.),
 the Gaussian(R) 03 system (copyright 2003, Gaussian, Inc.),
 the Gaussian(R) 98 system (copyright 1998, Gaussian, Inc.),
 the Gaussian(R) 94 system (copyright 1995, Gaussian, Inc.),
 the Gaussian 92(TM) system (copyright 1992, Gaussian, Inc.),
 the Gaussian 90(TM) system (copyright 1990, Gaussian, Inc.),
 the Gaussian 88(TM) system (copyright 1988, Gaussian, Inc.),
 the Gaussian 86(TM) system (copyright 1986, Carnegie Mellon
 University), and the Gaussian 82(TM) system (copyright 1983,
 Carnegie Mellon University). Gaussian is a federally registered
 trademark of Gaussian, Inc.
  
 This software contains proprietary and confidential information,
 including trade secrets, belonging to Gaussian, Inc.
  
 This software is provided under written license and may be
 used, copied, transmitted, or stored only in accord with that
 written license.
  
 The following legend is applicable only to US Government
 contracts under FAR:
  
                    RESTRICTED RIGHTS LEGEND
  
 Use, reproduction and disclosure by the US Government is
 subject to restrictions as set forth in subparagraphs (a)
 and (c) of the Commercial Computer Software - Restricted
 Rights clause in FAR 52.227-19.
  
 Gaussian, Inc.
 340 Quinnipiac St., Bldg. 40, Wallingford CT 06492
  
  
 ---------------------------------------------------------------
 Warning -- This program may not be used in any manner that
 competes with the business of Gaussian, Inc. or will provide
 assistance to any competitor of Gaussian, Inc.  The licensee
 of this program is prohibited from giving any competitor of
 Gaussian, Inc. access to this program.  By using this program,
 the user acknowledges that Gaussian, Inc. is engaged in the
 business of creating and licensing software in the field of
 computational chemistry and represents and warrants to the
 licensee that it is not a competitor of Gaussian, Inc. and that
 it will not use this program in any manner prohibited above.
 ---------------------------------------------------------------
  

 Cite this work as:
 Gaussian 16, Revision C.01,
 M. J. Frisch, G. W. Trucks, H. B. Schlegel, G. E. Scuseria, 
 M. A. Robb, J. R. Cheeseman, G. Scalmani, V. Barone, 
 G. A. Petersson, H. Nakatsuji, X. Li, M. Caricato, A. V. Marenich, 
 J. Bloino, B. G. Janesko, R. Gomperts, B. Mennucci, H. P. Hratchian, 
 J. V. Ortiz, A. F. Izmaylov, J. L. Sonnenberg, D. Williams-Young, 
 F. Ding, F. Lipparini, F. Egidi, J. Goings, B. Peng, A. Petrone, 
 T. Henderson, D. Ranasinghe, V. G. Zakrzewski, J. Gao, N. Rega, 
 G. Zheng, W. Liang, M. Hada, M. Ehara, K. Toyota, R. Fukuda, 
 J. Hasegawa, M. Ishida, T. Nakajima, Y. Honda, O. Kitao, H. Nakai, 
 T. Vreven, K. Throssell, J. A. Montgomery, Jr., J. E. Peralta, 
 F. Ogliaro, M. J. Bearpark, J. J. Heyd, E. N. Brothers, K. N. Kudin, 
 V. N. Staroverov, T. A. Keith, R. Kobayashi, J. Normand, 
 K. Raghavachari, A. P. Rendell, J. C. Burant, S. S. Iyengar, 
 J. Tomasi, M. Cossi, J. M. Millam, M. Klene, C. Adamo, R. Cammi, 
 J. W. Ochterski, R. L. Martin, K. Morokuma, O. Farkas, 
 J. B. Foresman, and D. J. Fox, Gaussian, Inc., Wallingford CT, 2019.
 
 ******************************************
 Gaussian 16:  ES64L-G16RevC.01  3-Jul-2019
                30-Dec-2023 
 ******************************************
 %chk=TS-898_opt_hf_freq.chk
 %nprocshared=12
 Will use up to   12 processors via shared memory.
 %mem=48GB
 -----------------------------------------------------------
 # wb97xd def2svp scrf=(iefpcm,solvent=toluene) freq=noraman
 -----------------------------------------------------------
 1/10=4,30=1,38=1/1,3;
 2/12=2,17=6,18=5,40=1/2;
 3/5=43,7=101,11=2,25=1,30=1,70=2201,71=2,72=13,74=-58,140=1/1,2,3;
 4//1;
 5/5=2,38=5,53=13,98=1/2;
 8/6=4,10=90,11=11/1;
 11/6=1,8=1,9=11,15=111,16=1/1,2,10;
 10/6=1/2;
 6/7=2,8=2,9=2,10=2,28=1/1;
 7/8=1,10=1,25=1/1,2,3,16;
 1/10=4,30=1/3;
 99//99;
 -----------------
 TS-898_opt_hf.out
 -----------------
 Symbolic Z-matrix:
 Charge =  0 Multiplicity = 1
 C                    -0.58904  -0.47531  -0.15244 
 C                    -1.83166   0.04211   0.36725 
 O                    -1.95845   0.88105   1.26683 
 C                     0.65094  -0.02298   0.35311 
 C                     0.6839    2.14264  -1.28305 
 H                     1.01315   2.55053  -2.24765 
 H                    -0.3664    1.82199  -1.35239 
 H                     0.77025   2.91497  -0.51015 
 N                     1.47473   0.97602  -0.89994 
 H                     1.58546   0.3276   -1.68151 
 H                     2.41507   1.21782  -0.58067 
 Cl                    1.99877  -1.30295   0.42949 
 C                     0.7634    0.83846   1.58417 
 H                     0.12794   1.72538   1.49154 
 H                     0.3829    0.27582   2.44637 
 H                     1.81138   1.11085   1.77263 
 C                    -0.61066  -1.43908  -1.3213 
 H                     0.39356  -1.83404  -1.53023 
 H                    -1.247    -2.31888  -1.13281 
 H                    -0.98394  -0.97978  -2.2558 
 C                    -3.10763  -0.51518  -0.26424 
 H                    -3.18785  -1.60258  -0.10964 
 H                    -3.96808  -0.02141   0.20419 
 H                    -3.13666  -0.34253  -1.35132 
 

 GradGradGradGradGradGradGradGradGradGradGradGradGradGradGradGradGradGrad
 Berny optimization.
 Initialization pass.
 Trust Radius=3.00D-01 FncErr=1.00D-07 GrdErr=1.00D-07 EigMax=2.50D+02 EigMin=1.00D-04
 Number of steps in this run=      2 maximum allowed number of steps=      2.
 GradGradGradGradGradGradGradGradGradGradGradGradGradGradGradGradGradGrad

                          Input orientation:                          
 ---------------------------------------------------------------------
 Center     Atomic      Atomic             Coordinates (Angstroms)
 Number     Number       Type             X           Y           Z
 ---------------------------------------------------------------------
      1          6           0       -0.589040   -0.475310   -0.152440
      2          6           0       -1.831660    0.042110    0.367250
      3          8           0       -1.958450    0.881050    1.266830
      4          6           0        0.650940   -0.022980    0.353110
      5          6           0        0.683900    2.142640   -1.283050
      6          1           0        1.013150    2.550530   -2.247650
      7          1           0       -0.366400    1.821990   -1.352390
      8          1           0        0.770250    2.914970   -0.510150
      9          7           0        1.474730    0.976020   -0.899940
     10          1           0        1.585460    0.327600   -1.681510
     11          1           0        2.415070    1.217820   -0.580670
     12         17           0        1.998770   -1.302950    0.429490
     13          6           0        0.763400    0.838460    1.584170
     14          1           0        0.127940    1.725380    1.491540
     15          1           0        0.382900    0.275820    2.446370
     16          1           0        1.811380    1.110850    1.772630
     17          6           0       -0.610660   -1.439080   -1.321300
     18          1           0        0.393560   -1.834040   -1.530230
     19          1           0       -1.247000   -2.318880   -1.132810
     20          1           0       -0.983940   -0.979780   -2.255800
     21          6           0       -3.107630   -0.515180   -0.264240
     22          1           0       -3.187850   -1.602580   -0.109640
     23          1           0       -3.968080   -0.021410    0.204190
     24          1           0       -3.136660   -0.342530   -1.351320
 ---------------------------------------------------------------------
                    Distance matrix (angstroms):
                    1          2          3          4          5
     1  C    0.000000
     2  C    1.442881   0.000000
     3  O    2.393601   1.236584   0.000000
     4  C    1.413412   2.483493   2.908792   0.000000
     5  C    3.122870   3.669299   3.882720   2.714409   0.000000
     6  H    4.014053   4.606823   4.895829   3.676697   1.097831
     7  H    2.601353   2.876130   3.206291   2.710650   1.100343
     8  H    3.670099   3.974052   3.839309   3.064474   1.096049
     9  N    2.631399   3.661990   4.060866   1.801878   1.460544
    10  H    2.776899   3.994450   4.643093   2.266255   2.065418
    11  H    3.474874   4.507279   4.759658   2.350252   2.084605
    12  Cl   2.778559   4.060204   4.596802   1.860323   4.066173
    13  C    2.563377   2.974795   2.740618   1.506730   3.150898
    14  H    2.838973   2.817349   2.261948   2.150887   2.860340
    15  H    2.874487   3.046578   2.690639   2.131400   4.181410
    16  H    3.461765   4.048338   3.810546   2.155743   3.416575
    17  C    1.515108   2.556554   3.727997   2.529945   3.808683
    18  H    2.170243   3.474475   4.552715   2.625481   3.994919
    19  H    2.189243   2.857671   4.062510   3.328857   4.863754
    20  H    2.198763   2.939946   4.101375   3.224083   3.671163
    21  C    2.521385   1.528873   2.369440   3.840603   4.741063
    22  H    2.833087   2.184418   3.094271   4.176791   5.513076
    23  H    3.427991   2.143575   2.445864   4.621420   5.341902
    24  H    2.818743   2.191907   3.120903   4.165706   4.558224
                    6          7          8          9         10
     6  H    0.000000
     7  H    1.798727   0.000000
     8  H    1.791849   1.787721   0.000000
     9  N    2.123313   2.076087   2.099466   0.000000
    10  H    2.364206   2.480177   2.954849   1.021548   0.000000
    11  H    2.553491   2.949093   2.364471   1.022076   1.640912
    12  Cl   4.794563   4.305157   4.492553   2.689927   2.699229
    13  C    4.204331   3.296538   2.949257   2.587608   3.406087
    14  H    3.930141   2.888190   2.415460   2.845094   3.761170
    15  H    5.254079   4.169253   3.981980   3.588894   4.299794
    16  H    4.344249   3.874816   3.090289   2.697062   3.549029
    17  C    4.405891   3.270353   4.639249   3.218556   2.841453
    18  H    4.485871   3.738412   4.871915   3.076139   2.473095
    19  H    5.482910   4.239160   5.643597   4.280001   3.915068
    20  H    4.056048   3.007893   4.614494   3.421779   2.939535
    21  C    5.505753   3.763081   5.183083   4.860639   4.974337
    22  H    6.282341   4.607894   6.019570   5.386409   5.383387
    23  H    6.118746   4.335108   5.619998   5.642530   5.875328
    24  H    5.137521   3.515606   5.155853   4.817389   4.780849
                   11         12         13         14         15
    11  H    0.000000
    12  Cl   2.747364   0.000000
    13  C    2.749265   2.728564   0.000000
    14  H    3.127720   3.714665   1.094996   0.000000
    15  H    3.765641   3.028425   1.097603   1.754403   0.000000
    16  H    2.431852   2.768677   1.099079   1.814009   1.786549
    17  C    4.094227   3.145302   3.939160   4.297837   4.257156
    18  H    3.781801   2.588293   4.120501   4.676657   4.501663
    19  H    5.120924   3.742715   4.625201   5.013353   4.711642
    20  H    4.380499   4.026385   4.593970   4.753601   5.055214
    21  C    5.796864   5.213172   4.498203   4.309499   4.489642
    22  H    6.290408   5.223166   4.943687   4.963221   4.776173
    23  H    6.549527   6.107078   5.003061   4.635291   4.903748
    24  H    5.818101   5.519632   5.022181   4.797470   5.214605
                   16         17         18         19         20
    16  H    0.000000
    17  C    4.684103   0.000000
    18  H    4.646663   1.099137   0.000000
    19  H    5.436756   1.102046   1.756260   0.000000
    20  H    5.330365   1.106158   1.775871   1.767341   0.000000
    21  C    5.566819   2.864581   3.949741   2.733074   2.948258
    22  H    5.991489   2.852501   3.859812   2.307999   3.138647
    23  H    6.094602   3.950845   5.031674   3.803973   3.984359
    24  H    6.029467   2.753906   3.836543   2.743086   2.420408
                   21         22         23         24
    21  C    0.000000
    22  H    1.101261   0.000000
    23  H    1.097091   1.790907   0.000000
    24  H    1.101088   1.769778   1.792760   0.000000
 Stoichiometry    C7H14ClNO
 Framework group  C1[X(C7H14ClNO)]
 Deg. of freedom    66
 Full point group                 C1      NOp   1
 Largest Abelian subgroup         C1      NOp   1
 Largest concise Abelian subgroup C1      NOp   1
                         Standard orientation:                         
 ---------------------------------------------------------------------
 Center     Atomic      Atomic             Coordinates (Angstroms)
 Number     Number       Type             X           Y           Z
 ---------------------------------------------------------------------
      1          6           0        0.589038   -0.475311    0.152439
      2          6           0        1.831659    0.042108   -0.367251
      3          8           0        1.958449    0.881048   -1.266831
      4          6           0       -0.650941   -0.022981   -0.353111
      5          6           0       -0.683901    2.142639    1.283049
      6          1           0       -1.013151    2.550529    2.247649
      7          1           0        0.366399    1.821989    1.352389
      8          1           0       -0.770251    2.914969    0.510149
      9          7           0       -1.474731    0.976019    0.899939
     10          1           0       -1.585461    0.327599    1.681509
     11          1           0       -2.415071    1.217820    0.580669
     12         17           0       -1.998772   -1.302950   -0.429491
     13          6           0       -0.763401    0.838459   -1.584171
     14          1           0       -0.127941    1.725379   -1.491541
     15          1           0       -0.382901    0.275819   -2.446371
     16          1           0       -1.811381    1.110850   -1.772631
     17          6           0        0.610658   -1.439081    1.321299
     18          1           0       -0.393562   -1.834041    1.530229
     19          1           0        1.246998   -2.318881    1.132809
     20          1           0        0.983938   -0.979781    2.255799
     21          6           0        3.107628   -0.515182    0.264239
     22          1           0        3.187848   -1.602582    0.109639
     23          1           0        3.968079   -0.021412   -0.204191
     24          1           0        3.136659   -0.342532    1.351319
 ---------------------------------------------------------------------
 Rotational constants (GHZ):           1.3850419           0.8171189           0.7405959
 Standard basis: def2SVP (5D, 7F)
 There are   224 symmetry adapted cartesian basis functions of A   symmetry.
 There are   214 symmetry adapted basis functions of A   symmetry.
   214 basis functions,   360 primitive gaussians,   224 cartesian basis functions
    44 alpha electrons       44 beta electrons
       nuclear repulsion energy       670.6654725798 Hartrees.
 NAtoms=   24 NActive=   24 NUniq=   24 SFac= 1.00D+00 NAtFMM=   60 NAOKFM=F Big=F
 Integral buffers will be    131072 words long.
 Raffenetti 2 integral format.
 Two-electron integral symmetry is turned on.
 Nuclear repulsion after empirical dispersion term =      670.6476190456 Hartrees.
 Force inversion solution in PCM.
 ------------------------------------------------------------------------------
 Polarizable Continuum Model (PCM)
 =================================
 Model                : PCM.
 Atomic radii         : UFF (Universal Force Field).
 Polarization charges : Total charges.
 Charge compensation  : None.
 Solution method      : Matrix inversion.
 Cavity type          : Scaled VdW (van der Waals Surface) (Alpha=1.100).
 Cavity algorithm     : GePol (No added spheres)
                        Default sphere list used, NSphG=   24.
                        Lebedev-Laikov grids with approx.  5.0 points / Ang**2.
                        Smoothing algorithm: York/Karplus (Gamma=1.0000).
                        Polarization charges: spherical gaussians, with
                                              point-specific exponents (IZeta= 3).
                        Self-potential: point-specific (ISelfS= 7).
                        Self-field    : sphere-specific E.n sum rule (ISelfD= 2).
 1st derivatives      : Analytical E(r).r(x)/FMM algorithm (CHGder, D1EAlg=3).
                        Cavity 1st derivative terms included.
 2nd derivatives      : Analytical E(r).r(xy)/FMM algorithm (CHGder, D2EAlg=3).
                        Cavity 2nd derivative terms included.
 Solvent              : Toluene, Eps=   2.374100 Eps(inf)=   2.238315
 ------------------------------------------------------------------------------
 One-electron integrals computed using PRISM.
   1 Symmetry operations used in ECPInt.
 ECPInt:  NShTT=    5460 NPrTT=   19488 LenC2=    5396 LenP2D=   15064.
 LDataN:  DoStor=T MaxTD1= 4 Len=   56
 NBasis=   214 RedAO= T EigKep=  1.01D-03  NBF=   214
 NBsUse=   214 1.00D-06 EigRej= -1.00D+00 NBFU=   214
 ExpMin= 1.22D-01 ExpMax= 1.04D+04 ExpMxC= 1.57D+03 IAcc=3 IRadAn=         5 AccDes= 0.00D+00
 Harris functional with IExCor= 4639 and IRadAn=       5 diagonalized for initial guess.
 HarFok:  IExCor= 4639 AccDes= 0.00D+00 IRadAn=         5 IDoV= 1 UseB2=F ITyADJ=14
 ICtDFT=  3500011 ScaDFX=  1.000000  1.000000  1.000000  1.000000
 FoFCou: FMM=F IPFlag=           0 FMFlag=      100000 FMFlg1=           0
         NFxFlg=           0 DoJE=T BraDBF=F KetDBF=T FulRan=T
         wScrn=  0.000000 ICntrl=       500 IOpCl=  0 I1Cent=   200000004 NGrid=           0
         NMat0=    1 NMatS0=      1 NMatT0=    0 NMatD0=    1 NMtDS0=    0 NMtDT0=    0
 Petite list used in FoFCou.
 Requested convergence on RMS density matrix=1.00D-08 within 128 cycles.
 Requested convergence on MAX density matrix=1.00D-06.
 Requested convergence on             energy=1.00D-06.
 No special actions if energy rises.
 Inv3:  Mode=1 IEnd=     8548032.
 Iteration    1 A*A^-1 deviation from unit magnitude is 3.33D-15 for   1276.
 Iteration    1 A*A^-1 deviation from orthogonality  is 1.72D-15 for   1358    727.
 Iteration    1 A^-1*A deviation from unit magnitude is 3.33D-15 for   1492.
 Iteration    1 A^-1*A deviation from orthogonality  is 1.55D-15 for   1490    959.
 Error on total polarization charges =  0.00583
 SCF Done:  E(RwB97XD) =  -864.737844004     A.U. after   14 cycles
            NFock= 14  Conv=0.99D-08     -V/T= 2.0064
 DoSCS=F DFT=T ScalE2(SS,OS)=  1.000000  1.000000
 Range of M.O.s used for correlation:     1   214
 NBasis=   214 NAE=    44 NBE=    44 NFC=     0 NFV=     0
 NROrb=    214 NOA=    44 NOB=    44 NVA=   170 NVB=   170
   1 Symmetry operations used in ECPInt.
 ECPInt:  NShTT=    5460 NPrTT=   19488 LenC2=    5396 LenP2D=   15064.
 LDataN:  DoStor=T MaxTD1= 5 Len=  102
 Symmetrizing basis deriv contribution to polar:
 IMax=3 JMax=2 DiffMx= 0.00D+00
 G2DrvN: will do    25 centers at a time, making    1 passes.
 Calling FoFCou, ICntrl=  3107 FMM=F I1Cent=   0 AccDes= 0.00D+00.
 NEqPCM:  Using equilibrium solvation (IEInf=0, Eps=   2.3741, EpsInf=   2.2383)
 G2PCM: DoFxE=T DoFxN=T DoGrad=T DoDP/DQ/DG/TGxP=FFFF NFrqRd=   0 IEInf=0 SqF1=F DoCFld=F IF1Alg=4.
 End of G2Drv F.D. properties file   721 does not exist.
 End of G2Drv F.D. properties file   722 does not exist.
 End of G2Drv F.D. properties file   788 does not exist.
          IDoAtm=111111111111111111111111
 NEqPCM:  Using equilibrium solvation (IEInf=0, Eps=   2.3741, EpsInf=   2.2383)
          Differentiating once with respect to electric field.
                with respect to dipole field.
          Differentiating once with respect to nuclear coordinates.
 Keep R1 ints in memory in canonical form, NReq=546878450.
          There are    75 degrees of freedom in the 1st order CPHF.  IDoFFX=6 NUNeed=     3.
     72 vectors produced by pass  0 Test12= 9.97D-15 1.33D-09 XBig12= 5.63D+01 4.68D+00.
 AX will form    72 AO Fock derivatives at one time.
     72 vectors produced by pass  1 Test12= 9.97D-15 1.33D-09 XBig12= 3.73D+00 3.06D-01.
     72 vectors produced by pass  2 Test12= 9.97D-15 1.33D-09 XBig12= 1.16D-01 4.18D-02.
     72 vectors produced by pass  3 Test12= 9.97D-15 1.33D-09 XBig12= 1.01D-03 4.15D-03.
     72 vectors produced by pass  4 Test12= 9.97D-15 1.33D-09 XBig12= 6.84D-06 2.87D-04.
     72 vectors produced by pass  5 Test12= 9.97D-15 1.33D-09 XBig12= 3.75D-08 2.15D-05.
     53 vectors produced by pass  6 Test12= 9.97D-15 1.33D-09 XBig12= 1.75D-10 1.32D-06.
     12 vectors produced by pass  7 Test12= 9.97D-15 1.33D-09 XBig12= 6.93D-13 7.61D-08.
      3 vectors produced by pass  8 Test12= 9.97D-15 1.33D-09 XBig12= 2.85D-15 4.73D-09.
 InvSVY:  IOpt=1 It=  1 EMax= 7.99D-15
 Solved reduced A of dimension   500 with    75 vectors.
 Isotropic polarizability for W=    0.000000      115.19 Bohr**3.
 End of Minotr F.D. properties file   721 does not exist.
 End of Minotr F.D. properties file   722 does not exist.
 End of Minotr F.D. properties file   788 does not exist.

 **********************************************************************

            Population analysis using the SCF Density.

 **********************************************************************

 Orbital symmetries:
       Occupied  (A) (A) (A) (A) (A) (A) (A) (A) (A) (A) (A) (A)
                 (A) (A) (A) (A) (A) (A) (A) (A) (A) (A) (A) (A)
                 (A) (A) (A) (A) (A) (A) (A) (A) (A) (A) (A) (A)
                 (A) (A) (A) (A) (A) (A) (A) (A)
       Virtual   (A) (A) (A) (A) (A) (A) (A) (A) (A) (A) (A) (A)
                 (A) (A) (A) (A) (A) (A) (A) (A) (A) (A) (A) (A)
                 (A) (A) (A) (A) (A) (A) (A) (A) (A) (A) (A) (A)
                 (A) (A) (A) (A) (A) (A) (A) (A) (A) (A) (A) (A)
                 (A) (A) (A) (A) (A) (A) (A) (A) (A) (A) (A) (A)
                 (A) (A) (A) (A) (A) (A) (A) (A) (A) (A) (A) (A)
                 (A) (A) (A) (A) (A) (A) (A) (A) (A) (A) (A) (A)
                 (A) (A) (A) (A) (A) (A) (A) (A) (A) (A) (A) (A)
                 (A) (A) (A) (A) (A) (A) (A) (A) (A) (A) (A) (A)
                 (A) (A) (A) (A) (A) (A) (A) (A) (A) (A) (A) (A)
                 (A) (A) (A) (A) (A) (A) (A) (A) (A) (A) (A) (A)
                 (A) (A) (A) (A) (A) (A) (A) (A) (A) (A) (A) (A)
                 (A) (A) (A) (A) (A) (A) (A) (A) (A) (A) (A) (A)
                 (A) (A) (A) (A) (A) (A) (A) (A) (A) (A) (A) (A)
                 (A) (A)
 The electronic state is 1-A.
 Alpha  occ. eigenvalues -- -101.66007 -19.18330 -14.53295 -10.40653 -10.35277
 Alpha  occ. eigenvalues --  -10.34213 -10.29622 -10.28403 -10.27307 -10.25549
 Alpha  occ. eigenvalues --   -9.56777  -7.32095  -7.31231  -7.31199  -1.07209
 Alpha  occ. eigenvalues --   -1.06384  -0.94768  -0.86176  -0.83061  -0.80246
 Alpha  occ. eigenvalues --   -0.78770  -0.73327  -0.67036  -0.65296  -0.60127
 Alpha  occ. eigenvalues --   -0.58360  -0.56003  -0.53705  -0.51968  -0.50907
 Alpha  occ. eigenvalues --   -0.49768  -0.49438  -0.47963  -0.46957  -0.46330
 Alpha  occ. eigenvalues --   -0.44968  -0.44101  -0.44047  -0.42679  -0.40558
 Alpha  occ. eigenvalues --   -0.38425  -0.37841  -0.28808  -0.25256
 Alpha virt. eigenvalues --    0.08287   0.08752   0.11082   0.14210   0.15418
 Alpha virt. eigenvalues --    0.16556   0.17186   0.19226   0.19765   0.20876
 Alpha virt. eigenvalues --    0.21499   0.22706   0.22946   0.24416   0.24953
 Alpha virt. eigenvalues --    0.25225   0.26993   0.28822   0.31106   0.31894
 Alpha virt. eigenvalues --    0.35491   0.37953   0.40831   0.46043   0.46440
 Alpha virt. eigenvalues --    0.48990   0.50539   0.50948   0.53232   0.53787
 Alpha virt. eigenvalues --    0.56648   0.57281   0.59136   0.60967   0.61519
 Alpha virt. eigenvalues --    0.63595   0.66737   0.68617   0.69394   0.71012
 Alpha virt. eigenvalues --    0.72545   0.72765   0.73262   0.73588   0.73874
 Alpha virt. eigenvalues --    0.74640   0.74983   0.75400   0.75878   0.77185
 Alpha virt. eigenvalues --    0.77317   0.77999   0.78748   0.79441   0.80100
 Alpha virt. eigenvalues --    0.81318   0.81626   0.83760   0.84152   0.85307
 Alpha virt. eigenvalues --    0.85595   0.86894   0.89580   0.91548   0.93143
 Alpha virt. eigenvalues --    0.93921   0.95032   0.96688   1.01588   1.03740
 Alpha virt. eigenvalues --    1.04860   1.08379   1.10879   1.13211   1.16704
 Alpha virt. eigenvalues --    1.18845   1.20400   1.25531   1.26006   1.27011
 Alpha virt. eigenvalues --    1.32464   1.35626   1.38185   1.41422   1.42611
 Alpha virt. eigenvalues --    1.43106   1.46311   1.46607   1.54664   1.56765
 Alpha virt. eigenvalues --    1.58529   1.61029   1.62210   1.63871   1.66691
 Alpha virt. eigenvalues --    1.67837   1.69130   1.72530   1.72841   1.77245
 Alpha virt. eigenvalues --    1.78789   1.82345   1.83638   1.84366   1.85091
 Alpha virt. eigenvalues --    1.86671   1.87586   1.89114   1.89812   1.91304
 Alpha virt. eigenvalues --    1.92288   1.92514   1.94161   1.95039   1.96610
 Alpha virt. eigenvalues --    1.99863   2.00736   2.03821   2.05963   2.06580
 Alpha virt. eigenvalues --    2.08303   2.09255   2.11995   2.13592   2.14830
 Alpha virt. eigenvalues --    2.18617   2.20154   2.21865   2.23096   2.30267
 Alpha virt. eigenvalues --    2.31720   2.35809   2.40369   2.40654   2.45560
 Alpha virt. eigenvalues --    2.45653   2.46762   2.50139   2.52335   2.55625
 Alpha virt. eigenvalues --    2.57639   2.58104   2.59101   2.65178   2.66877
 Alpha virt. eigenvalues --    2.69832   2.72769   2.75033   2.80141   2.81535
 Alpha virt. eigenvalues --    2.82648   2.84868   2.86573   2.91948   2.93890
 Alpha virt. eigenvalues --    3.00905   3.02349   3.02557   3.03357   3.05197
 Alpha virt. eigenvalues --    3.05561   3.06759   3.09737   3.12057   3.20316
 Alpha virt. eigenvalues --    3.24211   3.27618   3.47913   3.53588   3.76278
          Condensed to atoms (all electrons):
               1          2          3          4          5          6
     1  C    5.854130   0.222979  -0.123389   0.391030  -0.011285  -0.000783
     2  C    0.222979   4.721874   0.705930  -0.048127  -0.000322  -0.000025
     3  O   -0.123389   0.705930   7.829270  -0.019424   0.000110   0.000012
     4  C    0.391030  -0.048127  -0.019424   5.328220  -0.029596   0.003316
     5  C   -0.011285  -0.000322   0.000110  -0.029596   4.528214   0.403873
     6  H   -0.000783  -0.000025   0.000012   0.003316   0.403873   0.583795
     7  H    0.021704   0.006532   0.000463  -0.005190   0.402532  -0.018765
     8  H   -0.001230  -0.000256  -0.000370  -0.002360   0.406021  -0.019211
     9  N   -0.112452  -0.002237   0.000170   0.101720   0.311943  -0.015818
    10  H   -0.005575   0.000059  -0.000024  -0.004757  -0.016305  -0.009021
    11  H    0.008566  -0.000002  -0.000007  -0.006602  -0.016390  -0.002975
    12  Cl  -0.079873  -0.001155  -0.000008   0.259707   0.002924  -0.000164
    13  C   -0.054261   0.001219  -0.004314   0.375043   0.000479  -0.000076
    14  H   -0.027719   0.003576   0.026551   0.012420   0.003336   0.000025
    15  H   -0.011756   0.000179   0.003205  -0.003202  -0.000132   0.000007
    16  H    0.011724   0.001207   0.001861  -0.031721  -0.001397  -0.000020
    17  C    0.328093  -0.009425   0.004041  -0.069872  -0.000587   0.000096
    18  H   -0.023753   0.007745  -0.000073  -0.017136  -0.000079  -0.000012
    19  H   -0.001139  -0.018800   0.000006   0.005735  -0.000052  -0.000002
    20  H   -0.023847  -0.012457   0.000042   0.000120   0.000972   0.000038
    21  C   -0.196859   0.425956  -0.087760   0.007544  -0.000095  -0.000000
    22  H    0.000920  -0.007594   0.001901   0.000642  -0.000002   0.000000
    23  H    0.018865  -0.014932   0.013050  -0.000242  -0.000003   0.000000
    24  H   -0.006072   0.002474   0.002432  -0.000291   0.000141  -0.000001
               7          8          9         10         11         12
     1  C    0.021704  -0.001230  -0.112452  -0.005575   0.008566  -0.079873
     2  C    0.006532  -0.000256  -0.002237   0.000059  -0.000002  -0.001155
     3  O    0.000463  -0.000370   0.000170  -0.000024  -0.000007  -0.000008
     4  C   -0.005190  -0.002360   0.101720  -0.004757  -0.006602   0.259707
     5  C    0.402532   0.406021   0.311943  -0.016305  -0.016390   0.002924
     6  H   -0.018765  -0.019211  -0.015818  -0.009021  -0.002975  -0.000164
     7  H    0.545243  -0.014947  -0.028505  -0.001913   0.006373   0.000391
     8  H   -0.014947   0.567765  -0.020960   0.005693  -0.008202   0.000020
     9  N   -0.028505  -0.020960   6.368437   0.338081   0.333020  -0.084339
    10  H   -0.001913   0.005693   0.338081   0.508939  -0.013061   0.009007
    11  H    0.006373  -0.008202   0.333020  -0.013061   0.514563   0.011190
    12  Cl   0.000391   0.000020  -0.084339   0.009007   0.011190  17.088771
    13  C   -0.002660   0.006040  -0.045273   0.004665  -0.004280  -0.062006
    14  H    0.000067   0.001880  -0.000252  -0.000132  -0.000646   0.002920
    15  H    0.000013  -0.000177   0.003598  -0.000232  -0.000095   0.002506
    16  H   -0.000022  -0.000116  -0.002428  -0.000051   0.004442   0.001376
    17  C   -0.002574   0.000065   0.003072   0.004793  -0.000488  -0.015585
    18  H    0.000025  -0.000015  -0.002699   0.004106  -0.000083   0.021672
    19  H    0.000130   0.000002  -0.000315  -0.000124   0.000017   0.001312
    20  H   -0.000667  -0.000009   0.002866  -0.000165  -0.000119   0.000010
    21  C    0.000130  -0.000036  -0.000100  -0.000027   0.000009  -0.000112
    22  H    0.000034   0.000001  -0.000010   0.000002   0.000000   0.000013
    23  H   -0.000058   0.000001   0.000004   0.000000  -0.000000   0.000002
    24  H   -0.000468   0.000007   0.000042  -0.000004  -0.000001  -0.000001
              13         14         15         16         17         18
     1  C   -0.054261  -0.027719  -0.011756   0.011724   0.328093  -0.023753
     2  C    0.001219   0.003576   0.000179   0.001207  -0.009425   0.007745
     3  O   -0.004314   0.026551   0.003205   0.001861   0.004041  -0.000073
     4  C    0.375043   0.012420  -0.003202  -0.031721  -0.069872  -0.017136
     5  C    0.000479   0.003336  -0.000132  -0.001397  -0.000587  -0.000079
     6  H   -0.000076   0.000025   0.000007  -0.000020   0.000096  -0.000012
     7  H   -0.002660   0.000067   0.000013  -0.000022  -0.002574   0.000025
     8  H    0.006040   0.001880  -0.000177  -0.000116   0.000065  -0.000015
     9  N   -0.045273  -0.000252   0.003598  -0.002428   0.003072  -0.002699
    10  H    0.004665  -0.000132  -0.000232  -0.000051   0.004793   0.004106
    11  H   -0.004280  -0.000646  -0.000095   0.004442  -0.000488  -0.000083
    12  Cl  -0.062006   0.002920   0.002506   0.001376  -0.015585   0.021672
    13  C    4.553985   0.362376   0.391270   0.368321   0.006868   0.001208
    14  H    0.362376   0.575925  -0.010847  -0.017805  -0.000124  -0.000106
    15  H    0.391270  -0.010847   0.573230  -0.020230   0.000023  -0.000014
    16  H    0.368321  -0.017805  -0.020230   0.660424  -0.000257  -0.000025
    17  C    0.006868  -0.000124   0.000023  -0.000257   4.564924   0.383416
    18  H    0.001208  -0.000106  -0.000014  -0.000025   0.383416   0.651755
    19  H   -0.000249  -0.000017   0.000033  -0.000001   0.372905  -0.017002
    20  H   -0.000227   0.000046  -0.000013   0.000013   0.385798  -0.027077
    21  C    0.000427   0.001120   0.000021   0.000063   0.010206  -0.000333
    22  H   -0.000051  -0.000019  -0.000021  -0.000003  -0.001015   0.000155
    23  H   -0.000058  -0.000024   0.000007  -0.000003  -0.000481  -0.000016
    24  H    0.000041  -0.000083   0.000002  -0.000002   0.006535   0.000311
              19         20         21         22         23         24
     1  C   -0.001139  -0.023847  -0.196859   0.000920   0.018865  -0.006072
     2  C   -0.018800  -0.012457   0.425956  -0.007594  -0.014932   0.002474
     3  O    0.000006   0.000042  -0.087760   0.001901   0.013050   0.002432
     4  C    0.005735   0.000120   0.007544   0.000642  -0.000242  -0.000291
     5  C   -0.000052   0.000972  -0.000095  -0.000002  -0.000003   0.000141
     6  H   -0.000002   0.000038  -0.000000   0.000000   0.000000  -0.000001
     7  H    0.000130  -0.000667   0.000130   0.000034  -0.000058  -0.000468
     8  H    0.000002  -0.000009  -0.000036   0.000001   0.000001   0.000007
     9  N   -0.000315   0.002866  -0.000100  -0.000010   0.000004   0.000042
    10  H   -0.000124  -0.000165  -0.000027   0.000002   0.000000  -0.000004
    11  H    0.000017  -0.000119   0.000009   0.000000  -0.000000  -0.000001
    12  Cl   0.001312   0.000010  -0.000112   0.000013   0.000002  -0.000001
    13  C   -0.000249  -0.000227   0.000427  -0.000051  -0.000058   0.000041
    14  H   -0.000017   0.000046   0.001120  -0.000019  -0.000024  -0.000083
    15  H    0.000033  -0.000013   0.000021  -0.000021   0.000007   0.000002
    16  H   -0.000001   0.000013   0.000063  -0.000003  -0.000003  -0.000002
    17  C    0.372905   0.385798   0.010206  -0.001015  -0.000481   0.006535
    18  H   -0.017002  -0.027077  -0.000333   0.000155  -0.000016   0.000311
    19  H    0.647470  -0.029249   0.010662   0.001459   0.000056  -0.003362
    20  H   -0.029249   0.682701   0.002826  -0.001342   0.000069   0.001500
    21  C    0.010662   0.002826   4.780224   0.366429   0.349237   0.351553
    22  H    0.001459  -0.001342   0.366429   0.621255  -0.013192  -0.016175
    23  H    0.000056   0.000069   0.349237  -0.013192   0.628612  -0.014961
    24  H   -0.003362   0.001500   0.351553  -0.016175  -0.014961   0.644144
 Mulliken charges:
               1
     1  C   -0.178021
     2  C    0.015600
     3  O   -0.353676
     4  C   -0.246975
     5  C    0.015703
     6  H    0.075711
     7  H    0.092133
     8  H    0.080394
     9  N   -0.147564
    10  H    0.176043
    11  H    0.174771
    12  Cl  -0.158580
    13  C    0.101515
    14  H    0.067532
    15  H    0.072625
    16  H    0.024650
    17  C    0.029573
    18  H    0.018028
    19  H    0.030527
    20  H    0.018174
    21  C   -0.021085
    22  H    0.046613
    23  H    0.034067
    24  H    0.032241
 Sum of Mulliken charges =  -0.00000
 Mulliken charges with hydrogens summed into heavy atoms:
               1
     1  C   -0.178021
     2  C    0.015600
     3  O   -0.353676
     4  C   -0.246975
     5  C    0.263941
     9  N    0.203250
    12  Cl  -0.158580
    13  C    0.266321
    17  C    0.096303
    21  C    0.091837
 APT charges:
               1
     1  C   -1.048511
     2  C    1.181434
     3  O   -0.965109
     4  C    1.678266
     5  C    0.145827
     6  H    0.014122
     7  H    0.079785
     8  H    0.037771
     9  N   -0.807529
    10  H    0.198858
    11  H    0.173088
    12  Cl  -0.632935
    13  C   -0.109216
    14  H    0.065074
    15  H    0.037267
    16  H    0.002486
    17  C    0.133336
    18  H    0.017354
    19  H   -0.029457
    20  H   -0.061326
    21  C   -0.108940
    22  H    0.000193
    23  H    0.004932
    24  H   -0.006768
 Sum of APT charges =  -0.00000
 APT charges with hydrogens summed into heavy atoms:
               1
     1  C   -1.048511
     2  C    1.181434
     3  O   -0.965109
     4  C    1.678266
     5  C    0.277504
     9  N   -0.435583
    12  Cl  -0.632935
    13  C   -0.004389
    17  C    0.059908
    21  C   -0.110583
 Electronic spatial extent (au):  <R**2>=           1844.8449
 Charge=             -0.0000 electrons
 Dipole moment (field-independent basis, Debye):
    X=             -4.9612    Y=              2.7829    Z=              4.8832  Tot=              7.4969
 Quadrupole moment (field-independent basis, Debye-Ang):
   XX=            -70.4230   YY=            -66.8935   ZZ=            -67.6879
   XY=            -10.8644   XZ=              1.0722   YZ=              4.9397
 Traceless Quadrupole moment (field-independent basis, Debye-Ang):
   XX=             -2.0882   YY=              1.4413   ZZ=              0.6469
   XY=            -10.8644   XZ=              1.0722   YZ=              4.9397
 Octapole moment (field-independent basis, Debye-Ang**2):
  XXX=            -31.3954  YYY=             16.7819  ZZZ=              8.0311  XYY=            -11.3732
  XXY=              4.1635  XXZ=             18.2752  XZZ=            -17.7817  YZZ=              4.3541
  YYZ=              7.7304  XYZ=              4.0585
 Hexadecapole moment (field-independent basis, Debye-Ang**3):
 XXXX=          -1251.2279 YYYY=           -615.3199 ZZZZ=           -475.1983 XXXY=            -29.5929
 XXXZ=             -8.1945 YYYX=             -9.1833 YYYZ=             19.3666 ZZZX=            -10.9403
 ZZZY=             23.4340 XXYY=           -313.2733 XXZZ=           -300.0709 YYZZ=           -186.6034
 XXYZ=             18.5856 YYXZ=             -4.1076 ZZXY=             -9.5543
 N-N= 6.706476190456D+02 E-N=-3.375340540469D+03  KE= 8.592686570460D+02
  Exact polarizability:     139.238      -0.991     106.163      -1.010      -5.160     100.167
 Approx polarizability:     127.137       5.696     107.486      -3.506      -6.623     101.614
   1 Symmetry operations used in ECPInt.
 ECPInt:  NShTT=    5460 NPrTT=   19488 LenC2=    5396 LenP2D=   15064.
 LDataN:  DoStor=T MaxTD1= 6 Len=  172
 D2PCM: PCM CHGder 2nd derivatives, FixD1E=F FixD2E=F DoIter=F DoCFld=F I1PDM=0
 Calling FoFJK, ICntrl=    100127 FMM=F ISym2X=0 I1Cent= 0 IOpClX= 0 NMat=1 NMatS=1 NMatT=0.
 Full mass-weighted force constant matrix:
 Low frequencies --- -327.5965   -5.5179   -0.0022    0.0024    0.0030    6.6622
 Low frequencies ---   17.4267   61.0051   71.2650
 ******    1 imaginary frequencies (negative Signs) ****** 
 Diagonal vibrational polarizability:
      123.6108442      58.1644230      52.4373813
 Harmonic frequencies (cm**-1), IR intensities (KM/Mole), Raman scattering
 activities (A**4/AMU), depolarization ratios for plane and unpolarized
 incident light, reduced masses (AMU), force constants (mDyne/A),
 and normal coordinates:
                      1                      2                      3
                      A                      A                      A
 Frequencies --   -327.5960                60.9513                70.8591
 Red. masses --      5.5918                 2.1256                 4.3272
 Frc consts  --      0.3536                 0.0047                 0.0128
 IR Inten    --    375.5396                 3.9851                 1.0087
  Atom  AN      X      Y      Z        X      Y      Z        X      Y      Z
     1   6     0.02   0.09   0.07    -0.00  -0.03  -0.04    -0.01  -0.10  -0.06
     2   6    -0.04  -0.02  -0.01    -0.00  -0.01  -0.02    -0.03   0.06   0.06
     3   8     0.00   0.00  -0.02    -0.01  -0.10  -0.11    -0.04   0.19   0.18
     4   6    -0.11   0.30   0.27     0.00  -0.02  -0.03    -0.03  -0.05  -0.01
     5   6     0.01  -0.08  -0.08     0.09  -0.08   0.07     0.18   0.01  -0.16
     6   1    -0.30  -0.23  -0.13     0.11  -0.09   0.08     0.18   0.11  -0.20
     7   1     0.02   0.06   0.09     0.08  -0.12   0.06     0.16  -0.03  -0.13
     8   1    -0.03  -0.09  -0.08     0.13  -0.05   0.09     0.21  -0.06  -0.24
     9   7     0.22  -0.26  -0.22     0.04  -0.02   0.03     0.11   0.01  -0.06
    10   1     0.20  -0.21  -0.16     0.01  -0.05   0.00     0.14   0.06  -0.01
    11   1     0.19  -0.35  -0.24     0.05   0.03   0.04     0.10   0.03  -0.00
    12  17    -0.05  -0.01  -0.01    -0.04   0.02  -0.02    -0.08   0.01   0.07
    13   6    -0.00   0.06   0.06    -0.01   0.01  -0.00    -0.03  -0.10  -0.05
    14   1     0.08   0.02  -0.10     0.01  -0.01   0.00     0.04  -0.14  -0.12
    15   1    -0.01  -0.15   0.20    -0.05   0.02  -0.02    -0.10  -0.17  -0.04
    16   1     0.02   0.09  -0.03    -0.01   0.04   0.03    -0.02  -0.04  -0.03
    17   6    -0.00   0.06   0.05    -0.02   0.04   0.02     0.01  -0.17  -0.12
    18   1     0.00   0.01  -0.00     0.04  -0.26  -0.25     0.04  -0.33  -0.26
    19   1     0.00   0.07   0.02     0.31   0.24   0.25     0.15  -0.06  -0.12
    20   1    -0.03  -0.03   0.12    -0.44   0.21   0.11    -0.16  -0.19  -0.05
    21   6    -0.02  -0.02  -0.01     0.00   0.15   0.11    -0.01   0.09   0.07
    22   1     0.00  -0.02  -0.00     0.16   0.17   0.09     0.09   0.11  -0.05
    23   1    -0.03  -0.02  -0.03    -0.01   0.27   0.20    -0.03   0.22   0.17
    24   1     0.01  -0.01  -0.01    -0.13   0.13   0.11    -0.08  -0.03   0.09
                      4                      5                      6
                      A                      A                      A
 Frequencies --    104.5044               108.0876               158.2304
 Red. masses --      1.3512                 2.0523                 1.7824
 Frc consts  --      0.0087                 0.0141                 0.0263
 IR Inten    --      3.8400                 2.4841                 4.7041
  Atom  AN      X      Y      Z        X      Y      Z        X      Y      Z
     1   6    -0.01   0.00  -0.01    -0.01   0.03   0.01     0.02   0.02   0.02
     2   6    -0.01   0.01  -0.01    -0.02   0.03   0.00     0.02  -0.00  -0.00
     3   8    -0.00  -0.04  -0.05    -0.02   0.07   0.04     0.02  -0.06  -0.06
     4   6    -0.01   0.01  -0.00    -0.01   0.00  -0.02     0.02   0.03   0.03
     5   6     0.04  -0.03   0.02     0.11  -0.12   0.11    -0.10   0.03   0.05
     6   1     0.02  -0.02   0.01    -0.05  -0.06   0.03    -0.39   0.16  -0.10
     7   1     0.03  -0.08   0.06     0.03  -0.35   0.37    -0.14  -0.02   0.42
     8   1     0.11  -0.03   0.02     0.48  -0.10   0.09     0.19  -0.06  -0.06
     9   7     0.01  -0.00  -0.01    -0.04   0.05  -0.10    -0.05   0.03  -0.06
    10   1    -0.02  -0.01  -0.02    -0.30   0.03  -0.15    -0.17   0.04  -0.07
    11   1     0.03   0.03  -0.02     0.07   0.25  -0.25    -0.00   0.05  -0.19
    12  17    -0.01   0.00   0.00     0.01  -0.02   0.01    -0.01   0.03   0.05
    13   6    -0.01   0.00  -0.00     0.00  -0.06  -0.07     0.04  -0.01  -0.01
    14   1     0.01  -0.01  -0.01    -0.06  -0.01  -0.07     0.05  -0.02  -0.04
    15   1    -0.03  -0.00  -0.01     0.08  -0.07  -0.02     0.04  -0.05   0.02
    16   1    -0.01   0.02   0.01    -0.01  -0.13  -0.13     0.05  -0.01  -0.03
    17   6     0.01  -0.04  -0.05    -0.02   0.09   0.06     0.05  -0.11  -0.08
    18   1    -0.05   0.27   0.24    -0.02   0.11   0.09     0.06  -0.15  -0.12
    19   1    -0.32  -0.25  -0.26    -0.03   0.06   0.09     0.07  -0.07  -0.19
    20   1     0.43  -0.19  -0.15     0.00   0.13   0.03     0.04  -0.22  -0.02
    21   6    -0.02   0.09   0.09    -0.01  -0.03  -0.06     0.03   0.03   0.01
    22   1    -0.07   0.05   0.40    -0.07  -0.04  -0.06     0.18   0.08  -0.27
    23   1    -0.01  -0.07  -0.05    -0.01  -0.07  -0.10     0.01   0.25   0.20
    24   1    -0.00   0.39   0.05     0.05  -0.03  -0.06    -0.09  -0.25   0.06
                      7                      8                      9
                      A                      A                      A
 Frequencies --    191.2760               211.8799               217.2378
 Red. masses --      1.4046                 1.6086                 1.9401
 Frc consts  --      0.0303                 0.0425                 0.0539
 IR Inten    --      1.7436                 1.2452                 2.0920
  Atom  AN      X      Y      Z        X      Y      Z        X      Y      Z
     1   6     0.03  -0.04  -0.04    -0.01  -0.01   0.03     0.01   0.02  -0.09
     2   6     0.03  -0.02  -0.02    -0.03  -0.01   0.01     0.05   0.02  -0.02
     3   8     0.04   0.03   0.03    -0.05  -0.02  -0.00     0.14   0.04   0.00
     4   6     0.02  -0.02  -0.02    -0.01   0.00   0.03    -0.01  -0.01  -0.06
     5   6    -0.08   0.01   0.03     0.05   0.04  -0.06    -0.03  -0.03   0.02
     6   1    -0.25   0.09  -0.05    -0.21   0.41  -0.30    -0.13   0.07  -0.05
     7   1    -0.09   0.04   0.23    -0.01  -0.06   0.37    -0.03  -0.01   0.16
     8   1     0.03  -0.06  -0.04     0.40  -0.20  -0.34     0.06  -0.11  -0.07
     9   7    -0.00  -0.03   0.00     0.01   0.02   0.07     0.01  -0.06   0.05
    10   1     0.01  -0.04  -0.01     0.05   0.08   0.12     0.12  -0.09   0.04
    11   1    -0.01  -0.08  -0.02    -0.00   0.03   0.10    -0.03  -0.10   0.14
    12  17    -0.05   0.03   0.02     0.06  -0.03  -0.06    -0.03  -0.01   0.03
    13   6     0.03  -0.02  -0.02    -0.05   0.04   0.06    -0.07  -0.01  -0.05
    14   1     0.08  -0.06  -0.04     0.09  -0.05  -0.01     0.22  -0.20  -0.20
    15   1    -0.03  -0.06  -0.02    -0.24  -0.00   0.01    -0.43  -0.15  -0.12
    16   1     0.04   0.03   0.01    -0.04   0.17   0.20    -0.03   0.27   0.16
    17   6     0.03   0.00  -0.01    -0.02  -0.02   0.02    -0.01   0.11  -0.02
    18   1     0.06  -0.15  -0.14    -0.02  -0.05  -0.02    -0.04   0.26   0.11
    19   1     0.19   0.10   0.10     0.02   0.01   0.04    -0.14   0.01   0.01
    20   1    -0.17   0.09   0.03    -0.08  -0.01   0.04     0.13   0.15  -0.10
    21   6     0.04  -0.01  -0.02    -0.02  -0.00  -0.02    -0.02  -0.05   0.05
    22   1    -0.14  -0.09   0.43    -0.05  -0.01   0.05     0.02  -0.01  -0.16
    23   1     0.04  -0.32  -0.33    -0.03  -0.05  -0.08     0.03   0.06   0.26
    24   1     0.20   0.44  -0.10     0.03   0.06  -0.03    -0.15  -0.27   0.09
                     10                     11                     12
                      A                      A                      A
 Frequencies --    233.6808               280.5171               301.5569
 Red. masses --      2.9031                 1.3914                 2.4030
 Frc consts  --      0.0934                 0.0645                 0.1287
 IR Inten    --     23.4569                 1.2858                 3.3348
  Atom  AN      X      Y      Z        X      Y      Z        X      Y      Z
     1   6    -0.03   0.08  -0.04    -0.00  -0.03  -0.06     0.01  -0.00  -0.04
     2   6    -0.00   0.01  -0.02    -0.01  -0.01  -0.02     0.04   0.00  -0.02
     3   8     0.08  -0.01  -0.02    -0.01   0.01  -0.00     0.10   0.01  -0.00
     4   6    -0.04   0.09  -0.00     0.02   0.01  -0.05    -0.02  -0.03   0.00
     5   6     0.02   0.01   0.01    -0.01   0.03   0.03     0.03  -0.06  -0.13
     6   1     0.12  -0.14   0.11    -0.21   0.14  -0.08     0.05   0.10  -0.19
     7   1     0.02  -0.02  -0.14    -0.01   0.10   0.24    -0.02  -0.19  -0.06
     8   1    -0.06   0.12   0.13     0.08  -0.06  -0.08     0.16  -0.13  -0.21
     9   7    -0.03   0.05  -0.06     0.08  -0.04   0.04    -0.09  -0.00  -0.03
    10   1    -0.10   0.04  -0.08     0.23  -0.07   0.03    -0.21   0.07   0.01
    11   1    -0.00   0.11  -0.09     0.02  -0.12   0.15    -0.04   0.06  -0.14
    12  17     0.11  -0.06   0.08     0.02  -0.00   0.03    -0.08  -0.05   0.02
    13   6    -0.10   0.08  -0.01    -0.01   0.01  -0.05    -0.00   0.15   0.13
    14   1    -0.06   0.06  -0.04    -0.39   0.26   0.12    -0.22   0.28   0.42
    15   1    -0.17   0.07  -0.03     0.42   0.19   0.03     0.28   0.44   0.07
    16   1    -0.10   0.13   0.05    -0.07  -0.37  -0.27    -0.03  -0.02   0.02
    17   6    -0.09  -0.04  -0.14    -0.07   0.02  -0.02     0.09   0.04  -0.01
    18   1    -0.06  -0.26  -0.41    -0.09   0.09  -0.01     0.12   0.01   0.04
    19   1     0.12   0.11  -0.11    -0.12  -0.03   0.03     0.13   0.06   0.01
    20   1    -0.38  -0.09   0.01    -0.05   0.04  -0.04     0.10   0.11  -0.05
    21   6    -0.08  -0.07   0.07    -0.03  -0.02   0.03     0.02  -0.02   0.03
    22   1    -0.22  -0.11   0.28    -0.03  -0.01   0.00     0.02  -0.02   0.02
    23   1    -0.00  -0.28  -0.00    -0.00  -0.01   0.09     0.04  -0.02   0.06
    24   1    -0.08   0.13   0.04    -0.10  -0.05   0.03    -0.02  -0.03   0.03
                     13                     14                     15
                      A                      A                      A
 Frequencies --    330.6843               354.0527               365.0722
 Red. masses --      2.9484                 3.5750                 2.9707
 Frc consts  --      0.1900                 0.2640                 0.2333
 IR Inten    --      3.6633                32.7198                 5.4365
  Atom  AN      X      Y      Z        X      Y      Z        X      Y      Z
     1   6     0.01   0.16   0.10     0.02  -0.10  -0.06    -0.04  -0.00  -0.03
     2   6     0.03   0.06   0.02     0.03  -0.07  -0.00    -0.09   0.04  -0.07
     3   8     0.11  -0.01  -0.04     0.01  -0.01   0.05    -0.02   0.06  -0.05
     4   6    -0.04   0.04   0.09     0.01   0.01   0.01    -0.03  -0.01   0.02
     5   6     0.04   0.03   0.02    -0.00   0.20   0.14     0.02   0.08   0.06
     6   1     0.10   0.10   0.01    -0.16  -0.05   0.19    -0.03   0.05   0.05
     7   1     0.03  -0.02  -0.01     0.04   0.34   0.18     0.03   0.12   0.08
     8   1     0.04  -0.01  -0.03    -0.06   0.34   0.28    -0.00   0.08   0.06
     9   7    -0.02   0.03   0.11     0.13   0.14  -0.11     0.04   0.04   0.03
    10   1     0.05   0.04   0.12    -0.03   0.17  -0.11     0.08   0.04   0.04
    11   1    -0.05   0.05   0.19     0.18   0.16  -0.23     0.02   0.04   0.08
    12  17    -0.05  -0.01  -0.08    -0.06  -0.11  -0.06    -0.02  -0.08  -0.00
    13   6    -0.10  -0.16  -0.04    -0.14   0.03   0.04     0.24   0.00   0.02
    14   1    -0.35   0.03  -0.15    -0.19   0.07   0.04     0.44  -0.15   0.12
    15   1     0.13  -0.24   0.12    -0.22   0.11  -0.04     0.27  -0.06   0.08
    16   1    -0.15  -0.45  -0.21    -0.18  -0.01   0.18     0.33   0.22  -0.13
    17   6     0.12  -0.00  -0.04     0.05  -0.00   0.03     0.09   0.02  -0.02
    18   1     0.17  -0.18  -0.13     0.06   0.03   0.12     0.14  -0.07   0.01
    19   1     0.24   0.12  -0.20     0.04  -0.02   0.08     0.17   0.08  -0.02
    20   1     0.05  -0.13   0.05     0.10   0.09  -0.03     0.07   0.07  -0.04
    21   6    -0.02  -0.05   0.04     0.07  -0.00   0.02    -0.20  -0.03   0.02
    22   1    -0.14  -0.06   0.07     0.16   0.01   0.02    -0.29  -0.03   0.03
    23   1     0.03  -0.17   0.03     0.03   0.08   0.04    -0.10  -0.11   0.13
    24   1     0.00  -0.03   0.04     0.04   0.01   0.02    -0.31  -0.04   0.03
                     16                     17                     18
                      A                      A                      A
 Frequencies --    371.5503               466.7161               500.6562
 Red. masses --      3.4268                 3.1941                 3.0926
 Frc consts  --      0.2787                 0.4099                 0.4567
 IR Inten    --     16.9481                24.5278                77.1436
  Atom  AN      X      Y      Z        X      Y      Z        X      Y      Z
     1   6    -0.01  -0.10  -0.06     0.08  -0.10  -0.07     0.12   0.09   0.13
     2   6    -0.06  -0.05  -0.01     0.03   0.02  -0.14     0.06   0.17   0.05
     3   8    -0.08  -0.01   0.03     0.09   0.11  -0.08    -0.09   0.03  -0.11
     4   6    -0.01  -0.03  -0.02     0.01  -0.07   0.16     0.17  -0.12  -0.10
     5   6    -0.03  -0.03  -0.01    -0.01   0.02  -0.01    -0.01  -0.02  -0.01
     6   1    -0.06  -0.08  -0.00     0.01  -0.01   0.01    -0.06  -0.05  -0.01
     7   1    -0.03  -0.00  -0.01    -0.01   0.03  -0.06     0.01   0.05   0.04
     8   1    -0.04  -0.00   0.02    -0.05   0.03   0.01    -0.00   0.01   0.02
     9   7     0.00  -0.03  -0.07    -0.02   0.01  -0.00     0.07  -0.03  -0.07
    10   1    -0.04  -0.03  -0.08    -0.32   0.16   0.08     0.07  -0.05  -0.09
    11   1     0.02  -0.03  -0.12     0.11   0.06  -0.33     0.08  -0.07  -0.10
    12  17     0.08   0.12  -0.01     0.04   0.05  -0.03    -0.05  -0.00   0.01
    13   6    -0.12   0.00  -0.01    -0.02  -0.15   0.19    -0.02   0.02   0.02
    14   1    -0.18   0.05  -0.06    -0.08  -0.10   0.13    -0.06   0.05   0.08
    15   1    -0.18   0.04  -0.06     0.02  -0.18   0.22    -0.20   0.22  -0.18
    16   1    -0.16  -0.07   0.10    -0.03  -0.23   0.15    -0.08   0.02   0.31
    17   6     0.25   0.01   0.04    -0.11  -0.02   0.02    -0.02  -0.04   0.05
    18   1     0.34  -0.14   0.23    -0.20   0.18  -0.07    -0.08   0.01  -0.14
    19   1     0.38   0.11   0.08    -0.24  -0.16   0.21    -0.07  -0.08   0.02
    20   1     0.29   0.20  -0.07    -0.17   0.01   0.03    -0.11  -0.19   0.16
    21   6    -0.14  -0.09   0.10    -0.07   0.02  -0.01    -0.05  -0.05   0.04
    22   1    -0.16  -0.09   0.10    -0.08   0.01   0.04    -0.46  -0.07  -0.05
    23   1    -0.05  -0.12   0.22     0.05  -0.01   0.17     0.17  -0.35   0.13
    24   1    -0.26  -0.10   0.10    -0.30   0.04  -0.01    -0.06  -0.18   0.06
                     19                     20                     21
                      A                      A                      A
 Frequencies --    566.2534               614.1240               658.9735
 Red. masses --      3.5939                 3.2456                 2.8423
 Frc consts  --      0.6790                 0.7212                 0.7272
 IR Inten    --     83.7797                11.6747                43.3579
  Atom  AN      X      Y      Z        X      Y      Z        X      Y      Z
     1   6    -0.10  -0.03   0.04     0.01   0.01   0.14    -0.02   0.19   0.10
     2   6    -0.11   0.12   0.12    -0.01  -0.12  -0.18    -0.01  -0.14  -0.10
     3   8     0.23  -0.06  -0.02     0.11   0.08   0.01    -0.03   0.02   0.06
     4   6    -0.12  -0.15  -0.06     0.08   0.06  -0.04    -0.05  -0.17  -0.06
     5   6     0.00   0.01   0.01    -0.00  -0.01  -0.00     0.00   0.00   0.00
     6   1    -0.14  -0.09   0.01     0.05   0.02  -0.00    -0.11  -0.08   0.00
     7   1     0.01   0.08   0.12    -0.02  -0.07  -0.02    -0.00   0.02   0.09
     8   1     0.02   0.07   0.07     0.03  -0.02  -0.02     0.05   0.06   0.06
     9   7     0.08  -0.01  -0.09    -0.03   0.02   0.01     0.05   0.00  -0.08
    10   1     0.23  -0.05  -0.10     0.12  -0.07  -0.04     0.25  -0.05  -0.09
    11   1     0.00  -0.02   0.12    -0.09  -0.02   0.15    -0.05  -0.03   0.17
    12  17     0.03   0.04   0.00    -0.01  -0.02   0.01     0.01   0.03  -0.00
    13   6    -0.04  -0.02   0.04    -0.02   0.09  -0.12    -0.00  -0.09   0.11
    14   1    -0.04  -0.04   0.28    -0.10   0.15  -0.20     0.05  -0.16   0.38
    15   1     0.03   0.17  -0.05    -0.11   0.10  -0.17     0.01   0.14  -0.04
    16   1    -0.02   0.05   0.03    -0.06  -0.00   0.02     0.02   0.04   0.16
    17   6    -0.01  -0.06   0.07     0.01  -0.14   0.20    -0.01   0.10  -0.08
    18   1     0.03  -0.13   0.15     0.00  -0.16   0.14     0.00   0.03  -0.15
    19   1     0.04  -0.02   0.05     0.01  -0.13   0.11    -0.00   0.15  -0.27
    20   1     0.02  -0.04   0.05     0.01  -0.23   0.24    -0.01  -0.08   0.00
    21   6    -0.10   0.10  -0.10    -0.10   0.03  -0.08     0.02  -0.04  -0.01
    22   1    -0.21   0.12  -0.27     0.21   0.03   0.15     0.40  -0.04   0.21
    23   1    -0.28   0.10  -0.41    -0.09   0.21   0.13    -0.04   0.19   0.12
    24   1     0.31  -0.01  -0.09    -0.47   0.25  -0.10    -0.24   0.18  -0.04
                     22                     23                     24
                      A                      A                      A
 Frequencies --    717.6768               776.5548               938.9914
 Red. masses --      2.1416                 1.8361                 1.8281
 Frc consts  --      0.6499                 0.6524                 0.9497
 IR Inten    --     29.0851               109.0232                48.9717
  Atom  AN      X      Y      Z        X      Y      Z        X      Y      Z
     1   6     0.02   0.04   0.03     0.04  -0.05  -0.03     0.13   0.00  -0.00
     2   6    -0.05  -0.06   0.05     0.01  -0.01   0.03     0.07  -0.04   0.04
     3   8     0.03  -0.07   0.08     0.00  -0.04   0.04    -0.02  -0.05   0.05
     4   6     0.15   0.00  -0.02     0.13   0.08   0.04    -0.08  -0.04   0.03
     5   6    -0.00  -0.01  -0.00    -0.01  -0.02  -0.01     0.00   0.02  -0.00
     6   1     0.03   0.09  -0.04     0.06  -0.09   0.04    -0.01  -0.05   0.02
     7   1     0.05   0.14  -0.05    -0.08  -0.24   0.01    -0.02  -0.06   0.02
     8   1    -0.14  -0.10  -0.08     0.19   0.09   0.07     0.06   0.06   0.04
     9   7     0.05  -0.05   0.07    -0.07   0.07  -0.08    -0.02  -0.00  -0.00
    10   1    -0.44   0.08   0.11     0.49  -0.11  -0.15     0.02   0.09   0.09
    11   1     0.27   0.03  -0.48    -0.30  -0.14   0.43    -0.04  -0.04   0.04
    12  17    -0.01  -0.01   0.00    -0.01  -0.01  -0.00     0.00   0.00  -0.00
    13   6     0.02   0.00  -0.00     0.03  -0.04   0.08    -0.08   0.03  -0.06
    14   1    -0.08   0.08  -0.13    -0.10   0.06  -0.08     0.13  -0.13   0.13
    15   1    -0.09   0.00  -0.05    -0.09  -0.08   0.06     0.15   0.05   0.02
    16   1    -0.04  -0.13   0.14    -0.04  -0.19   0.27     0.03   0.26  -0.35
    17   6     0.00   0.07  -0.08     0.01   0.04  -0.06     0.10   0.02  -0.01
    18   1    -0.00   0.08  -0.13    -0.02   0.10  -0.09    -0.11   0.35  -0.40
    19   1     0.00   0.09  -0.15    -0.02   0.00   0.02    -0.19  -0.25   0.24
    20   1     0.01   0.04  -0.07    -0.01   0.09  -0.07    -0.19  -0.12   0.18
    21   6    -0.14   0.05  -0.06    -0.08   0.04  -0.03    -0.06   0.05  -0.06
    22   1    -0.02   0.06  -0.07    -0.12   0.04  -0.08    -0.20   0.04  -0.04
    23   1    -0.29   0.18  -0.19    -0.11   0.04  -0.09     0.01  -0.01   0.02
    24   1    -0.05   0.09  -0.07    -0.03   0.01  -0.03    -0.22   0.04  -0.06
                     25                     26                     27
                      A                      A                      A
 Frequencies --    974.1657              1005.4039              1018.7923
 Red. masses --      1.4962                 1.0995                 1.5831
 Frc consts  --      0.8366                 0.6548                 0.9681
 IR Inten    --     74.1727                21.7038                 2.1067
  Atom  AN      X      Y      Z        X      Y      Z        X      Y      Z
     1   6     0.04  -0.01   0.00     0.01  -0.00  -0.00     0.00   0.02   0.01
     2   6    -0.09   0.03  -0.03    -0.00   0.02   0.01     0.00   0.12   0.11
     3   8     0.00   0.04  -0.05    -0.00  -0.00  -0.00     0.00  -0.02  -0.02
     4   6     0.01  -0.02   0.01    -0.01   0.02  -0.00     0.01  -0.02  -0.01
     5   6    -0.00   0.01  -0.00     0.03  -0.06   0.00    -0.01  -0.00  -0.02
     6   1     0.04  -0.02   0.03    -0.21   0.04  -0.12    -0.02  -0.09   0.02
     7   1    -0.03  -0.08  -0.00     0.15   0.38   0.02    -0.03  -0.06   0.03
     8   1     0.07   0.05   0.03    -0.34  -0.19  -0.09     0.07   0.07   0.05
     9   7    -0.01   0.00   0.00    -0.01   0.01  -0.02     0.02   0.00  -0.00
    10   1     0.03   0.05   0.06    -0.12  -0.17  -0.18     0.04   0.11   0.09
    11   1    -0.03  -0.10  -0.02    -0.00   0.56   0.36     0.01  -0.08  -0.04
    12  17    -0.00  -0.00   0.00    -0.00  -0.00   0.00    -0.00  -0.00   0.00
    13   6     0.01   0.01  -0.02     0.02  -0.00   0.01    -0.01   0.04   0.02
    14   1    -0.03   0.05  -0.05    -0.03   0.03  -0.03     0.03   0.03  -0.16
    15   1    -0.04   0.04  -0.06    -0.02  -0.02   0.01     0.02  -0.16   0.16
    16   1    -0.01  -0.02   0.04    -0.01  -0.05   0.08    -0.01  -0.04  -0.11
    17   6     0.06  -0.00   0.00     0.03  -0.01  -0.01    -0.01  -0.05  -0.05
    18   1    -0.09   0.24  -0.27    -0.04   0.12  -0.09    -0.00   0.06   0.17
    19   1    -0.13  -0.17   0.14    -0.05  -0.10   0.13     0.07  -0.07   0.27
    20   1    -0.13  -0.06   0.11    -0.07   0.03   0.01    -0.02   0.29  -0.21
    21   6    -0.02  -0.10   0.10    -0.00  -0.02  -0.01    -0.00  -0.09  -0.09
    22   1     0.43  -0.05   0.00     0.07  -0.02   0.04     0.39  -0.11   0.28
    23   1    -0.40   0.22  -0.26    -0.02   0.04   0.01    -0.03   0.20   0.18
    24   1     0.45   0.01   0.08    -0.03   0.04  -0.01    -0.38   0.28  -0.13
                     28                     29                     30
                      A                      A                      A
 Frequencies --   1040.8795              1049.0549              1057.1539
 Red. masses --      1.4697                 1.5622                 1.5100
 Frc consts  --      0.9382                 1.0130                 0.9943
 IR Inten    --     38.0648                37.4629                 1.2691
  Atom  AN      X      Y      Z        X      Y      Z        X      Y      Z
     1   6    -0.04  -0.03   0.04     0.02   0.04  -0.00     0.01   0.09   0.07
     2   6    -0.03  -0.01  -0.02     0.02  -0.05  -0.04     0.01  -0.07  -0.06
     3   8     0.01  -0.00   0.01    -0.01   0.01   0.00    -0.00   0.01   0.01
     4   6    -0.05  -0.08   0.06     0.04  -0.03  -0.09    -0.00   0.00   0.02
     5   6     0.00  -0.01  -0.05    -0.02  -0.06  -0.04     0.00   0.00   0.00
     6   1    -0.21  -0.31   0.00    -0.15  -0.20  -0.02    -0.01  -0.01   0.00
     7   1    -0.00   0.01   0.14    -0.01   0.03   0.08     0.00  -0.01   0.00
     8   1     0.06   0.19   0.15    -0.02   0.06   0.08     0.01   0.01   0.00
     9   7     0.01  -0.02   0.00     0.03   0.03  -0.00     0.00  -0.01   0.00
    10   1    -0.03   0.36   0.32     0.03   0.17   0.11    -0.01   0.02   0.02
    11   1    -0.02   0.08   0.14     0.03   0.12   0.09     0.00  -0.01   0.00
    12  17     0.00   0.00   0.00    -0.00  -0.00   0.00    -0.00   0.00  -0.00
    13   6     0.09   0.07  -0.04    -0.06   0.08   0.09     0.00  -0.02  -0.03
    14   1    -0.17   0.28  -0.36     0.17  -0.05  -0.26    -0.02  -0.01   0.08
    15   1    -0.21  -0.03  -0.11     0.13  -0.43   0.50    -0.00   0.10  -0.11
    16   1    -0.03  -0.21   0.18    -0.01  -0.06  -0.36     0.01   0.04   0.04
    17   6     0.02   0.04  -0.03    -0.02  -0.02   0.03    -0.01  -0.10  -0.09
    18   1    -0.02   0.09  -0.12     0.02  -0.07   0.07    -0.03   0.14   0.27
    19   1    -0.04  -0.00  -0.04     0.04   0.03  -0.03     0.11  -0.14   0.52
    20   1    -0.04  -0.02   0.02     0.03  -0.02   0.01    -0.07   0.52  -0.37
    21   6     0.04   0.03  -0.01    -0.03   0.02   0.05    -0.00   0.05   0.04
    22   1    -0.12   0.01   0.00    -0.08   0.04  -0.12    -0.17   0.06  -0.14
    23   1     0.18  -0.11   0.09    -0.12  -0.01  -0.14    -0.00  -0.08  -0.09
    24   1    -0.04  -0.06   0.01     0.19  -0.08   0.05     0.18  -0.12   0.06
                     31                     32                     33
                      A                      A                      A
 Frequencies --   1081.6302              1103.7144              1146.6793
 Red. masses --      1.6025                 2.9822                 2.5692
 Frc consts  --      1.1046                 2.1404                 1.9904
 IR Inten    --     49.6500                56.3380                36.4211
  Atom  AN      X      Y      Z        X      Y      Z        X      Y      Z
     1   6    -0.04   0.01   0.03    -0.09  -0.01   0.02     0.11  -0.04   0.04
     2   6    -0.05  -0.01  -0.02    -0.09   0.00  -0.02     0.13  -0.01   0.01
     3   8     0.01  -0.00   0.01     0.02  -0.01   0.01    -0.02   0.02  -0.02
     4   6    -0.04  -0.06  -0.05    -0.02   0.03  -0.02    -0.08  -0.16   0.17
     5   6     0.04   0.10   0.08    -0.17  -0.17  -0.02    -0.06  -0.04   0.06
     6   1     0.25   0.36   0.04     0.12   0.05  -0.01     0.15   0.25   0.01
     7   1     0.04   0.03  -0.12    -0.19  -0.32  -0.19    -0.06  -0.10  -0.20
     8   1     0.04  -0.09  -0.11    -0.08  -0.31  -0.16    -0.08  -0.28  -0.18
     9   7    -0.04  -0.06  -0.04     0.17   0.21   0.06     0.05   0.08  -0.03
    10   1     0.00  -0.35  -0.28     0.23  -0.05  -0.16     0.14  -0.17  -0.22
    11   1    -0.04  -0.18  -0.14     0.24  -0.06  -0.27     0.02   0.07   0.04
    12  17     0.00   0.00   0.00     0.00  -0.01  -0.00    -0.00  -0.00  -0.00
    13   6     0.03   0.07   0.06     0.01  -0.01   0.02     0.03   0.09  -0.07
    14   1    -0.02   0.15  -0.34    -0.02   0.01   0.01    -0.08   0.19  -0.31
    15   1    -0.09  -0.28   0.23    -0.02  -0.01   0.01    -0.11   0.01  -0.08
    16   1    -0.03  -0.22  -0.02    -0.00  -0.04   0.05     0.01   0.03  -0.14
    17   6     0.05   0.00  -0.02     0.08   0.00  -0.01    -0.09   0.04  -0.04
    18   1    -0.04   0.15  -0.13    -0.06   0.23  -0.23     0.06  -0.21   0.20
    19   1    -0.07  -0.12   0.12    -0.11  -0.17   0.14     0.10   0.20  -0.17
    20   1    -0.10   0.01   0.04    -0.15  -0.01   0.08     0.14   0.03  -0.12
    21   6     0.04   0.02  -0.01     0.06   0.02  -0.02    -0.07  -0.02   0.02
    22   1    -0.09   0.01   0.01    -0.07  -0.00   0.05     0.04   0.01  -0.09
    23   1     0.15  -0.09   0.07     0.23  -0.13   0.14    -0.25   0.13  -0.16
    24   1    -0.02  -0.06   0.01    -0.05  -0.06   0.00     0.06   0.07   0.00
                     34                     35                     36
                      A                      A                      A
 Frequencies --   1167.8166              1237.6289              1319.3881
 Red. masses --      3.0314                 1.3820                 1.3392
 Frc consts  --      2.4358                 1.2472                 1.3735
 IR Inten    --      2.3839                50.4019                 4.2491
  Atom  AN      X      Y      Z        X      Y      Z        X      Y      Z
     1   6     0.00  -0.18   0.20     0.00  -0.00  -0.00     0.00   0.03  -0.03
     2   6    -0.18   0.02  -0.03    -0.02   0.00   0.00    -0.02   0.00  -0.00
     3   8     0.05   0.03  -0.03     0.00  -0.00  -0.00    -0.00  -0.01   0.01
     4   6     0.16  -0.04   0.09     0.02   0.02  -0.02     0.01  -0.00   0.00
     5   6     0.03  -0.01   0.01    -0.09   0.04   0.06     0.06  -0.07   0.10
     6   1    -0.02   0.02  -0.02     0.35   0.23   0.13    -0.14   0.30  -0.13
     7   1     0.06   0.12   0.02    -0.16  -0.24  -0.22     0.17   0.23  -0.18
     8   1    -0.04  -0.01   0.00     0.19  -0.14  -0.15    -0.28  -0.26  -0.05
     9   7    -0.03  -0.00  -0.03     0.06  -0.08  -0.08    -0.03   0.04  -0.07
    10   1     0.04  -0.06  -0.06    -0.21   0.37   0.28     0.18   0.49   0.34
    11   1    -0.08   0.02   0.11     0.00   0.39   0.40    -0.15  -0.40  -0.06
    12  17    -0.00   0.00  -0.00    -0.00   0.00   0.00    -0.00   0.00   0.00
    13   6    -0.13   0.04  -0.05    -0.01  -0.01   0.00     0.00  -0.00   0.00
    14   1     0.20  -0.19   0.05     0.03  -0.04   0.05    -0.02   0.01   0.01
    15   1     0.26   0.07   0.09     0.05  -0.00   0.02    -0.01   0.00  -0.01
    16   1     0.02   0.32  -0.42    -0.01  -0.01   0.05     0.01   0.02  -0.01
    17   6    -0.03   0.08  -0.09    -0.00  -0.00   0.00    -0.00  -0.01   0.02
    18   1    -0.03   0.09  -0.13    -0.01   0.02  -0.01    -0.01   0.01   0.01
    19   1     0.05   0.18  -0.24     0.02   0.01  -0.02     0.02   0.01  -0.00
    20   1     0.07   0.20  -0.20     0.01   0.01  -0.01     0.00  -0.01   0.01
    21   6     0.05   0.01  -0.01     0.00   0.00  -0.00     0.00   0.00  -0.01
    22   1     0.04  -0.02   0.11     0.00  -0.00   0.01     0.02   0.00   0.03
    23   1     0.23  -0.14   0.16     0.02  -0.01   0.02     0.03  -0.02   0.02
    24   1     0.04  -0.10   0.02     0.00  -0.01  -0.00     0.02  -0.02  -0.00
                     37                     38                     39
                      A                      A                      A
 Frequencies --   1346.5632              1378.8989              1400.6715
 Red. masses --      1.5915                 1.9323                 1.4628
 Frc consts  --      1.7002                 2.1646                 1.6908
 IR Inten    --     33.3009                14.1927               164.2841
  Atom  AN      X      Y      Z        X      Y      Z        X      Y      Z
     1   6     0.10   0.07  -0.09    -0.01  -0.11   0.12    -0.10  -0.01   0.02
     2   6    -0.08   0.01  -0.01     0.12  -0.03   0.04     0.11   0.00  -0.00
     3   8     0.00  -0.03   0.03    -0.00   0.04  -0.04    -0.01   0.01  -0.01
     4   6     0.00  -0.03   0.03    -0.09   0.06  -0.08     0.01   0.01  -0.01
     5   6    -0.01   0.01  -0.01     0.02   0.00   0.01    -0.01  -0.00  -0.00
     6   1     0.02  -0.04   0.02    -0.10   0.02  -0.04     0.02   0.01   0.00
     7   1    -0.02  -0.03   0.02    -0.01  -0.09  -0.04     0.01   0.06  -0.00
     8   1     0.02   0.02  -0.01    -0.09  -0.01   0.01     0.06   0.02   0.01
     9   7    -0.00   0.01   0.01     0.00   0.00   0.01     0.01  -0.01  -0.01
    10   1    -0.00  -0.08  -0.07    -0.00   0.06   0.05    -0.01   0.00   0.00
    11   1     0.01   0.07   0.03     0.01  -0.07  -0.07     0.01  -0.01  -0.01
    12  17    -0.00  -0.00  -0.00     0.00  -0.00   0.00     0.00   0.00   0.00
    13   6     0.01   0.00   0.00     0.01   0.04  -0.05     0.01  -0.06   0.06
    14   1    -0.02   0.03  -0.08     0.12  -0.09   0.43    -0.29   0.18  -0.24
    15   1    -0.02   0.05  -0.04    -0.04  -0.31   0.16    -0.06   0.10  -0.07
    16   1     0.02   0.02  -0.05    -0.15  -0.34   0.34     0.17   0.39  -0.24
    17   6    -0.03  -0.02   0.03     0.00   0.02  -0.02     0.03  -0.05   0.07
    18   1     0.00  -0.08   0.06    -0.05   0.10  -0.13    -0.15   0.22  -0.32
    19   1     0.04   0.02   0.04     0.04   0.06  -0.10     0.01   0.05  -0.36
    20   1     0.07  -0.04   0.00     0.04   0.11  -0.08    -0.03   0.38  -0.14
    21   6    -0.09   0.06  -0.06    -0.10   0.03  -0.03    -0.06   0.01  -0.01
    22   1     0.42   0.02   0.36     0.27   0.03   0.15     0.16   0.03  -0.03
    23   1     0.32  -0.30   0.30     0.07  -0.14   0.11     0.03  -0.10   0.05
    24   1     0.43  -0.35   0.00     0.26  -0.15  -0.01     0.13   0.02  -0.01
                     40                     41                     42
                      A                      A                      A
 Frequencies --   1408.1599              1417.8802              1433.2496
 Red. masses --      1.5272                 1.1125                 1.2432
 Frc consts  --      1.7842                 1.3178                 1.5047
 IR Inten    --     96.0965                12.4093                93.2878
  Atom  AN      X      Y      Z        X      Y      Z        X      Y      Z
     1   6    -0.09  -0.05   0.05    -0.02  -0.01   0.01    -0.05   0.02  -0.02
     2   6     0.08   0.00  -0.00     0.03  -0.01   0.02     0.03   0.00  -0.00
     3   8    -0.00   0.02  -0.02    -0.00   0.01  -0.01    -0.00  -0.00   0.00
     4   6     0.03   0.02  -0.02    -0.02   0.02  -0.01     0.02  -0.02   0.05
     5   6    -0.01  -0.01   0.00     0.01   0.02   0.01    -0.06  -0.08  -0.03
     6   1     0.07   0.04   0.00    -0.11  -0.11   0.02     0.46   0.16   0.05
     7   1     0.02   0.08   0.03    -0.01  -0.09  -0.07     0.12   0.59   0.23
     8   1     0.04   0.02   0.02    -0.05  -0.09  -0.09     0.33   0.13   0.14
     9   7     0.00  -0.01  -0.01    -0.00   0.00   0.00    -0.01  -0.00  -0.01
    10   1    -0.00   0.06   0.05     0.00   0.02   0.02     0.06   0.01   0.00
    11   1    -0.00  -0.01   0.00    -0.00  -0.01  -0.00    -0.01  -0.02  -0.03
    12  17     0.00  -0.00   0.00     0.00  -0.00   0.00     0.00   0.00  -0.00
    13   6    -0.01  -0.04   0.04    -0.02  -0.00   0.07    -0.01   0.04  -0.03
    14   1    -0.16   0.09  -0.15     0.42  -0.26  -0.39     0.21  -0.13   0.08
    15   1     0.02   0.07  -0.02     0.06   0.51  -0.25     0.02   0.04  -0.02
    16   1     0.10   0.27  -0.12    -0.08  -0.42  -0.15    -0.09  -0.24   0.04
    17   6     0.02   0.08  -0.11     0.01   0.00  -0.00     0.02  -0.01   0.01
    18   1     0.21  -0.15   0.41    -0.00   0.02  -0.01     0.00   0.02   0.01
    19   1    -0.15  -0.16   0.36    -0.01  -0.01  -0.03    -0.05  -0.04  -0.09
    20   1    -0.23  -0.40   0.26    -0.03   0.03   0.00    -0.10   0.07   0.01
    21   6    -0.05   0.01  -0.01    -0.01   0.00  -0.01    -0.01   0.00   0.00
    22   1     0.17   0.01   0.10     0.03   0.00   0.03     0.07   0.01  -0.02
    23   1     0.02  -0.07   0.02    -0.00  -0.01   0.00     0.01  -0.05  -0.02
    24   1     0.14  -0.11   0.00     0.02  -0.03  -0.00     0.01  -0.00  -0.00
                     43                     44                     45
                      A                      A                      A
 Frequencies --   1438.1374              1449.3427              1457.8788
 Red. masses --      1.0572                 1.3636                 1.0765
 Frc consts  --      1.2883                 1.6877                 1.3481
 IR Inten    --     27.6094               115.8799                38.7279
  Atom  AN      X      Y      Z        X      Y      Z        X      Y      Z
     1   6     0.00   0.00   0.00     0.07  -0.04   0.05    -0.04   0.01  -0.00
     2   6     0.01  -0.01   0.01    -0.02  -0.02   0.01     0.02  -0.01  -0.01
     3   8    -0.00   0.02  -0.02     0.01   0.01  -0.01    -0.00   0.00   0.00
     4   6    -0.00   0.00  -0.00    -0.06   0.05  -0.07     0.01  -0.02   0.01
     5   6    -0.00  -0.00  -0.00    -0.02  -0.03  -0.01    -0.00   0.00   0.00
     6   1     0.01   0.00   0.00     0.17   0.10   0.00    -0.02  -0.05   0.02
     7   1     0.01   0.03  -0.00     0.04   0.20   0.09     0.02   0.05  -0.04
     8   1     0.03   0.01   0.01     0.10   0.07   0.08     0.06  -0.03  -0.04
     9   7    -0.00   0.00   0.00    -0.01  -0.00   0.00    -0.00   0.00  -0.00
    10   1     0.00   0.00   0.00     0.04   0.04   0.05    -0.00  -0.00  -0.00
    11   1    -0.00  -0.00  -0.00     0.01   0.01  -0.04    -0.00  -0.02  -0.01
    12  17    -0.00  -0.00   0.00    -0.00  -0.00   0.00     0.00   0.00  -0.00
    13   6     0.00  -0.01   0.00     0.03  -0.03   0.07    -0.02  -0.00  -0.03
    14   1    -0.04   0.02  -0.02    -0.10   0.06   0.04     0.04  -0.02  -0.20
    15   1     0.00  -0.00   0.00    -0.37   0.06  -0.17     0.38   0.04   0.13
    16   1     0.01   0.04   0.00     0.09  -0.06  -0.36    -0.05   0.13   0.35
    17   6     0.01  -0.00   0.01    -0.04   0.03  -0.01    -0.00   0.01   0.01
    18   1     0.03  -0.07  -0.02    -0.03  -0.11  -0.26     0.03  -0.18  -0.19
    19   1    -0.09  -0.05  -0.10     0.10   0.05   0.29    -0.11  -0.10   0.11
    20   1    -0.05   0.13  -0.03     0.43  -0.12  -0.12     0.16   0.04  -0.07
    21   6     0.04   0.02  -0.03     0.01  -0.02  -0.01    -0.01  -0.03  -0.03
    22   1    -0.21  -0.09   0.59    -0.20  -0.04   0.05    -0.28  -0.05   0.07
    23   1    -0.23   0.28  -0.23    -0.01   0.20   0.18     0.00   0.33   0.38
    24   1    -0.14  -0.58   0.08     0.14   0.07  -0.02     0.36   0.15  -0.06
                     46                     47                     48
                      A                      A                      A
 Frequencies --   1464.3880              1479.4553              1480.3040
 Red. masses --      1.1611                 1.1137                 1.0472
 Frc consts  --      1.4670                 1.4362                 1.3520
 IR Inten    --     41.1815                45.2045                28.4758
  Atom  AN      X      Y      Z        X      Y      Z        X      Y      Z
     1   6     0.05  -0.02   0.02     0.06  -0.02   0.01     0.01  -0.01  -0.00
     2   6    -0.02  -0.01   0.02    -0.02  -0.01   0.00     0.00  -0.01   0.00
     3   8     0.00   0.01  -0.01     0.00   0.00  -0.00     0.00   0.00  -0.00
     4   6    -0.06   0.02  -0.05    -0.03   0.02  -0.03    -0.02   0.00  -0.01
     5   6    -0.02  -0.01   0.00    -0.02   0.00   0.02     0.01  -0.01  -0.03
     6   1     0.05  -0.07   0.05    -0.11  -0.21   0.06     0.29   0.23  -0.03
     7   1     0.05   0.20  -0.03     0.07   0.24  -0.25    -0.08  -0.19   0.46
     8   1     0.17  -0.04  -0.04     0.35  -0.11  -0.14    -0.43   0.11   0.15
     9   7    -0.01   0.01   0.01    -0.01   0.01   0.01     0.01  -0.00  -0.01
    10   1     0.01   0.01   0.01    -0.00  -0.02  -0.01    -0.01   0.03   0.01
    11   1    -0.00  -0.04  -0.05    -0.01  -0.03  -0.02    -0.01  -0.02   0.01
    12  17    -0.00  -0.00   0.00    -0.00  -0.00   0.00     0.00  -0.00   0.00
    13   6    -0.01  -0.03   0.01     0.01  -0.01   0.01    -0.01  -0.01   0.01
    14   1    -0.05   0.04  -0.32    -0.06   0.04  -0.00     0.01  -0.00  -0.14
    15   1     0.37   0.10   0.09    -0.02  -0.01  -0.00     0.13   0.07   0.01
    16   1    -0.01   0.20   0.35     0.02   0.03   0.01    -0.01   0.04   0.10
    17   6    -0.03   0.00  -0.01     0.00  -0.03  -0.02    -0.01  -0.03  -0.01
    18   1    -0.07   0.07  -0.13    -0.08   0.37   0.34    -0.11   0.32   0.14
    19   1     0.19   0.12   0.16     0.24   0.20  -0.21     0.27   0.20  -0.06
    20   1     0.26  -0.13  -0.05    -0.31  -0.08   0.14    -0.09  -0.12   0.08
    21   6     0.01   0.02   0.02     0.00  -0.01  -0.01     0.00  -0.01  -0.01
    22   1     0.20   0.04  -0.05    -0.18  -0.03   0.05    -0.11  -0.02   0.07
    23   1    -0.00  -0.25  -0.29    -0.00   0.18   0.18    -0.02   0.12   0.08
    24   1    -0.28  -0.12   0.04     0.15   0.07  -0.03     0.07  -0.01  -0.01
                     49                     50                     51
                      A                      A                      A
 Frequencies --   1487.0918              1495.1390              1614.5987
 Red. masses --      1.0683                 1.4312                 1.0945
 Frc consts  --      1.3919                 1.8850                 1.6810
 IR Inten    --     39.5019               331.8743                48.4034
  Atom  AN      X      Y      Z        X      Y      Z        X      Y      Z
     1   6     0.03  -0.00   0.01     0.13  -0.03   0.04    -0.00  -0.00  -0.00
     2   6    -0.02  -0.00   0.00    -0.06  -0.02   0.02     0.00   0.00  -0.00
     3   8     0.00   0.00  -0.00     0.01   0.01  -0.01     0.00  -0.00   0.00
     4   6    -0.02   0.01  -0.01    -0.07   0.04  -0.07     0.00  -0.00   0.00
     5   6    -0.01  -0.05   0.00    -0.00  -0.01  -0.01    -0.00   0.01   0.01
     6   1    -0.25   0.48  -0.30     0.19  -0.02   0.06     0.01   0.00   0.03
     7   1    -0.00  -0.09  -0.35    -0.01   0.04   0.23    -0.02  -0.04  -0.00
     8   1     0.13   0.43   0.45    -0.12  -0.06  -0.04    -0.03  -0.04  -0.03
     9   7     0.01  -0.01   0.02    -0.01   0.01   0.00    -0.06  -0.05   0.00
    10   1    -0.01  -0.07  -0.03     0.01   0.06   0.05     0.68   0.05   0.17
    11   1     0.05   0.10   0.01    -0.02  -0.04  -0.02     0.24   0.51  -0.41
    12  17    -0.00  -0.00   0.00    -0.00  -0.00   0.00    -0.00   0.00   0.00
    13   6    -0.00  -0.01   0.01     0.01  -0.03   0.03    -0.00  -0.00  -0.00
    14   1     0.03  -0.02  -0.11    -0.08   0.05  -0.14    -0.00   0.00  -0.00
    15   1     0.08   0.07  -0.01     0.05   0.05  -0.00     0.02  -0.00   0.01
    16   1    -0.01   0.01   0.06     0.03   0.07   0.09    -0.00   0.02   0.02
    17   6     0.00   0.00  -0.00     0.02   0.02   0.00     0.00  -0.00  -0.00
    18   1     0.02  -0.02   0.06     0.19  -0.35   0.17    -0.01   0.02   0.01
    19   1    -0.04  -0.01  -0.07    -0.42  -0.22  -0.33     0.01   0.01  -0.01
    20   1    -0.08   0.04   0.01    -0.32   0.35  -0.04    -0.02   0.01   0.01
    21   6     0.00  -0.00   0.00     0.00  -0.00   0.01     0.00  -0.00   0.00
    22   1    -0.01   0.00  -0.02    -0.00   0.02  -0.14    -0.00  -0.00   0.00
    23   1     0.01   0.00   0.02     0.06  -0.06   0.04    -0.00   0.00  -0.00
    24   1     0.00   0.03  -0.00    -0.02   0.13  -0.02     0.00  -0.00   0.00
[...]
 95259,0.00088607,0.00104666,-0.30045146,-0.06539153,-0.04438194,-0.010
 30982,-0.00706808,-0.00159015,-0.00764615,-0.00058485,-0.00332711,0.31
 986254,0.00009524,-0.00092179,-0.00331038,0.00153689,-0.00213837,-0.00
 127064,0.00217901,0.00241749,0.00098364,-0.01806534,-0.00673191,-0.001
 89889,-0.00008179,0.00016036,0.00005095,0.00001850,-0.00008006,0.00000
 945,0.00000274,-0.00005039,-0.00003216,0.00001030,-0.00004987,-0.00007
 904,0.00010957,-0.00031342,0.00138734,-0.00002421,-0.00006301,0.000074
 35,-0.00008609,0.00026742,0.00003752,-0.00062361,-0.00010263,-0.000001
 98,-0.06075247,-0.06417687,-0.00990663,0.02100743,0.01066095,0.0039946
 5,-0.01388713,-0.00371139,-0.00446004,0.06948596,0.06449564,0.00215789
 ,-0.00304664,-0.00303215,0.00081427,-0.00053527,-0.00075273,0.00041052
 ,0.00008460,0.00157498,-0.02808247,-0.00716666,-0.00698235,-0.00004005
 ,0.00020887,-0.00012729,0.00003258,-0.00000925,0.00002631,0.00005461,-
 0.00012148,0.00012680,0.00000554,0.00000023,0.00001517,-0.00078176,-0.
 00001109,0.00078364,-0.00006088,-0.00018492,0.00028997,0.00069184,0.00
 045829,-0.00132933,-0.00053069,0.00120686,0.00046075,-0.04015966,-0.00
 939467,-0.05445117,-0.00169675,-0.00081266,-0.00194331,0.02297716,0.00
 438933,0.00632280,0.04550047,0.01514449,0.05947074,-0.08592595,-0.0026
 2865,-0.00288997,0.00538587,0.01936555,0.02252339,-0.00577597,0.001503
 05,0.00118071,0.00084242,-0.01929420,-0.02319371,0.00023836,0.00023168
 ,0.00003028,-0.00000797,0.00005156,0.00002238,-0.00005866,-0.00007006,
 -0.00001318,-0.00002640,0.00008212,-0.00003903,0.00040110,0.00076624,0
 .00038409,-0.00049629,-0.00132818,0.00030060,0.00032293,0.00032012,-0.
 00026581,-0.00157099,-0.00070928,-0.00252910,-0.00424421,-0.00013977,-
 0.00003786,-0.00022097,-0.00008338,0.00015936,-0.00001187,0.00007901,-
 0.00006682,-0.00014162,-0.00078020,-0.00114281,0.58943952,-0.00197420,
 -0.12362126,-0.07677285,0.00476956,-0.00981985,-0.01011199,0.00055666,
 0.00385077,-0.00161556,-0.00765492,-0.01542018,-0.00512238,0.00106527,
 -0.00020271,-0.00006268,-0.00023494,0.00018734,-0.00003772,-0.00034328
 ,-0.00095702,-0.00007910,0.00023737,0.00008265,0.00004547,0.00387401,0
 .00354958,-0.00354887,0.00024352,0.00128877,0.00032803,0.00037023,0.00
 063318,-0.00078046,-0.00245369,0.00212355,-0.00009715,0.00035128,0.003
 25973,-0.00125481,0.00011916,0.00018756,0.00031404,-0.00015554,-0.0002
 0677,-0.00052083,0.00030454,0.00058905,-0.00022425,-0.00368236,0.52376
 145,-0.00452123,-0.07462188,-0.15329322,0.00602490,-0.00746877,-0.0119
 2848,-0.00031609,-0.00189576,0.00392805,-0.00986317,-0.00347179,-0.014
 06649,0.00039268,0.00039662,-0.00009910,0.00015417,0.00004437,0.000060
 35,0.00010881,-0.00033099,0.00018017,0.00005148,0.00002642,-0.00001643
 ,-0.00044306,-0.00065611,0.00183614,-0.00009327,-0.00018049,0.00041443
 ,0.00019694,0.00025153,-0.00005194,0.00332361,-0.00457187,-0.00307667,
 -0.00098887,-0.00203979,0.00245115,-0.00010202,-0.00022941,-0.00031074
 ,0.00016360,0.00029267,0.00037181,0.00026756,-0.00061037,-0.00002357,-
 0.00085844,-0.02281582,0.50267431,0.00263425,-0.00068527,0.00007871,0.
 00053549,-0.00022281,-0.00127343,0.00007753,0.00022222,0.00042451,-0.0
 0141479,-0.00114141,0.00029944,0.00004877,-0.00001698,-0.00005839,-0.0
 0001028,0.00004207,-0.00000741,-0.00003933,-0.00005766,0.00005279,0.00
 001291,-0.00002220,0.00000414,0.00024650,0.00017115,-0.00066218,0.0005
 5081,0.00042416,0.00026862,0.00000801,-0.00001447,-0.00012232,-0.00253
 161,-0.00145626,-0.00367259,0.00005154,0.00017563,-0.00008871,-0.00003
 127,0.00001824,0.00004121,-0.00000333,0.00001798,-0.00002706,0.0001475
 5,0.00000546,0.00001750,-0.27872421,0.08931545,0.04868005,0.30030333,0
 .01657337,-0.00735164,-0.00301904,-0.00201816,-0.00256340,-0.00235269,
 0.00130558,-0.00025378,-0.00076143,0.00404753,0.00065444,-0.00102797,0
 .00009370,-0.00006354,0.00013855,-0.00000960,-0.00001979,-0.00002100,0
 .00005586,0.00006692,-0.00008038,-0.00004077,0.00006459,-0.00001679,-0
 .00087369,-0.00076312,0.00057031,-0.00075056,-0.00151759,0.00002259,-0
 .00012240,0.00004348,0.00019190,-0.00057063,0.00111281,0.00112872,0.00
 022695,0.00004559,0.00021777,0.00004795,0.00001126,-0.00000736,0.00001
 248,-0.00000025,0.00002208,-0.00006221,0.00001584,0.00005399,0.0896011
 8,-0.08031097,-0.01850567,-0.09609189,0.08537865,0.02158812,-0.0059353
 0,-0.00431613,-0.00234916,-0.00304532,-0.00357061,0.00165153,-0.000755
 68,-0.00061940,0.00438894,-0.00134156,0.00052642,-0.00000239,0.0001200
 4,-0.00005891,-0.00001320,0.00004068,0.00000240,-0.00000086,0.00003733
 ,-0.00005911,0.00000289,0.00001141,-0.00000770,-0.00103601,-0.00015362
 ,0.00049510,0.00000271,-0.00026944,0.00029961,-0.00004087,-0.00014534,
 0.00016520,-0.00228539,0.00095656,-0.00039359,0.00004943,0.00045299,-0
 .00009130,0.00007332,0.00009281,0.00013099,0.00000566,-0.00004361,-0.0
 0002843,-0.00003418,-0.00004141,0.00002467,0.04542067,-0.01757371,-0.0
 5420847,-0.04876672,0.02283587,0.05745043,0.00145422,0.00071155,-0.002
 69524,-0.00137357,0.00087205,-0.00002835,0.00037816,-0.00037477,-0.000
 11115,0.00024046,-0.00044036,0.00009368,-0.00020612,0.00010381,-0.0000
 6515,0.00001806,-0.00002656,0.00002837,0.00002786,0.00005017,-0.000033
 26,0.00002146,-0.00004554,0.00001369,-0.00018395,-0.00010473,0.0001931
 4,0.00031054,0.00045607,-0.00013160,0.00010458,-0.00000324,-0.00000354
 ,0.00002789,-0.00024844,-0.00059160,-0.00018133,-0.00001125,-0.0000524
 2,0.00003611,0.00003256,0.00003344,-0.00000939,-0.00005123,-0.00000617
 ,-0.00000096,-0.00004779,-0.00006331,-0.13622474,-0.12420957,0.0319689
 1,-0.01462706,-0.02341387,0.00605495,0.14549929,-0.00972477,-0.0133509
 6,-0.00279526,-0.00379250,0.00125893,0.00027285,0.00099232,-0.00058400
 ,-0.00093371,0.00456991,-0.00269583,-0.00078076,0.00000921,0.00019570,
 0.00004834,-0.00000874,-0.00003339,0.00002497,0.00001057,0.00005172,-0
 .00011991,0.00001579,0.00001965,-0.00001478,-0.00059619,-0.00014366,0.
 00063102,-0.00009972,-0.00032867,-0.00002692,0.00001616,0.00005179,0.0
 0009919,-0.00115426,0.00061129,0.00038763,-0.00041824,0.00038362,-0.00
 017050,0.00002142,-0.00000148,0.00008235,-0.00005666,-0.00006963,-0.00
 011087,-0.00005026,-0.00003994,-0.00018763,-0.12434844,-0.21180901,0.0
 4307021,0.00753536,0.01017158,-0.00296247,0.13485591,0.22716298,-0.016
 66305,-0.02212497,0.00308727,-0.00135567,0.00062940,0.00144675,0.00018
 085,-0.00012905,-0.00110161,0.00342542,-0.00390177,-0.00156538,-0.0001
 7605,-0.00003448,0.00009614,-0.00003360,-0.00005159,-0.00000700,0.0000
 5373,0.00003527,-0.00014099,0.00002509,0.00002366,0.00000647,-0.000070
 94,0.00004158,-0.00002030,-0.00030784,-0.00015759,-0.00012933,-0.00005
 709,0.00001726,0.00005593,-0.00113177,0.00092421,0.00021409,-0.0007337
 8,0.00046517,-0.00039774,0.00002925,0.00004284,0.00009811,-0.00002873,
 -0.00005950,-0.00012735,-0.00006664,-0.00004212,-0.00027189,0.03025363
 ,0.04148904,-0.05321380,0.00237440,0.00394920,-0.00194860,-0.03315129,
 -0.04045174,0.06006655,0.00027181,-0.00137870,0.00016567,-0.00077314,-
 0.00039095,0.00078441,0.00019391,0.00032703,-0.00010361,0.00008686,0.0
 0088317,-0.00076435,-0.00019623,-0.00005041,0.00014611,-0.00002689,-0.
 00006673,-0.00000358,0.00012346,0.00001609,-0.00009648,0.00003128,0.00
 002380,0.00001605,0.00025914,-0.00014227,-0.00000142,-0.00043407,-0.00
 009986,-0.00027311,-0.00002722,0.00010547,0.00000043,-0.00048247,-0.00
 069230,-0.00076735,-0.00025524,-0.00029283,0.00010797,-0.00000032,0.00
 000036,-0.00004594,0.00000700,0.00006516,0.00006704,0.00001575,-0.0000
 5550,-0.00006284,-0.07595059,0.03950891,-0.07196765,-0.00689805,0.0124
 0093,-0.02462448,0.00647020,-0.00872238,0.01590489,0.07728183,-0.00885
 685,0.01002021,-0.02100350,-0.00087938,0.00147027,0.00032768,0.0000485
 9,-0.00120353,-0.00008584,0.00276916,0.00109746,-0.00321923,-0.0000028
 2,0.00050648,0.00009843,0.00002535,-0.00005505,0.00006173,0.00011118,-
 0.00026077,-0.00028727,0.00013958,0.00002080,0.00001015,-0.00118003,-0
 .00079319,0.00150193,-0.00025578,-0.00028684,0.00002354,0.00009874,0.0
 0004221,0.00012335,0.00065451,-0.00007320,0.00029033,-0.00063739,-0.00
 063184,0.00039570,-0.00000133,-0.00004443,-0.00003909,0.00002805,0.000
 02913,0.00009804,-0.00009133,-0.00025354,-0.00010528,0.03795384,-0.094
 79401,0.09290787,0.00153553,-0.00513509,0.00778581,0.00980605,-0.01123
 592,0.01972289,-0.04183256,0.10160034,-0.00776211,0.00069562,-0.020068
 85,-0.00456129,0.00100191,0.00091706,0.00117665,-0.00164122,-0.0011984
 3,0.00654094,0.00257961,-0.00431204,-0.00092644,0.00013063,0.00010256,
 0.00009852,-0.00014657,0.00001858,0.00019891,0.00007921,-0.00027567,0.
 00004393,-0.00000274,0.00000558,-0.00182328,-0.00170248,0.00196766,-0.
 00031318,-0.00012943,-0.00019109,-0.00004894,-0.00013040,0.00021030,0.
 00013701,0.00005974,0.00034044,-0.00081938,-0.00062926,0.00037772,-0.0
 0001238,-0.00006742,-0.00005169,0.00004125,0.00001612,0.00008166,-0.00
 008425,-0.00032114,-0.00017819,-0.07291657,0.09826787,-0.22036454,0.00
 214942,-0.00352614,0.00598648,-0.00293085,0.00326735,-0.00587441,0.080
 99651,-0.09825584,0.24179499,-0.02689085,-0.00868519,-0.00930138,-0.17
 331829,-0.02227699,-0.02627623,0.00833363,-0.01216239,-0.01356779,-0.0
 0128168,0.00213415,0.00177678,-0.00009054,0.00012719,0.00000152,0.0000
 0523,-0.00008461,0.00002857,-0.00006584,0.00005592,-0.00001643,0.00004
 616,0.00000164,-0.00000398,-0.00060020,-0.00038560,0.00006636,0.000105
 70,0.00006299,-0.00015268,-0.00002662,-0.00010432,0.00014190,-0.001297
 98,0.00031872,-0.00029031,0.00001589,-0.00002588,0.00016965,0.00007712
 ,0.00008489,-0.00004352,0.00005867,-0.00005598,0.00000741,-0.00013095,
 0.00000692,-0.00003339,-0.00495816,0.00061140,-0.00068516,-0.00055935,
 -0.00043680,-0.00015475,-0.00080784,-0.00010244,0.00065555,0.00057274,
 0.00023443,-0.00013648,0.51337351,0.00329418,0.01161485,-0.00118353,-0
 .01902343,-0.09113622,-0.00360598,-0.02652988,-0.01089374,-0.03819410,
 0.00449396,0.00129998,-0.00198113,0.00020540,-0.00005282,-0.00005685,-
 0.00004189,0.00002001,0.00000097,-0.00005971,0.00003603,0.00001865,0.0
 0001686,0.00003694,-0.00000440,0.00080502,0.00076461,0.00003264,-0.000
 04496,-0.00002989,0.00005651,0.00004537,0.00016894,-0.00020237,-0.0016
 5921,0.00058506,0.00048146,-0.00006973,0.00063123,-0.00032352,0.000673
 62,0.00019038,-0.00010821,-0.00004118,-0.00047338,0.00017288,-0.000319
 38,-0.00000722,0.00024535,0.00118392,-0.00242905,-0.00007402,0.0000664
 8,-0.00012710,0.00019641,0.00196711,0.00007649,-0.00096585,0.00019170,
 0.00004423,0.00071506,-0.04845967,0.55692555,0.00219905,-0.00065738,0.
 01140321,-0.02216579,-0.00388212,-0.09354329,-0.02931455,-0.03810424,-
 0.01655173,0.00423700,-0.00050783,0.00062901,-0.00027305,0.00028371,-0
 .00009857,0.00008872,-0.00003318,0.00004621,0.00007080,-0.00003294,-0.
 00004268,0.00003560,0.00002788,-0.00003415,-0.00221060,-0.00145814,0.0
 0093372,0.00001757,-0.00011781,-0.00006327,-0.00006207,-0.00023633,0.0
 0032580,0.00206328,-0.00070371,0.00040977,-0.00037293,-0.00120700,0.00
 011735,0.00011602,0.00061460,-0.00007569,0.00015396,0.00010410,-0.0000
 2319,-0.00018744,0.00028823,-0.00001676,0.00142855,0.00013510,-0.00172
 245,0.00021168,0.00038070,-0.00031934,0.00079282,0.00083863,0.00013119
 ,0.00092324,-0.00059610,0.00018446,-0.05054939,0.01594117,0.55770684,-
 0.00237139,0.00159861,-0.00141670,0.00447723,-0.02618140,0.00841460,-0
 .00258296,0.00030809,-0.00419541,0.00157205,0.00064317,-0.00004032,-0.
 00000883,0.00002344,0.00001040,-0.00001148,-0.00001051,0.00000488,0.00
 000147,0.00004599,-0.00004877,0.00000321,0.00000447,-0.00000187,-0.000
 00158,0.00002043,0.00000279,-0.00001466,-0.00002051,-0.00001502,0.0000
 0396,0.00000608,0.00001079,-0.00077131,0.00033099,0.00012007,0.0000114
 7,0.00015284,-0.00007002,0.00013855,0.00003346,-0.00000950,-0.00003949
 ,-0.00009237,0.00003600,-0.00005303,-0.00001803,0.00004370,-0.00105151
 ,-0.00117965,0.00032450,0.00005403,0.00008814,-0.00007009,-0.00086338,
 0.00075528,0.00072606,0.00022287,0.00028516,-0.00000738,-0.04767799,-0
 .02012907,0.00467397,0.04644266,-0.00093201,-0.00004023,-0.00153859,0.
 00293104,-0.00858688,0.00108301,-0.00296369,0.00031698,-0.00141611,0.0
 0089199,0.00021134,0.00002222,0.00001156,0.00004084,0.00001147,-0.0000
 0365,-0.00001267,0.00000906,0.00001929,0.00001590,-0.00004398,0.000006
 88,0.00000617,-0.00000262,-0.00019204,-0.00010694,0.00015304,-0.000025
 23,-0.00005105,-0.00001556,0.00000599,0.00000870,0.00003381,-0.0004035
 3,0.00018394,0.00004613,-0.00002246,0.00005507,-0.00001098,0.00011499,
 0.00005448,0.00000279,-0.00000923,-0.00006539,0.00002488,-0.00006023,0
 .00000320,0.00002458,0.00155645,0.00031065,-0.00005348,0.00026526,0.00
 034915,-0.00012117,0.00006182,0.00034615,0.00007892,-0.00012610,-0.000
 21272,0.00006079,-0.01705498,-0.31449569,0.04178102,0.01890410,0.33507
 763,0.00020327,0.00032095,-0.00044052,0.00094635,-0.01467870,0.0017550
 9,-0.00279733,0.00037612,-0.00333819,0.00051316,0.00003907,-0.00018949
 ,-0.00007281,0.00001195,0.00000695,0.00000053,-0.00000378,0.00000615,-
 0.00001920,0.00001864,-0.00003197,0.00000624,-0.00000200,0.00000021,0.
 00004988,0.00000169,0.00007525,0.00001523,0.00002287,0.00000207,0.0000
 1835,0.00001261,-0.00001345,-0.00027608,0.00010589,-0.00001643,-0.0000
 3343,0.00011105,-0.00001776,0.00010348,0.00001440,-0.00000469,-0.00001
 950,-0.00006687,0.00001183,-0.00004067,-0.00001253,0.00001274,0.000089
 90,0.00074402,0.00039677,-0.00024830,-0.00012841,-0.00001308,0.0005498
 2,-0.00056587,0.00011233,-0.00017598,0.00024515,-0.00004216,0.00407674
 ,0.03797696,-0.04522442,-0.00268343,-0.04216236,0.04784365,-0.00359147
 ,-0.00285769,-0.00307095,-0.02298690,0.01534594,0.01490048,0.00650265,
 0.00014327,0.00061796,0.00013438,0.00075135,0.00051569,-0.00012095,0.0
 0006573,0.00003193,0.00000803,-0.00003670,0.00001094,0.00002225,0.0000
 7854,-0.00004036,-0.00000812,-0.00001564,-0.00000431,-0.00037389,-0.00
 033894,0.00015242,0.00003672,0.00000755,-0.00006250,0.00000193,-0.0000
 3753,0.00007859,-0.00060710,0.00017480,-0.00012156,0.00001574,0.000053
 69,0.00003829,-0.00005574,-0.00007150,0.00001777,-0.00003159,0.0000255
 3,-0.00001141,0.00002914,-0.00006609,-0.00004870,0.00017963,-0.0005751
 4,-0.00062417,0.00009667,0.00003525,0.00004573,0.00017330,0.00003070,-
 0.00011297,0.00007536,-0.00007580,0.00004106,-0.21733822,0.10024288,0.
 09490613,0.00320541,-0.00289331,-0.00278672,0.23254789,-0.00089517,-0.
 00046709,-0.00143633,-0.01182152,0.00416333,0.00497311,0.00022400,0.00
 026229,0.00143152,-0.00064229,0.00013968,-0.00006402,0.00003234,-0.000
 04414,0.00001628,-0.00001100,0.00000478,-0.00000648,-0.00000704,0.0000
 1090,0.00000264,-0.00000728,0.00000183,-0.00000011,0.00026021,0.000170
 84,-0.00011877,-0.00002884,-0.00001925,0.00001158,0.00000599,0.0000255
 3,-0.00003051,-0.00023418,0.00008481,-0.00002202,-0.00002343,0.0000027
 7,-0.00001357,-0.00004043,-0.00001018,0.00000411,0.00000464,0.00001632
 ,0.00000353,0.00002073,-0.00000150,0.00000227,0.00024191,-0.00063922,0
 .00004452,0.00015497,0.00030511,-0.00008904,0.00006919,0.00052032,0.00
 004027,-0.00000472,-0.00006561,-0.00007599,0.10352401,-0.10591304,-0.0
 5499744,0.02323655,-0.00974975,-0.01341006,-0.10771054,0.10844409,-0.0
 0117434,-0.00137720,-0.00069774,-0.01254406,0.00629976,0.00470563,0.00
 035086,0.00128891,0.00064015,-0.00057083,-0.00014908,0.00039735,-0.000
 01114,0.00001054,0.00000862,0.00000135,-0.00000824,-0.00000324,-0.0000
 0754,-0.00003955,-0.00000321,0.00001089,-0.00000139,0.00000588,-0.0001
 7379,-0.00008104,-0.00004037,-0.00001633,-0.00001572,-0.00001650,-0.00
 001681,-0.00003151,0.00004479,0.00010943,0.00001449,0.00000478,-0.0000
 1348,0.00001917,-0.00000450,-0.00003098,-0.00001927,0.00001066,-0.0000
 0907,0.00001475,0.00000604,0.00002031,-0.00000829,0.00000023,0.0003851
 9,-0.00020804,-0.00048486,0.00010301,-0.00000867,0.00024782,0.00010696
 ,0.00013163,-0.00023062,-0.00014973,-0.00010726,0.00043051,0.09855803,
 -0.05526709,-0.10034401,-0.00575905,0.00319939,0.00229028,-0.10214151,
 0.06048369,0.10211681,-0.00248204,-0.00104269,0.00127479,0.00666537,0.
 00877064,-0.02547354,-0.00306607,-0.00442071,-0.00026018,0.00159834,0.
 00048143,0.00035351,-0.00023355,0.00015220,0.00000576,0.00004208,-0.00
 003530,0.00001867,0.00000648,-0.00001675,-0.00009352,0.00003996,0.0000
 0227,-0.00000108,-0.00087177,-0.00067105,0.00040570,-0.00002388,-0.000
 04545,-0.00005739,-0.00002507,-0.00010614,0.00015215,0.00023748,-0.000
 07581,0.00010469,-0.00004917,-0.00024571,0.00003260,0.00000992,0.00011
 422,0.00000171,0.00000885,0.00002996,0.00001349,-0.00002765,0.00003021
 ,-0.00000277,-0.00141973,0.00113594,-0.00119407,0.00007190,-0.00009831
 ,0.00009417,-0.00028379,0.00026198,0.00026057,-0.00056798,0.00012310,0
 .00091833,-0.04754414,0.00319158,-0.00678256,-0.00068530,-0.00008291,0
 .00258049,0.00208489,-0.00634808,0.02297262,0.04651486,0.00050340,0.00
 004676,0.00035815,0.00167666,0.00136931,-0.01305460,-0.00299119,-0.003
 07177,-0.00019634,0.00020968,-0.00000792,-0.00010892,-0.00009937,0.000
 04556,-0.00000266,0.00001696,-0.00001251,0.00000947,-0.00001347,0.0000
 1795,-0.00004127,0.00002112,0.00000058,-0.00000292,-0.00013011,-0.0001
 4201,0.00011682,0.00001936,0.00003047,-0.00000644,0.00000259,-0.000031
 54,0.00002489,0.00014696,-0.00007534,-0.00001669,-0.00008340,-0.000151
 30,0.00004613,0.00002197,0.00007956,-0.00001032,0.00002151,0.00002052,
 -0.00000432,-0.00001964,0.00003197,-0.00001908,0.00012788,0.00038577,0
 .00049200,-0.00024101,-0.00011314,-0.00005224,-0.00000896,-0.00055775,
 0.00045895,0.00033270,0.00021460,-0.00024529,0.00267260,-0.04683614,0.
 04213909,0.00119473,-0.00365891,0.03102921,-0.00227636,0.00275718,-0.0
 1413997,-0.00110461,0.04965810,-0.00130134,-0.00131886,-0.00017392,0.0
 0440840,0.00164731,-0.00953295,-0.00345007,-0.00171864,-0.00006307,0.0
 0111502,0.00042917,-0.00002281,-0.00022401,0.00006468,0.00003342,0.000
 01822,-0.00002294,0.00001670,-0.00002699,0.00002991,-0.00009692,0.0000
 0879,0.00000172,-0.00000484,-0.00040124,-0.00041475,0.00031372,-0.0000
 1302,-0.00003086,-0.00003569,0.00000391,-0.00005011,0.00005018,-0.0000
 7981,0.00011009,0.00012222,-0.00005083,-0.00012054,0.00004468,0.000042
 57,0.00010481,-0.00001142,0.00003530,0.00000447,0.00001875,-0.00005623
 ,0.00002499,-0.00000004,0.00177455,-0.00049733,0.00054758,0.00022163,-
 0.00005611,0.00030555,0.00002814,0.00026625,-0.00028580,-0.00007582,0.
 00010681,0.00013908,-0.00427100,0.04612902,-0.31382799,-0.00005020,-0.
 00116627,-0.00318118,-0.00233183,0.00325082,-0.00908450,0.00467587,-0.
 04677365,0.33472926\\0.00001044,-0.00000134,0.00000236,-0.00000600,0.0
 0000359,0.00000311,-0.00000197,-0.00000464,-0.00000736,-0.00000830,0.0
 0000780,0.00000653,-0.00000622,0.00000156,-0.00000671,-0.00000119,-0.0
 0000230,-0.00000560,0.00000151,-0.00000264,-0.00000333,-0.00000545,0.0
 0000232,-0.00000453,-0.00000499,0.00000530,-0.00000606,0.00000160,-0.0
 0000157,0.00000282,0.00000141,0.00000451,0.00000256,0.00000335,0.00000
 212,0.00000721,-0.00000346,0.00000174,-0.00000744,-0.00000173,0.000005
 77,-0.00000152,-0.00000552,0.00000780,0.00000271,-0.00000194,0.0000123
 7,-0.00000055,0.00000178,-0.00000378,0.00000631,0.00000962,-0.00000406
 ,0.00000518,0.00000808,-0.00000158,0.00000473,0.00000410,-0.00000782,0
 .00000485,-0.00000175,-0.00000755,-0.00000267,0.00000453,-0.00000242,0
 .00000221,0.00000029,-0.00000589,-0.00000249,0.00000183,-0.00000931,-0
 .00000233\\\@
 The archive entry for this job was punched.


 MATERIAL COPIED FROM ONE SCHOLARLY BOOK WITHOUT CREDIT COMPRISES PLAGIARISM.
 MATERIAL COPIED FROM TWO SCHOLARLY BOOKS COMPRISES AN ESSAY.
 MATERIAL COPIED FROM THREE SCHOLARLY BOOKS COMPRISES A DISSERTATION.
 MATERIAL COPIED FROM FOUR SCHOLARLY BOOKS COMPRISES A FIFTH SCHOLARLY BOOK.

                               -- C&EN, 25 FEB 1980
 Job cpu time:       0 days  0 hours 23 minutes 13.0 seconds.
 Elapsed time:       0 days  0 hours  1 minutes 57.5 seconds.
 File lengths (MBytes):  RWF=    184 Int=      0 D2E=      0 Chk=     10 Scr=      1
 Normal termination of Gaussian 16 at Sat Dec 30 21:02:33 2023.
