Unloading slurm/anatra/current
  ERROR: No such file or directory on
    '/cm/local/modulefiles/slurm/anatra/current'
environment: line 0: unalias: gv: not found
environment: line 0: unalias: sl: not found
 Entering Gaussian System, Link 0=g16
 Initial command:
 /apps/gaussian/g16/C.01/g16/l1.exe "/local/jobs/1153148/Gau-1694939.inp" -scrdir="/local/jobs/1153148/"
 Entering Link 1 = /apps/gaussian/g16/C.01/g16/l1.exe PID=   1694941.
  
 Copyright (c) 1988-2019, Gaussian, Inc.  All Rights Reserved.
  
 This is part of the Gaussian(R) 16 program.  It is based on
 the Gaussian(R) 09 system (copyright 2009, Gaussian, Inc.),
 the Gaussian(R) 03 system (copyright 2003, Gaussian, Inc.),
 the Gaussian(R) 98 system (copyright 1998, Gaussian, Inc.),
 the Gaussian(R) 94 system (copyright 1995, Gaussian, Inc.),
 the Gaussian 92(TM) system (copyright 1992, Gaussian, Inc.),
 the Gaussian 90(TM) system (copyright 1990, Gaussian, Inc.),
 the Gaussian 88(TM) system (copyright 1988, Gaussian, Inc.),
 the Gaussian 86(TM) system (copyright 1986, Carnegie Mellon
 University), and the Gaussian 82(TM) system (copyright 1983,
 Carnegie Mellon University). Gaussian is a federally registered
 trademark of Gaussian, Inc.
  
 This software contains proprietary and confidential information,
 including trade secrets, belonging to Gaussian, Inc.
  
 This software is provided under written license and may be
 used, copied, transmitted, or stored only in accord with that
 written license.
  
 The following legend is applicable only to US Government
 contracts under FAR:
  
                    RESTRICTED RIGHTS LEGEND
  
 Use, reproduction and disclosure by the US Government is
 subject to restrictions as set forth in subparagraphs (a)
 and (c) of the Commercial Computer Software - Restricted
 Rights clause in FAR 52.227-19.
  
 Gaussian, Inc.
 340 Quinnipiac St., Bldg. 40, Wallingford CT 06492
  
  
 ---------------------------------------------------------------
 Warning -- This program may not be used in any manner that
 competes with the business of Gaussian, Inc. or will provide
 assistance to any competitor of Gaussian, Inc.  The licensee
 of this program is prohibited from giving any competitor of
 Gaussian, Inc. access to this program.  By using this program,
 the user acknowledges that Gaussian, Inc. is engaged in the
 business of creating and licensing software in the field of
 computational chemistry and represents and warrants to the
 licensee that it is not a competitor of Gaussian, Inc. and that
 it will not use this program in any manner prohibited above.
 ---------------------------------------------------------------
  

 Cite this work as:
 Gaussian 16, Revision C.01,
 M. J. Frisch, G. W. Trucks, H. B. Schlegel, G. E. Scuseria, 
 M. A. Robb, J. R. Cheeseman, G. Scalmani, V. Barone, 
 G. A. Petersson, H. Nakatsuji, X. Li, M. Caricato, A. V. Marenich, 
 J. Bloino, B. G. Janesko, R. Gomperts, B. Mennucci, H. P. Hratchian, 
 J. V. Ortiz, A. F. Izmaylov, J. L. Sonnenberg, D. Williams-Young, 
 F. Ding, F. Lipparini, F. Egidi, J. Goings, B. Peng, A. Petrone, 
 T. Henderson, D. Ranasinghe, V. G. Zakrzewski, J. Gao, N. Rega, 
 G. Zheng, W. Liang, M. Hada, M. Ehara, K. Toyota, R. Fukuda, 
 J. Hasegawa, M. Ishida, T. Nakajima, Y. Honda, O. Kitao, H. Nakai, 
 T. Vreven, K. Throssell, J. A. Montgomery, Jr., J. E. Peralta, 
 F. Ogliaro, M. J. Bearpark, J. J. Heyd, E. N. Brothers, K. N. Kudin, 
 V. N. Staroverov, T. A. Keith, R. Kobayashi, J. Normand, 
 K. Raghavachari, A. P. Rendell, J. C. Burant, S. S. Iyengar, 
 J. Tomasi, M. Cossi, J. M. Millam, M. Klene, C. Adamo, R. Cammi, 
 J. W. Ochterski, R. L. Martin, K. Morokuma, O. Farkas, 
 J. B. Foresman, and D. J. Fox, Gaussian, Inc., Wallingford CT, 2019.
 
 ******************************************
 Gaussian 16:  ES64L-G16RevC.01  3-Jul-2019
                30-Dec-2023 
 ******************************************
 %chk=TS-898_opt_sqm.chk
 %nprocshared=12
 Will use up to   12 processors via shared memory.
 %mem=48GB
 ----------------------------------------------------------------------
 # wb97xd chkbasis guess=read geom=allchk scrf=(iefpcm,solvent=toluene)
  opt=(readfc,ts,noeigen,maxcycles=50,maxstep=10)
 ----------------------------------------------------------------------
 1/5=1,6=50,8=10,10=3,11=1,18=20,26=3,29=7,38=1/1,3;
 2/9=110,12=2,40=1/2;
 3/5=7,6=2,11=2,14=-4,25=1,30=1,67=1,70=2201,71=1,72=13,74=-58,116=-2/1,2,3;
 4/5=1/1;
 5/5=2,38=6,53=13/2;
 6/7=2,8=2,9=2,10=2,28=1/1;
 7//1,2,3,16;
 1/5=1,6=50,8=10,11=1,18=20,26=3/3(2);
 2/9=110/2;
 99//99;
 2/9=110/2;
 3/5=7,6=1,11=2,14=-2,25=1,30=1,70=2205,71=1,72=13,74=-58,82=7/1,2,3;
 4/5=5,16=3,69=1/1;
 5/5=2,38=5,53=13/2;
 7//1,2,3,16;
 1/5=1,6=50,8=10,11=1,18=20,26=3/3(-5);
 2/9=110/2;
 6/7=2,8=2,9=2,10=2,19=2,28=1/1;
 99/9=1/99;
 Structure from the checkpoint file:  "TS-898_opt_sqm.chk"
 ----------
 TS-898.out
 ----------
 Charge =  0 Multiplicity = 1
 Redundant internal coordinates found in file.  (old form).
 C,0,-0.6166415493,-0.2143864814,-0.3577666986
 C,0,-1.8750989405,0.0248147261,0.3117537558
 O,0,-2.0226539227,0.4421120094,1.46544579
 C,0,0.6065543353,-0.0423598469,0.3258319741
 C,0,0.7446732202,2.5978463781,-0.2594770263
 H,0,1.0616742661,3.3328591577,-1.0105061951
 H,0,-0.3196259727,2.3530909465,-0.4090593211
 H,0,0.8774488601,3.0126973454,0.7432531048
 N,0,1.498732991,1.3521116857,-0.3840155702
 H,0,1.6236469508,1.0836686337,-1.3553936814
 H,0,2.4297662953,1.4011688753,0.0302795642
 Cl,0,1.9303597603,-1.2859203315,-0.0904844261
 C,0,0.6769494321,0.2298899106,1.80522877
 H,0,0.061164835,1.0985058169,2.0615069484
 H,0,0.2530259465,-0.6249095051,2.3478435381
 H,0,1.7204718063,0.360820148,2.1283590231
 C,0,-0.6117858387,-0.6605207519,-1.8058250207
 H,0,0.4118324381,-0.7685734067,-2.1971730979
 H,0,-1.0900628581,-1.6453544379,-1.9472388618
 H,0,-1.1337960646,0.045548293,-2.4722678636
 C,0,-3.1267083078,-0.2851335037,-0.5082055738
 H,0,-4.0024341981,-0.0662977104,0.1160372373
 H,0,-3.1779673105,0.3204162016,-1.4282161219
 H,0,-3.1541461741,-1.3388541526,-0.8235802473
 Recover connectivity data from disk.

 GradGradGradGradGradGradGradGradGradGradGradGradGradGradGradGradGradGrad
 Berny optimization.
 Initialization pass.
 Force constant matrix read from checkpoint file:
 "TS-898_opt_sqm.chk"
                           ----------------------------
                           !    Initial Parameters    !
                           ! (Angstroms and Degrees)  !
 --------------------------                            --------------------------
 ! Name  Definition              Value          Derivative Info.                !
 --------------------------------------------------------------------------------
 ! R1    R(1,2)                  1.4454         D2E/DX2 =    0.3834             !
 ! R2    R(1,4)                  1.4118         D2E/DX2 =    0.6527             !
 ! R3    R(1,17)                 1.5152         D2E/DX2 =    0.4035             !
 ! R4    R(2,3)                  1.2357         D2E/DX2 =    0.7745             !
 ! R5    R(2,21)                 1.528          D2E/DX2 =    0.3753             !
 ! R6    R(4,9)                  1.8012         D2E/DX2 =    0.0149             !
 ! R7    R(4,12)                 1.8634         D2E/DX2 =    0.2081             !
 ! R8    R(4,13)                 1.5059         D2E/DX2 =    0.3362             !
 ! R9    R(5,6)                  1.0976         D2E/DX2 =    0.2679             !
 ! R10   R(5,7)                  1.1023         D2E/DX2 =    0.2712             !
 ! R11   R(5,8)                  1.0933         D2E/DX2 =    0.2725             !
 ! R12   R(5,9)                  1.4615         D2E/DX2 =    0.4886             !
 ! R13   R(9,10)                 1.0155         D2E/DX2 =    0.396              !
 ! R14   R(9,11)                 1.0202         D2E/DX2 =    0.4053             !
 ! R15   R(13,14)                1.0952         D2E/DX2 =    0.2694             !
 ! R16   R(13,15)                1.0976         D2E/DX2 =    0.2679             !
 ! R17   R(13,16)                1.1002         D2E/DX2 =    0.2682             !
 ! R18   R(17,18)                1.1012         D2E/DX2 =    0.2705             !
 ! R19   R(17,19)                1.1039         D2E/DX2 =    0.2688             !
 ! R20   R(17,20)                1.1023         D2E/DX2 =    0.268              !
 ! R21   R(21,22)                1.0975         D2E/DX2 =    0.2749             !
 ! R22   R(21,23)                1.1026         D2E/DX2 =    0.2718             !
 ! R23   R(21,24)                1.1002         D2E/DX2 =    0.2759             !
 ! A1    A(2,1,4)              120.6576         D2E/DX2 =    0.2222             !
 ! A2    A(2,1,17)             119.6162         D2E/DX2 =    0.1701             !
 ! A3    A(4,1,17)             119.7256         D2E/DX2 =    0.1892             !
 ! A4    A(1,2,3)              126.3222         D2E/DX2 =    0.1727             !
 ! A5    A(1,2,21)             115.5325         D2E/DX2 =    0.1684             !
 ! A6    A(3,2,21)             118.1442         D2E/DX2 =    0.1631             !
 ! A7    A(1,4,9)              109.4307         D2E/DX2 =    0.061              !
 ! A8    A(1,4,12)             115.2159         D2E/DX2 =    0.0423             !
 ! A9    A(1,4,13)             122.563          D2E/DX2 =    0.0618             !
 ! A10   A(9,4,12)              94.4003         D2E/DX2 =    0.0311             !
 ! A11   A(9,4,13)             102.9465         D2E/DX2 =    0.0773             !
 ! A12   A(12,4,13)            107.8744         D2E/DX2 =    0.0334             !
 ! A13   A(6,5,7)              109.554          D2E/DX2 =    0.0438             !
 ! A14   A(6,5,8)              109.7792         D2E/DX2 =    0.0443             !
 ! A15   A(6,5,9)              111.3132         D2E/DX2 =    0.1127             !
 ! A16   A(7,5,8)              109.0256         D2E/DX2 =    0.0437             !
 ! A17   A(7,5,9)              107.2983         D2E/DX2 =    0.1071             !
 ! A18   A(8,5,9)              109.8123         D2E/DX2 =    0.1081             !
 ! A19   A(4,9,5)              111.7616         D2E/DX2 =    0.1161             !
 ! A20   A(4,9,10)             103.4882         D2E/DX2 =    0.0549             !
 ! A21   A(4,9,11)             109.2206         D2E/DX2 =    0.0677             !
 ! A22   A(5,9,10)             111.7339         D2E/DX2 =    0.0702             !
 ! A23   A(5,9,11)             113.2817         D2E/DX2 =    0.0692             !
 ! A24   A(10,9,11)            106.7918         D2E/DX2 =    0.0148             !
 ! A25   A(4,13,14)            110.3041         D2E/DX2 =    0.0928             !
 ! A26   A(4,13,15)            109.0748         D2E/DX2 =    0.0897             !
 ! A27   A(4,13,16)            110.7555         D2E/DX2 =    0.0998             !
 ! A28   A(14,13,15)           106.5484         D2E/DX2 =    0.0416             !
 ! A29   A(14,13,16)           111.7272         D2E/DX2 =    0.0424             !
 ! A30   A(15,13,16)           108.2881         D2E/DX2 =    0.0405             !
 ! A31   A(1,17,18)            111.8082         D2E/DX2 =    0.104              !
 ! A32   A(1,17,19)            112.5633         D2E/DX2 =    0.0928             !
 ! A33   A(1,17,20)            112.8089         D2E/DX2 =    0.1009             !
 ! A34   A(18,17,19)           105.6445         D2E/DX2 =    0.0461             !
 ! A35   A(18,17,20)           106.749          D2E/DX2 =    0.048              !
 ! A36   A(19,17,20)           106.7865         D2E/DX2 =    0.0449             !
 ! A37   A(2,21,22)            107.934          D2E/DX2 =    0.0902             !
 ! A38   A(2,21,23)            111.9886         D2E/DX2 =    0.0926             !
 ! A39   A(2,21,24)            111.6232         D2E/DX2 =    0.1019             !
 ! A40   A(22,21,23)           109.1473         D2E/DX2 =    0.0416             !
 ! A41   A(22,21,24)           109.5183         D2E/DX2 =    0.044              !
 ! A42   A(23,21,24)           106.5974         D2E/DX2 =    0.0451             !
 ! D1    D(4,1,2,3)              3.4868         D2E/DX2 =    0.0068             !
 ! D2    D(4,1,2,21)          -176.1252         D2E/DX2 =    0.0068             !
 ! D3    D(17,1,2,3)          -176.8045         D2E/DX2 =    0.0082             !
 ! D4    D(17,1,2,21)            3.5835         D2E/DX2 =    0.0075             !
 ! D5    D(2,1,4,9)           -112.9292         D2E/DX2 =    0.0148             !
 ! D6    D(2,1,4,12)           142.2355         D2E/DX2 =    0.0126             !
 ! D7    D(2,1,4,13)             7.5457         D2E/DX2 =    0.0116             !
 ! D8    D(17,1,4,9)            67.3624         D2E/DX2 =    0.0166             !
 ! D9    D(17,1,4,12)          -37.473          D2E/DX2 =    0.0132             !
 ! D10   D(17,1,4,13)         -172.1627         D2E/DX2 =    0.0139             !
 ! D11   D(2,1,17,18)          177.8945         D2E/DX2 =    0.0118             !
 ! D12   D(2,1,17,19)          -63.3684         D2E/DX2 =    0.012              !
 ! D13   D(2,1,17,20)           57.5632         D2E/DX2 =    0.0123             !
 ! D14   D(4,1,17,18)           -2.394          D2E/DX2 =    0.0106             !
 ! D15   D(4,1,17,19)          116.3431         D2E/DX2 =    0.0117             !
 ! D16   D(4,1,17,20)         -122.7253         D2E/DX2 =    0.0111             !
 ! D17   D(1,2,21,22)          179.6911         D2E/DX2 =    0.0155             !
 ! D18   D(1,2,21,23)          -60.1447         D2E/DX2 =    0.0134             !
 ! D19   D(1,2,21,24)           59.2902         D2E/DX2 =    0.0139             !
 ! D20   D(3,2,21,22)            0.0456         D2E/DX2 =    0.0149             !
 ! D21   D(3,2,21,23)          120.2098         D2E/DX2 =    0.0128             !
 ! D22   D(3,2,21,24)         -120.3552         D2E/DX2 =    0.0121             !
 ! D23   D(1,4,9,5)             60.953          D2E/DX2 =    0.021              !
 ! D24   D(1,4,9,10)           -59.4295         D2E/DX2 =    0.0213             !
 ! D25   D(1,4,9,11)          -172.8985         D2E/DX2 =    0.0217             !
 ! D26   D(12,4,9,5)           179.6542         D2E/DX2 =    0.0164             !
 ! D27   D(12,4,9,10)           59.2717         D2E/DX2 =    0.0168             !
 ! D28   D(12,4,9,11)          -54.1973         D2E/DX2 =    0.0182             !
 ! D29   D(13,4,9,5)           -70.8609         D2E/DX2 =    0.0183             !
 ! D30   D(13,4,9,10)          168.7566         D2E/DX2 =    0.0188             !
 ! D31   D(13,4,9,11)           55.2876         D2E/DX2 =    0.0192             !
 ! D32   D(1,4,13,14)          -54.0556         D2E/DX2 =    0.0152             !
 ! D33   D(1,4,13,15)           62.6419         D2E/DX2 =    0.0155             !
 ! D34   D(1,4,13,16)         -178.2724         D2E/DX2 =    0.0163             !
 ! D35   D(9,4,13,14)           69.4363         D2E/DX2 =    0.0181             !
 ! D36   D(9,4,13,15)         -173.8662         D2E/DX2 =    0.0183             !
 ! D37   D(9,4,13,16)          -54.7806         D2E/DX2 =    0.0183             !
 ! D38   D(12,4,13,14)         168.4607         D2E/DX2 =    0.0152             !
 ! D39   D(12,4,13,15)         -74.8418         D2E/DX2 =    0.0146             !
 ! D40   D(12,4,13,16)          44.2439         D2E/DX2 =    0.0147             !
 ! D41   D(6,5,9,4)           -156.9886         D2E/DX2 =    0.0098             !
 ! D42   D(6,5,9,10)           -41.5531         D2E/DX2 =    0.0121             !
 ! D43   D(6,5,9,11)            79.1174         D2E/DX2 =    0.0127             !
 ! D44   D(7,5,9,4)            -37.1348         D2E/DX2 =    0.01               !
 ! D45   D(7,5,9,10)            78.3007         D2E/DX2 =    0.0125             !
 ! D46   D(7,5,9,11)          -161.0288         D2E/DX2 =    0.0136             !
 ! D47   D(8,5,9,4)             81.232          D2E/DX2 =    0.0098             !
 ! D48   D(8,5,9,10)          -163.3325         D2E/DX2 =    0.0124             !
 ! D49   D(8,5,9,11)           -42.662          D2E/DX2 =    0.0126             !
 --------------------------------------------------------------------------------
 Trust Radius=1.00D-01 FncErr=1.00D-07 GrdErr=1.00D-06 EigMax=2.50D+02 EigMin=1.00D-04
 Number of steps in this run=     50 maximum allowed number of steps=    144.
 Search for a saddle point of order  1.
 GradGradGradGradGradGradGradGradGradGradGradGradGradGradGradGradGradGrad

                          Input orientation:                          
 ---------------------------------------------------------------------
 Center     Atomic      Atomic             Coordinates (Angstroms)
 Number     Number       Type             X           Y           Z
 ---------------------------------------------------------------------
      1          6           0       -0.616642   -0.214386   -0.357767
      2          6           0       -1.875099    0.024815    0.311754
      3          8           0       -2.022654    0.442112    1.465446
      4          6           0        0.606554   -0.042360    0.325832
      5          6           0        0.744673    2.597846   -0.259477
      6          1           0        1.061674    3.332859   -1.010506
      7          1           0       -0.319626    2.353091   -0.409059
      8          1           0        0.877449    3.012697    0.743253
      9          7           0        1.498733    1.352112   -0.384016
     10          1           0        1.623647    1.083669   -1.355394
     11          1           0        2.429766    1.401169    0.030280
     12         17           0        1.930360   -1.285920   -0.090484
     13          6           0        0.676949    0.229890    1.805229
     14          1           0        0.061165    1.098506    2.061507
     15          1           0        0.253026   -0.624910    2.347844
     16          1           0        1.720472    0.360820    2.128359
     17          6           0       -0.611786   -0.660521   -1.805825
     18          1           0        0.411832   -0.768573   -2.197173
     19          1           0       -1.090063   -1.645354   -1.947239
     20          1           0       -1.133796    0.045548   -2.472268
     21          6           0       -3.126708   -0.285134   -0.508206
     22          1           0       -4.002434   -0.066298    0.116037
     23          1           0       -3.177967    0.320416   -1.428216
     24          1           0       -3.154146   -1.338854   -0.823580
 ---------------------------------------------------------------------
                    Distance matrix (angstroms):
                    1          2          3          4          5
     1  C    0.000000
     2  C    1.445403   0.000000
     3  O    2.394152   1.235684   0.000000
     4  C    1.411775   2.482602   2.906229   0.000000
     5  C    3.125939   3.716181   3.909047   2.707832   0.000000
     6  H    3.978161   4.616943   4.898963   3.658557   1.097624
     7  H    2.585109   2.891356   3.172682   2.671340   1.102276
     8  H    3.722717   4.085358   3.942089   3.095319   1.093251
     9  N    2.632378   3.691687   4.080291   1.801227   1.461496
    10  H    2.774725   4.017683   4.654486   2.264716   2.065517
    11  H    3.470043   4.528294   4.775305   2.344190   2.086992
    12  Cl   2.776120   4.044915   4.586211   1.863390   4.064241
    13  C    2.559162   2.964030   2.729166   1.505885   3.142422
    14  H    2.834783   2.821979   2.264606   2.147462   2.846432
    15  H    2.871442   3.016077   2.663809   2.133747   4.174445
    16  H    3.460315   4.042411   3.802243   2.156959   3.414415
    17  C    1.515233   2.559255   3.729284   2.531884   3.853327
    18  H    2.179059   3.486292   4.561498   2.632652   3.898491
    19  H    2.190484   2.916984   4.107756   3.258060   4.921336
    20  H    2.192289   2.881100   4.056220   3.296348   3.865141
    21  C    2.515566   1.528047   2.375526   3.832989   4.833325
    22  H    3.421990   2.138261   2.449268   4.613823   5.456529
    23  H    2.827060   2.193705   3.118147   4.186991   4.683988
    24  H    2.814310   2.187359   3.113158   4.140642   5.569256
                    6          7          8          9         10
     6  H    0.000000
     7  H    1.797130   0.000000
     8  H    1.792237   1.787706   0.000000
     9  N    2.122939   2.075817   2.101017   0.000000
    10  H    2.343847   2.506649   2.946571   1.015500   0.000000
    11  H    2.585795   2.942504   2.348413   1.020230   1.634235
    12  Cl   4.788964   4.290260   4.503538   2.689177   2.703520
    13  C    4.207707   3.225557   2.985299   2.593743   3.408036
    14  H    3.928183   2.796906   2.463380   2.848069   3.757230
    15  H    5.253224   4.098406   4.024525   3.594920   4.302535
    16  H    4.372586   3.817019   3.108321   2.709954   3.559272
    17  C    4.402282   3.334392   4.712552   3.244460   2.870931
    18  H    4.318822   3.671127   4.812579   2.994361   2.368098
    19  H    5.503640   4.352831   5.727765   4.257973   3.893850
    20  H    4.214647   3.200696   4.815460   3.605290   3.150967
    21  C    5.557403   3.853540   5.336208   4.908228   5.015698
    22  H    6.202303   4.437594   5.804039   5.703050   5.927927
    23  H    5.217648   3.652473   5.330109   4.901661   4.862444
    24  H    6.295474   4.672985   6.135530   5.392940   5.383191
                   11         12         13         14         15
    11  H    0.000000
    12  Cl   2.735770   0.000000
    13  C    2.755849   2.731748   0.000000
    14  H    3.134926   3.716241   1.095154   0.000000
    15  H    3.770185   3.032462   1.097645   1.757544   0.000000
    16  H    2.446909   2.771114   1.100225   1.817127   1.781357
    17  C    4.107662   3.129860   3.936163   4.301545   4.242892
    18  H    3.706937   2.647963   4.133574   4.663186   4.550059
    19  H    5.057774   3.563661   4.551910   4.992408   4.614426
    20  H    4.560639   4.103017   4.648630   4.805389   5.060263
    21  C    5.831637   5.172040   4.481634   4.322085   4.437913
    22  H    6.598031   6.060377   4.983746   4.653435   4.837556
    23  H    5.894227   5.519497   5.032270   4.824476   5.188832
    24  H    6.278286   5.137357   4.903967   4.960109   4.709190
                   16         17         18         19         20
    16  H    0.000000
    17  C    4.686189   0.000000
    18  H    4.658143   1.101192   0.000000
    19  H    5.341754   1.103922   1.756958   0.000000
    20  H    5.423284   1.102349   1.768457   1.771079   0.000000
    21  C    5.555527   2.854745   3.950645   2.840588   2.817550
    22  H    6.081408   3.942480   5.032880   3.902875   3.865348
    23  H    6.053558   2.773105   3.829341   2.914272   2.311760
    24  H    5.946826   2.808654   3.863700   2.370019   2.952381
                   21         22         23         24
    21  C    0.000000
    22  H    1.097481   0.000000
    23  H    1.102605   1.792767   0.000000
    24  H    1.100246   1.794958   1.766163   0.000000
 Stoichiometry    C7H14ClNO
 Framework group  C1[X(C7H14ClNO)]
 Deg. of freedom    66
 Full point group                 C1      NOp   1
 Largest Abelian subgroup         C1      NOp   1
 Largest concise Abelian subgroup C1      NOp   1
                         Standard orientation:                         
 ---------------------------------------------------------------------
 Center     Atomic      Atomic             Coordinates (Angstroms)
 Number     Number       Type             X           Y           Z
 ---------------------------------------------------------------------
      1          6           0       -0.600705   -0.429234   -0.190103
      2          6           0       -1.840293    0.091278    0.340630
      3          8           0       -1.955986    0.946064    1.225429
      4          6           0        0.639725   -0.021776    0.346944
      5          6           0        0.806040    2.146269   -1.266832
      6          1           0        1.117886    2.503567   -2.256715
      7          1           0       -0.264965    1.886513   -1.288913
      8          1           0        0.967226    2.930768   -0.522669
      9          7           0        1.537707    0.940935   -0.882378
     10          1           0        1.637084    0.296891   -1.661205
     11          1           0        2.478258    1.133096   -0.536966
     12         17           0        1.934564   -1.357306    0.456378
     13          6           0        0.746793    0.828386    1.585270
     14          1           0        0.150373    1.740013    1.473100
     15          1           0        0.321626    0.279235    2.435265
     16          1           0        1.799066    1.055497    1.812510
     17          6           0       -0.634567   -1.427077   -1.329881
     18          1           0        0.378412   -1.709004   -1.657011
     19          1           0       -1.131101   -2.372604   -1.050458
     20          1           0       -1.160023   -1.042272   -2.219260
     21          6           0       -3.114265   -0.497021   -0.264207
     22          1           0       -3.972571   -0.022427    0.228272
     23          1           0       -3.176269   -0.318274   -1.350458
     24          1           0       -3.165012   -1.586809   -0.121629
 ---------------------------------------------------------------------
 Rotational constants (GHZ):           1.3745688           0.8218467           0.7378301
 Basis read from chk: "TS-898_opt_sqm.chk" (5D, 7F)
 Pseudo-potential data read from chk file.
 There are   224 symmetry adapted cartesian basis functions of A   symmetry.
 There are   214 symmetry adapted basis functions of A   symmetry.
   214 basis functions,   360 primitive gaussians,   224 cartesian basis functions
    44 alpha electrons       44 beta electrons
       nuclear repulsion energy       670.4256129636 Hartrees.
 NAtoms=   24 NActive=   24 NUniq=   24 SFac= 1.00D+00 NAtFMM=   60 NAOKFM=F Big=F
 Integral buffers will be    131072 words long.
 Raffenetti 2 integral format.
 Two-electron integral symmetry is turned on.
 Nuclear repulsion after empirical dispersion term =      670.4078564244 Hartrees.
 ------------------------------------------------------------------------------
 Polarizable Continuum Model (PCM)
 =================================
 Model                : PCM.
 Atomic radii         : UFF (Universal Force Field).
 Polarization charges : Total charges.
 Charge compensation  : None.
 Solution method      : On-the-fly selection.
 Cavity type          : Scaled VdW (van der Waals Surface) (Alpha=1.100).
 Cavity algorithm     : GePol (No added spheres)
                        Default sphere list used, NSphG=   24.
                        Lebedev-Laikov grids with approx.  5.0 points / Ang**2.
                        Smoothing algorithm: York/Karplus (Gamma=1.0000).
                        Polarization charges: spherical gaussians, with
                                              point-specific exponents (IZeta= 3).
                        Self-potential: point-specific (ISelfS= 7).
                        Self-field    : sphere-specific E.n sum rule (ISelfD= 2).
 1st derivatives      : Analytical E(r).r(x)/FMM algorithm (CHGder, D1EAlg=3).
                        Cavity 1st derivative terms included.
 Solvent              : Toluene, Eps=   2.374100 Eps(inf)=   2.238315
 ------------------------------------------------------------------------------
 One-electron integrals computed using PRISM.
   1 Symmetry operations used in ECPInt.
 ECPInt:  NShTT=    5460 NPrTT=   19488 LenC2=    5395 LenP2D=   15048.
 LDataN:  DoStor=T MaxTD1= 4 Len=   56
 NBasis=   214 RedAO= T EigKep=  9.68D-04  NBF=   214
 NBsUse=   214 1.00D-06 EigRej= -1.00D+00 NBFU=   214
 Initial guess from the checkpoint file:  "TS-898_opt_sqm.chk"
 B after Tr=     0.000000    0.000000    0.000000
         Rot=    1.000000    0.000000    0.000000    0.000000 Ang=   0.00 deg.
 Requested convergence on RMS density matrix=1.00D-08 within 128 cycles.
 Requested convergence on MAX density matrix=1.00D-06.
 Requested convergence on             energy=1.00D-06.
 No special actions if energy rises.
 Inv3:  Mode=1 IEnd=     8376723.
 Iteration    1 A*A^-1 deviation from unit magnitude is 2.66D-15 for    185.
 Iteration    1 A*A^-1 deviation from orthogonality  is 1.71D-15 for   1103    901.
 Iteration    1 A^-1*A deviation from unit magnitude is 2.78D-15 for    612.
 Iteration    1 A^-1*A deviation from orthogonality  is 1.77D-15 for   1353     24.
 Error on total polarization charges =  0.00539
 SCF Done:  E(RwB97XD) =  -864.737593119     A.U. after    1 cycles
            NFock=  1  Conv=0.12D-08     -V/T= 2.0064

 **********************************************************************

            Population analysis using the SCF Density.

 **********************************************************************

 Orbital symmetries:
       Occupied  (A) (A) (A) (A) (A) (A) (A) (A) (A) (A) (A) (A)
                 (A) (A) (A) (A) (A) (A) (A) (A) (A) (A) (A) (A)
                 (A) (A) (A) (A) (A) (A) (A) (A) (A) (A) (A) (A)
                 (A) (A) (A) (A) (A) (A) (A) (A)
       Virtual   (A) (A) (A) (A) (A) (A) (A) (A) (A) (A) (A) (A)
                 (A) (A) (A) (A) (A) (A) (A) (A) (A) (A) (A) (A)
                 (A) (A) (A) (A) (A) (A) (A) (A) (A) (A) (A) (A)
                 (A) (A) (A) (A) (A) (A) (A) (A) (A) (A) (A) (A)
                 (A) (A) (A) (A) (A) (A) (A) (A) (A) (A) (A) (A)
                 (A) (A) (A) (A) (A) (A) (A) (A) (A) (A) (A) (A)
                 (A) (A) (A) (A) (A) (A) (A) (A) (A) (A) (A) (A)
                 (A) (A) (A) (A) (A) (A) (A) (A) (A) (A) (A) (A)
                 (A) (A) (A) (A) (A) (A) (A) (A) (A) (A) (A) (A)
                 (A) (A) (A) (A) (A) (A) (A) (A) (A) (A) (A) (A)
                 (A) (A) (A) (A) (A) (A) (A) (A) (A) (A) (A) (A)
                 (A) (A) (A) (A) (A) (A) (A) (A) (A) (A) (A) (A)
                 (A) (A) (A) (A) (A) (A) (A) (A) (A) (A) (A) (A)
                 (A) (A) (A) (A) (A) (A) (A) (A) (A) (A) (A) (A)
                 (A) (A)
 The electronic state is 1-A.
 Alpha  occ. eigenvalues -- -101.65888 -19.18426 -14.53232 -10.40590 -10.35214
 Alpha  occ. eigenvalues --  -10.34270 -10.29618 -10.28472 -10.27322 -10.25551
 Alpha  occ. eigenvalues --   -9.56659  -7.31975  -7.31116  -7.31081  -1.07301
 Alpha  occ. eigenvalues --   -1.06428  -0.94667  -0.86155  -0.83068  -0.80280
 Alpha  occ. eigenvalues --   -0.78786  -0.73346  -0.67014  -0.65392  -0.60097
 Alpha  occ. eigenvalues --   -0.58282  -0.55990  -0.53730  -0.52040  -0.50905
 Alpha  occ. eigenvalues --   -0.49672  -0.49502  -0.48006  -0.46827  -0.46384
 Alpha  occ. eigenvalues --   -0.45016  -0.44036  -0.43995  -0.42735  -0.40603
 Alpha  occ. eigenvalues --   -0.38339  -0.37823  -0.28885  -0.25256
 Alpha virt. eigenvalues --    0.08313   0.08742   0.11139   0.14274   0.15235
 Alpha virt. eigenvalues --    0.16477   0.17209   0.19295   0.20015   0.21015
 Alpha virt. eigenvalues --    0.21202   0.22611   0.22913   0.24495   0.25030
 Alpha virt. eigenvalues --    0.25245   0.27085   0.28802   0.31566   0.31894
 Alpha virt. eigenvalues --    0.35596   0.38208   0.41095   0.45919   0.46493
 Alpha virt. eigenvalues --    0.48850   0.50396   0.50974   0.53236   0.53974
 Alpha virt. eigenvalues --    0.56523   0.57897   0.59108   0.60295   0.61838
 Alpha virt. eigenvalues --    0.63827   0.66862   0.68684   0.69539   0.71175
 Alpha virt. eigenvalues --    0.71924   0.72921   0.73358   0.73615   0.74050
 Alpha virt. eigenvalues --    0.74787   0.74986   0.75502   0.75977   0.76723
 Alpha virt. eigenvalues --    0.77418   0.78222   0.78582   0.79330   0.80208
 Alpha virt. eigenvalues --    0.80749   0.81698   0.83465   0.84620   0.85145
 Alpha virt. eigenvalues --    0.85604   0.86828   0.89472   0.90846   0.93756
 Alpha virt. eigenvalues --    0.94093   0.95245   0.96644   1.01469   1.03602
 Alpha virt. eigenvalues --    1.04597   1.08573   1.11125   1.13681   1.16871
 Alpha virt. eigenvalues --    1.19512   1.20843   1.25298   1.26425   1.28181
 Alpha virt. eigenvalues --    1.32487   1.35348   1.39052   1.40548   1.42339
 Alpha virt. eigenvalues --    1.43370   1.46086   1.46723   1.54471   1.56456
 Alpha virt. eigenvalues --    1.59360   1.61183   1.62869   1.63225   1.66444
 Alpha virt. eigenvalues --    1.67429   1.69243   1.72503   1.73060   1.76774
 Alpha virt. eigenvalues --    1.78659   1.82130   1.83073   1.84528   1.85324
 Alpha virt. eigenvalues --    1.87044   1.87664   1.89320   1.89806   1.91123
 Alpha virt. eigenvalues --    1.91678   1.92744   1.94668   1.94927   1.96711
 Alpha virt. eigenvalues --    1.99726   2.01265   2.04048   2.05755   2.06778
 Alpha virt. eigenvalues --    2.08435   2.09794   2.11877   2.14520   2.14957
 Alpha virt. eigenvalues --    2.18624   2.20601   2.22263   2.23001   2.30359
 Alpha virt. eigenvalues --    2.31960   2.35804   2.40095   2.40883   2.45276
 Alpha virt. eigenvalues --    2.46129   2.46846   2.50408   2.52518   2.55523
 Alpha virt. eigenvalues --    2.56660   2.58169   2.58789   2.64887   2.67074
 Alpha virt. eigenvalues --    2.69918   2.72959   2.75389   2.80973   2.81359
 Alpha virt. eigenvalues --    2.82871   2.84694   2.86505   2.92005   2.93921
 Alpha virt. eigenvalues --    3.00991   3.02115   3.02694   3.03201   3.05229
 Alpha virt. eigenvalues --    3.05563   3.07352   3.09245   3.12312   3.20126
 Alpha virt. eigenvalues --    3.24392   3.27575   3.48202   3.53614   3.76284
          Condensed to atoms (all electrons):
               1          2          3          4          5          6
     1  C    5.861019   0.225541  -0.124476   0.392830  -0.011815  -0.000797
     2  C    0.225541   4.717055   0.707562  -0.051027  -0.001038  -0.000040
     3  O   -0.124476   0.707562   7.825257  -0.018567  -0.000170   0.000011
     4  C    0.392830  -0.051027  -0.018567   5.326342  -0.030098   0.003043
     5  C   -0.011815  -0.001038  -0.000170  -0.030098   4.529468   0.403970
     6  H   -0.000797  -0.000040   0.000011   0.003043   0.403970   0.584439
     7  H    0.021146   0.007247   0.001101  -0.003318   0.401174  -0.018834
     8  H   -0.000909  -0.000216  -0.000303  -0.002077   0.406333  -0.019262
     9  N   -0.108365  -0.001531   0.000138   0.095936   0.311614  -0.015725
    10  H   -0.005100   0.000077  -0.000025  -0.004027  -0.015826  -0.009753
    11  H    0.008233  -0.000023  -0.000004  -0.005908  -0.016229  -0.002297
    12  Cl  -0.086531  -0.001481  -0.000002   0.265485   0.003021  -0.000165
    13  C   -0.057000   0.002026  -0.005170   0.379089   0.001097  -0.000018
    14  H   -0.027434   0.003461   0.025873   0.012158   0.004085   0.000023
    15  H   -0.012746   0.000497   0.003350  -0.001758  -0.000155   0.000006
    16  H    0.012136   0.001209   0.001873  -0.031848  -0.001459  -0.000016
    17  C    0.328632  -0.009134   0.004031  -0.071134  -0.000419   0.000116
    18  H   -0.024564   0.008129  -0.000070  -0.017812   0.000010  -0.000013
    19  H   -0.005882  -0.015491   0.000006   0.003316  -0.000057  -0.000002
    20  H   -0.015206  -0.016254   0.000025   0.003429   0.000607   0.000027
    21  C   -0.197531   0.424186  -0.086675   0.008034  -0.000133  -0.000001
    22  H    0.019243  -0.015338   0.013064  -0.000256   0.000000   0.000000
    23  H   -0.005422   0.002629   0.002186  -0.000186   0.000140  -0.000000
    24  H   -0.001989  -0.004236   0.002058   0.000490  -0.000003  -0.000000
               7          8          9         10         11         12
     1  C    0.021146  -0.000909  -0.108365  -0.005100   0.008233  -0.086531
     2  C    0.007247  -0.000216  -0.001531   0.000077  -0.000023  -0.001481
     3  O    0.001101  -0.000303   0.000138  -0.000025  -0.000004  -0.000002
     4  C   -0.003318  -0.002077   0.095936  -0.004027  -0.005908   0.265485
     5  C    0.401174   0.406333   0.311614  -0.015826  -0.016229   0.003021
     6  H   -0.018834  -0.019262  -0.015725  -0.009753  -0.002297  -0.000165
     7  H    0.546001  -0.015247  -0.030288  -0.001183   0.006392   0.000430
     8  H   -0.015247   0.569226  -0.020292   0.005556  -0.008896  -0.000004
     9  N   -0.030288  -0.020292   6.361560   0.340489   0.332932  -0.084613
    10  H   -0.001183   0.005556   0.340489   0.509733  -0.013036   0.008249
    11  H    0.006392  -0.008896   0.332932  -0.013036   0.515065   0.011608
    12  Cl   0.000430  -0.000004  -0.084613   0.008249   0.011608  17.094913
    13  C   -0.003444   0.005511  -0.042576   0.004520  -0.004489  -0.062308
    14  H    0.000337   0.001299  -0.000678  -0.000086  -0.000646   0.002939
    15  H    0.000002  -0.000127   0.003447  -0.000223  -0.000091   0.002612
    16  H    0.000002  -0.000096  -0.002556  -0.000096   0.004482   0.001683
    17  C   -0.002323   0.000038   0.001923   0.003838  -0.000410  -0.010778
    18  H   -0.000140  -0.000014  -0.001430   0.004791  -0.000213   0.015489
    19  H    0.000143   0.000002  -0.000401  -0.000106   0.000019   0.002480
    20  H   -0.000578  -0.000007   0.001739  -0.000372  -0.000062   0.000250
    21  C    0.000324  -0.000024  -0.000101  -0.000028   0.000009  -0.000112
    22  H   -0.000065   0.000001   0.000004   0.000000  -0.000000   0.000002
    23  H   -0.000507   0.000004   0.000034  -0.000003  -0.000001  -0.000002
    24  H    0.000034   0.000000  -0.000010   0.000002   0.000000   0.000013
              13         14         15         16         17         18
     1  C   -0.057000  -0.027434  -0.012746   0.012136   0.328632  -0.024564
     2  C    0.002026   0.003461   0.000497   0.001209  -0.009134   0.008129
     3  O   -0.005170   0.025873   0.003350   0.001873   0.004031  -0.000070
     4  C    0.379089   0.012158  -0.001758  -0.031848  -0.071134  -0.017812
     5  C    0.001097   0.004085  -0.000155  -0.001459  -0.000419   0.000010
     6  H   -0.000018   0.000023   0.000006  -0.000016   0.000116  -0.000013
     7  H   -0.003444   0.000337   0.000002   0.000002  -0.002323  -0.000140
     8  H    0.005511   0.001299  -0.000127  -0.000096   0.000038  -0.000014
     9  N   -0.042576  -0.000678   0.003447  -0.002556   0.001923  -0.001430
    10  H    0.004520  -0.000086  -0.000223  -0.000096   0.003838   0.004791
    11  H   -0.004489  -0.000646  -0.000091   0.004482  -0.000410  -0.000213
    12  Cl  -0.062308   0.002939   0.002612   0.001683  -0.010778   0.015489
    13  C    4.549206   0.362776   0.390886   0.368095   0.007009   0.001139
    14  H    0.362776   0.577055  -0.011440  -0.017574  -0.000167  -0.000087
    15  H    0.390886  -0.011440   0.573940  -0.020740   0.000016  -0.000023
    16  H    0.368095  -0.017574  -0.020740   0.660424  -0.000263  -0.000010
    17  C    0.007009  -0.000167   0.000016  -0.000263   4.549282   0.385742
    18  H    0.001139  -0.000087  -0.000023  -0.000010   0.385742   0.661225
    19  H   -0.000239  -0.000020   0.000057  -0.000004   0.376514  -0.020719
    20  H   -0.000239   0.000028  -0.000013   0.000009   0.380021  -0.024567
    21  C    0.000384   0.001145  -0.000020   0.000063   0.010942  -0.000391
    22  H   -0.000058  -0.000026   0.000010  -0.000003  -0.000526  -0.000018
    23  H    0.000034  -0.000076   0.000003  -0.000002   0.004325   0.000327
    24  H   -0.000040  -0.000021  -0.000021  -0.000004   0.002377   0.000184
              19         20         21         22         23         24
     1  C   -0.005882  -0.015206  -0.197531   0.019243  -0.005422  -0.001989
     2  C   -0.015491  -0.016254   0.424186  -0.015338   0.002629  -0.004236
     3  O    0.000006   0.000025  -0.086675   0.013064   0.002186   0.002058
     4  C    0.003316   0.003429   0.008034  -0.000256  -0.000186   0.000490
     5  C   -0.000057   0.000607  -0.000133   0.000000   0.000140  -0.000003
     6  H   -0.000002   0.000027  -0.000001   0.000000  -0.000000  -0.000000
     7  H    0.000143  -0.000578   0.000324  -0.000065  -0.000507   0.000034
     8  H    0.000002  -0.000007  -0.000024   0.000001   0.000004   0.000000
     9  N   -0.000401   0.001739  -0.000101   0.000004   0.000034  -0.000010
    10  H   -0.000106  -0.000372  -0.000028   0.000000  -0.000003   0.000002
    11  H    0.000019  -0.000062   0.000009  -0.000000  -0.000001   0.000000
    12  Cl   0.002480   0.000250  -0.000112   0.000002  -0.000002   0.000013
    13  C   -0.000239  -0.000239   0.000384  -0.000058   0.000034  -0.000040
    14  H   -0.000020   0.000028   0.001145  -0.000026  -0.000076  -0.000021
    15  H    0.000057  -0.000013  -0.000020   0.000010   0.000003  -0.000021
    16  H   -0.000004   0.000009   0.000063  -0.000003  -0.000002  -0.000004
    17  C    0.376514   0.380021   0.010942  -0.000526   0.004325   0.002377
    18  H   -0.020719  -0.024567  -0.000391  -0.000018   0.000327   0.000184
    19  H    0.649649  -0.028245   0.007482   0.000058  -0.002573   0.001301
    20  H   -0.028245   0.675946   0.005816   0.000099   0.001067  -0.002298
    21  C    0.007482   0.005816   4.780741   0.348344   0.353947   0.362622
    22  H    0.000058   0.000099   0.348344   0.628961  -0.014333  -0.013713
    23  H   -0.002573   0.001067   0.353947  -0.014333   0.640626  -0.016203
    24  H    0.001301  -0.002298   0.362622  -0.013713  -0.016203   0.625944
 Mulliken charges:
               1
     1  C   -0.183013
     2  C    0.016191
     3  O   -0.351072
     4  C   -0.252135
     5  C    0.015884
     6  H    0.075289
     7  H    0.091593
     8  H    0.079505
     9  N   -0.141250
    10  H    0.172610
    11  H    0.173563
    12  Cl  -0.163177
    13  C    0.103809
    14  H    0.067077
    15  H    0.072531
    16  H    0.024696
    17  C    0.040348
    18  H    0.013033
    19  H    0.032714
    20  H    0.018778
    21  C   -0.019024
    22  H    0.034550
    23  H    0.033986
    24  H    0.043515
 Sum of Mulliken charges =  -0.00000
 Mulliken charges with hydrogens summed into heavy atoms:
               1
     1  C   -0.183013
     2  C    0.016191
     3  O   -0.351072
     4  C   -0.252135
     5  C    0.262271
     9  N    0.204923
    12  Cl  -0.163177
    13  C    0.268113
    17  C    0.104874
    21  C    0.093026
 Electronic spatial extent (au):  <R**2>=           1847.4887
 Charge=              0.0000 electrons
 Dipole moment (field-independent basis, Debye):
    X=              5.1201    Y=              2.5724    Z=             -4.7386  Tot=              7.4355
 Quadrupole moment (field-independent basis, Debye-Ang):
   XX=            -69.7193   YY=            -67.5264   ZZ=            -67.4635
   XY=             11.1944   XZ=              0.7766   YZ=             -4.7830
 Traceless Quadrupole moment (field-independent basis, Debye-Ang):
   XX=             -1.4829   YY=              0.7100   ZZ=              0.7729
   XY=             11.1944   XZ=              0.7766   YZ=             -4.7830
 Octapole moment (field-independent basis, Debye-Ang**2):
  XXX=             33.2587  YYY=             15.8217  ZZZ=             -7.5543  XYY=             11.9982
  XXY=              4.0666  XXZ=            -18.3108  XZZ=             17.1761  YZZ=              3.8336
  YYZ=             -7.5862  XYZ=              4.3790
 Hexadecapole moment (field-independent basis, Debye-Ang**3):
 XXXX=          -1245.6949 YYYY=           -624.8504 ZZZZ=           -469.8618 XXXY=             29.7449
 XXXZ=             -8.3282 YYYX=             10.4513 YYYZ=            -19.6365 ZZZX=            -12.1281
 ZZZY=            -22.1073 XXYY=           -317.2240 XXZZ=           -296.7360 YYZZ=           -188.4413
 XXYZ=            -18.2819 YYXZ=             -3.5498 ZZXY=              9.5899
 N-N= 6.704078564244D+02 E-N=-3.374891866483D+03  KE= 8.592787387757D+02
   1 Symmetry operations used in ECPInt.
 ECPInt:  NShTT=    5460 NPrTT=   19488 LenC2=    5395 LenP2D=   15048.
 LDataN:  DoStor=T MaxTD1= 5 Len=  102
 D1PCM: PCM CHGder 1st derivatives, ID1Alg=3 FixD1E=F DoIter=F DoCFld=F I1PDM=0.
 Calling FoFJK, ICntrl=      2127 FMM=F ISym2X=0 I1Cent= 0 IOpClX= 0 NMat=1 NMatS=1 NMatT=0.
 ***** Axes restored to original set *****
 -------------------------------------------------------------------
 Center     Atomic                   Forces (Hartrees/Bohr)
 Number     Number              X              Y              Z
 -------------------------------------------------------------------
      1        6          -0.001099952   -0.000555709    0.001422296
      2        6           0.003101209   -0.000892564   -0.003133955
      3        8          -0.001659727   -0.000040583   -0.000193146
      4        6           0.001087724   -0.001422572   -0.000862895
      5        6          -0.000809254   -0.001195144   -0.002583162
      6        1           0.000189999    0.000367205    0.000425016
      7        1           0.000749148    0.000057352   -0.000118965
      8        1           0.000410742    0.000644119    0.001498210
      9        7          -0.002374103    0.001468152    0.006012446
     10        1          -0.000012694   -0.001345043   -0.004826527
     11        1           0.001399584    0.000430218    0.000673906
     12       17          -0.000141874   -0.000031626   -0.000047884
     13        6           0.001793638    0.000807311    0.000548330
     14        1           0.000413801   -0.000163953    0.000576048
     15        1          -0.000673955    0.000145226   -0.000529646
     16        1          -0.000603636    0.000660201   -0.000630935
     17        6           0.001538178   -0.000405098   -0.000105847
     18        1          -0.000771515   -0.000005126    0.000950677
     19        1          -0.000122664    0.000286193   -0.000392050
     20        1          -0.000822299    0.000339554   -0.000463705
     21        6          -0.001575379    0.002026622    0.000694838
     22        1          -0.000426671   -0.000505310   -0.000550264
     23        1           0.000267196   -0.000041412    0.001199077
     24        1           0.000142506   -0.000628012    0.000438138
 -------------------------------------------------------------------
 Cartesian Forces:  Max     0.006012446 RMS     0.001377322

 GradGradGradGradGradGradGradGradGradGradGradGradGradGradGradGradGradGrad
 Berny optimization.
 FormGI is forming the generalized inverse of G from B-inverse, IUseBI=4.
 Internal  Forces:  Max     0.004971992 RMS     0.000813631
 Search for a saddle point.
 Step number   1 out of a maximum of   50
 All quantities printed in internal units (Hartrees-Bohrs-Radians)
 Swapping is turned off.
 Second derivative matrix not updated -- first step.
 ITU=  0
     Eigenvalues ---   -0.04753   0.00011   0.00077   0.00205   0.00219
     Eigenvalues ---    0.00328   0.00811   0.01069   0.01359   0.02467
     Eigenvalues ---    0.03471   0.03626   0.03690   0.03725   0.03750
     Eigenvalues ---    0.03869   0.04452   0.04623   0.04672   0.04833
     Eigenvalues ---    0.05316   0.07660   0.08427   0.10400   0.10456
     Eigenvalues ---    0.10883   0.11029   0.11526   0.11809   0.12148
     Eigenvalues ---    0.12284   0.12440   0.12779   0.12967   0.13422
     Eigenvalues ---    0.13532   0.14376   0.15010   0.16129   0.16788
     Eigenvalues ---    0.17827   0.19618   0.22360   0.24310   0.26033
     Eigenvalues ---    0.26115   0.26271   0.26372   0.26424   0.26642
     Eigenvalues ---    0.27116   0.27579   0.27889   0.28145   0.28681
     Eigenvalues ---    0.29009   0.35061   0.37605   0.38402   0.41499
     Eigenvalues ---    0.41869   0.45183   0.49238   0.52991   0.70852
     Eigenvalues ---    0.80440
 Eigenvectors required to have negative eigenvalues:
                          R6        D6        D9        A11       R7
   1                    0.81791   0.21352   0.19814  -0.15666  -0.15301
                          D38       D5        D40       D39       D33
   1                   -0.14784   0.13069  -0.12824  -0.12314   0.11920
 RFO step:  Lambda0=1.211753167D-06 Lambda=-5.09635554D-04.
 Linear search not attempted -- option 19 set.
 Iteration  1 RMS(Cart)=  0.04681121 RMS(Int)=  0.00105347
 Iteration  2 RMS(Cart)=  0.00137044 RMS(Int)=  0.00002081
 Iteration  3 RMS(Cart)=  0.00000097 RMS(Int)=  0.00002079
 Variable       Old X    -DE/DX   Delta X   Delta X   Delta X     New X
                                 (Linear)    (Quad)   (Total)
    R1        2.73142  -0.00059   0.00000  -0.00762  -0.00762   2.72380
    R2        2.66787   0.00136   0.00000   0.00364   0.00364   2.67151
    R3        2.86338  -0.00006   0.00000   0.00067   0.00067   2.86405
    R4        2.33510   0.00000   0.00000   0.00215   0.00215   2.33725
    R5        2.88759   0.00018   0.00000   0.00253   0.00253   2.89012
    R6        3.40382  -0.00032   0.00000  -0.01770  -0.01770   3.38613
    R7        3.52130  -0.00007   0.00000  -0.00193  -0.00193   3.51937
    R8        2.84571   0.00028   0.00000   0.00346   0.00346   2.84917
    R9        2.07421   0.00001   0.00000  -0.00052  -0.00052   2.07369
   R10        2.08300  -0.00072   0.00000  -0.00351  -0.00351   2.07949
   R11        2.06595   0.00167   0.00000   0.00756   0.00756   2.07350
   R12        2.76183  -0.00047   0.00000  -0.00166  -0.00166   2.76016
   R13        1.91902   0.00497   0.00000   0.01824   0.01824   1.93726
   R14        1.92796   0.00157   0.00000   0.00512   0.00512   1.93308
   R15        2.06954  -0.00023   0.00000   0.00088   0.00088   2.07042
   R16        2.07425  -0.00011   0.00000  -0.00106  -0.00106   2.07319
   R17        2.07912  -0.00068   0.00000  -0.00341  -0.00341   2.07572
   R18        2.08095  -0.00106   0.00000  -0.00531  -0.00531   2.07564
   R19        2.08611  -0.00015   0.00000  -0.00092  -0.00092   2.08519
   R20        2.08314   0.00089   0.00000   0.00522   0.00522   2.08836
   R21        2.07394  -0.00007   0.00000  -0.00270  -0.00270   2.07123
   R22        2.08362  -0.00103   0.00000  -0.00298  -0.00298   2.08064
   R23        2.07916   0.00047   0.00000   0.00223   0.00223   2.08139
    A1        2.10587   0.00179   0.00000   0.00231   0.00221   2.10808
    A2        2.08770  -0.00067   0.00000  -0.00119  -0.00130   2.08640
    A3        2.08961  -0.00112   0.00000  -0.00100  -0.00111   2.08850
    A4        2.20474   0.00086   0.00000   0.00198   0.00198   2.20671
    A5        2.01642   0.00218   0.00000   0.01495   0.01494   2.03136
    A6        2.06200  -0.00304   0.00000  -0.01689  -0.01690   2.04511
    A7        1.90993   0.00042   0.00000   0.00520   0.00519   1.91511
    A8        2.01090  -0.00056   0.00000  -0.00049  -0.00052   2.01038
    A9        2.13913   0.00125   0.00000   0.00147   0.00147   2.14060
   A10        1.64760   0.00051   0.00000   0.00639   0.00639   1.65398
   A11        1.79675  -0.00181   0.00000  -0.01296  -0.01296   1.78380
   A12        1.88276  -0.00014   0.00000   0.00036   0.00038   1.88315
   A13        1.91208   0.00004   0.00000   0.00538   0.00537   1.91745
   A14        1.91601  -0.00027   0.00000  -0.00652  -0.00653   1.90948
   A15        1.94278   0.00041   0.00000   0.00193   0.00192   1.94470
   A16        1.90286   0.00024   0.00000   0.00116   0.00116   1.90401
   A17        1.87271  -0.00016   0.00000   0.00032   0.00031   1.87302
   A18        1.91659  -0.00026   0.00000  -0.00204  -0.00204   1.91455
   A19        1.95061   0.00102   0.00000   0.01112   0.01113   1.96173
   A20        1.80621  -0.00037   0.00000  -0.00210  -0.00209   1.80412
   A21        1.90626  -0.00022   0.00000  -0.00300  -0.00301   1.90325
   A22        1.95012  -0.00043   0.00000  -0.00479  -0.00479   1.94533
   A23        1.97714  -0.00038   0.00000  -0.00230  -0.00231   1.97483
   A24        1.86387   0.00036   0.00000   0.00064   0.00063   1.86450
   A25        1.92517   0.00103   0.00000   0.00665   0.00666   1.93183
   A26        1.90372  -0.00074   0.00000  -0.00397  -0.00397   1.89975
   A27        1.93305  -0.00047   0.00000  -0.00310  -0.00309   1.92995
   A28        1.85962  -0.00023   0.00000  -0.00640  -0.00640   1.85323
   A29        1.95001  -0.00047   0.00000  -0.00932  -0.00931   1.94069
   A30        1.88998   0.00086   0.00000   0.01630   0.01630   1.90629
   A31        1.95142  -0.00080   0.00000  -0.00732  -0.00732   1.94410
   A32        1.96460   0.00058   0.00000   0.00498   0.00499   1.96959
   A33        1.96889   0.00004   0.00000   0.00021   0.00022   1.96910
   A34        1.84385   0.00010   0.00000   0.00172   0.00172   1.84557
   A35        1.86312   0.00055   0.00000   0.00886   0.00887   1.87199
   A36        1.86378  -0.00045   0.00000  -0.00818  -0.00818   1.85560
   A37        1.88380   0.00133   0.00000   0.01219   0.01220   1.89601
   A38        1.95457  -0.00075   0.00000  -0.01401  -0.01400   1.94057
   A39        1.94819  -0.00070   0.00000  -0.00052  -0.00052   1.94767
   A40        1.90498  -0.00022   0.00000  -0.00204  -0.00200   1.90298
   A41        1.91145  -0.00045   0.00000  -0.00583  -0.00583   1.90562
   A42        1.86048   0.00076   0.00000   0.00987   0.00987   1.87035
    D1        0.06086  -0.00027   0.00000  -0.01614  -0.01612   0.04473
    D2       -3.07396  -0.00034   0.00000  -0.02434  -0.02437  -3.09834
    D3       -3.08582   0.00000   0.00000   0.01104   0.01107  -3.07475
    D4        0.06254  -0.00007   0.00000   0.00284   0.00282   0.06537
    D5       -1.97099   0.00070   0.00000   0.01131   0.01133  -1.95966
    D6        2.48248   0.00011   0.00000   0.00081   0.00082   2.48330
    D7        0.13170  -0.00050   0.00000  -0.00105  -0.00104   0.13066
    D8        1.17570   0.00042   0.00000  -0.01589  -0.01590   1.15980
    D9       -0.65403  -0.00016   0.00000  -0.02640  -0.02641  -0.68043
   D10       -3.00481  -0.00077   0.00000  -0.02825  -0.02827  -3.03307
   D11        3.10485  -0.00004   0.00000   0.02168   0.02170   3.12654
   D12       -1.10599  -0.00007   0.00000   0.02220   0.02222  -1.08377
   D13        1.00467  -0.00020   0.00000   0.01532   0.01534   1.02001
   D14       -0.04178   0.00024   0.00000   0.04861   0.04859   0.00681
   D15        2.03057   0.00021   0.00000   0.04913   0.04911   2.07969
   D16       -2.14196   0.00007   0.00000   0.04225   0.04223  -2.09973
   D17        3.13620  -0.00013   0.00000  -0.03485  -0.03484   3.10136
   D18       -1.04972   0.00001   0.00000  -0.03792  -0.03796  -1.08768
   D19        1.03481  -0.00001   0.00000  -0.03524  -0.03526   0.99955
   D20        0.00080  -0.00022   0.00000  -0.04240  -0.04237  -0.04157
   D21        2.09806  -0.00007   0.00000  -0.04548  -0.04548   2.05258
   D22       -2.10059  -0.00009   0.00000  -0.04280  -0.04279  -2.14338
   D23        1.06383   0.00012   0.00000  -0.06850  -0.06851   0.99532
   D24       -1.03724   0.00033   0.00000  -0.06722  -0.06723  -1.10447
   D25       -3.01765   0.00020   0.00000  -0.06569  -0.06570  -3.08335
   D26        3.13556  -0.00015   0.00000  -0.06474  -0.06472   3.07084
   D27        1.03449   0.00006   0.00000  -0.06346  -0.06344   0.97105
   D28       -0.94592  -0.00007   0.00000  -0.06193  -0.06191  -1.00783
   D29       -1.23676  -0.00045   0.00000  -0.06475  -0.06475  -1.30151
   D30        2.94536  -0.00024   0.00000  -0.06347  -0.06348   2.88188
   D31        0.96495  -0.00037   0.00000  -0.06194  -0.06195   0.90300
   D32       -0.94345   0.00015   0.00000  -0.04221  -0.04221  -0.98566
   D33        1.09331   0.00003   0.00000  -0.04848  -0.04849   1.04482
   D34       -3.11144   0.00035   0.00000  -0.03281  -0.03281   3.13893
   D35        1.21189  -0.00006   0.00000  -0.04592  -0.04591   1.16598
   D36       -3.03454  -0.00018   0.00000  -0.05219  -0.05219  -3.08673
   D37       -0.95610   0.00014   0.00000  -0.03652  -0.03651  -0.99262
   D38        2.94019  -0.00020   0.00000  -0.04357  -0.04356   2.89663
   D39       -1.30624  -0.00032   0.00000  -0.04984  -0.04984  -1.35608
   D40        0.77220   0.00000   0.00000  -0.03417  -0.03416   0.73804
   D41       -2.73997  -0.00016   0.00000  -0.00522  -0.00521  -2.74518
   D42       -0.72524  -0.00025   0.00000  -0.00384  -0.00385  -0.72909
   D43        1.38086  -0.00037   0.00000  -0.00819  -0.00819   1.37267
   D44       -0.64812   0.00002   0.00000   0.00268   0.00269  -0.64544
   D45        1.36661  -0.00007   0.00000   0.00405   0.00405   1.37065
   D46       -2.81048  -0.00019   0.00000  -0.00029  -0.00029  -2.81077
   D47        1.41777   0.00008   0.00000   0.00313   0.00313   1.42090
   D48       -2.85069  -0.00001   0.00000   0.00450   0.00449  -2.84620
   D49       -0.74459  -0.00013   0.00000   0.00016   0.00016  -0.74443
         Item               Value     Threshold  Converged?
 Maximum Force            0.004972     0.000450     NO 
 RMS     Force            0.000814     0.000300     NO 
 Maximum Displacement     0.181444     0.001800     NO 
 RMS     Displacement     0.046762     0.001200     NO 
 Predicted change in Energy=-2.740807D-04
 GradGradGradGradGradGradGradGradGradGradGradGradGradGradGradGradGradGrad

                          Input orientation:                          
 ---------------------------------------------------------------------
 Center     Atomic      Atomic             Coordinates (Angstroms)
 Number     Number       Type             X           Y           Z
 ---------------------------------------------------------------------
      1          6           0       -0.608982   -0.228743   -0.348988
      2          6           0       -1.864324    0.005232    0.319537
      3          8           0       -2.015121    0.407246    1.479436
      4          6           0        0.617281   -0.052721    0.332076
      5          6           0        0.711478    2.577918   -0.307950
      6          1           0        1.055251    3.303667   -1.055805
      7          1           0       -0.336396    2.305848   -0.505075
      8          1           0        0.784671    3.022824    0.692381
      9          7           0        1.496928    1.347493   -0.358131
     10          1           0        1.680694    1.059006   -1.324539
     11          1           0        2.405779    1.431445    0.103767
     12         17           0        1.942801   -1.291200   -0.089336
     13          6           0        0.693266    0.221516    1.812695
     14          1           0        0.112694    1.113953    2.071297
     15          1           0        0.227914   -0.612855    2.352020
     16          1           0        1.738989    0.321280    2.133696
     17          6           0       -0.604478   -0.640694   -1.807509
     18          1           0        0.419241   -0.768049   -2.184626
     19          1           0       -1.109947   -1.605963   -1.981667
     20          1           0       -1.105902    0.094956   -2.462236
     21          6           0       -3.129558   -0.271845   -0.493753
     22          1           0       -4.002371   -0.093450    0.144760
     23          1           0       -3.188506    0.386206   -1.374521
     24          1           0       -3.156020   -1.309833   -0.861199
 ---------------------------------------------------------------------
                    Distance matrix (angstroms):
                    1          2          3          4          5
     1  C    0.000000
     2  C    1.441372   0.000000
     3  O    2.392665   1.236820   0.000000
     4  C    1.413701   2.482313   2.908186   0.000000
     5  C    3.102039   3.694213   3.916748   2.709016   0.000000
     6  H    3.968272   4.614668   4.923809   3.658329   1.097350
     7  H    2.553981   2.882253   3.218865   2.678277   1.100418
     8  H    3.687737   4.032623   3.911462   3.101099   1.097252
     9  N    2.630487   3.682244   4.073722   1.791861   1.460615
    10  H    2.802251   4.047293   4.684669   2.260787   2.068798
    11  H    3.471310   4.507152   4.741921   2.335294   2.086761
    12  Cl   2.776298   4.042539   4.583767   1.862371   4.066205
    13  C    2.563484   2.969439   2.735127   1.507718   3.170190
    14  H    2.860320   2.864704   2.318908   2.154211   2.857019
    15  H    2.853660   2.981691   2.614042   2.132025   4.182142
    16  H    3.461099   4.046594   3.811665   2.154981   3.479918
    17  C    1.515588   2.555143   3.727211   2.533028   3.786804
    18  H    2.172017   3.476128   4.553327   2.623871   3.847442
    19  H    2.193933   2.908706   4.105068   3.278609   4.860429
    20  H    2.194887   2.884703   4.057214   3.286235   3.756183
    21  C    2.525098   1.529388   2.365715   3.843021   4.786359
    22  H    3.431789   2.147446   2.445652   4.623627   5.437051
    23  H    2.843207   2.183674   3.085831   4.193941   4.599027
    24  H    2.813986   2.189066   3.119068   4.152353   5.511645
                    6          7          8          9         10
     6  H    0.000000
     7  H    1.798785   0.000000
     8  H    1.791157   1.790181   0.000000
     9  N    2.123310   2.073913   2.101813   0.000000
    10  H    2.345613   2.508941   2.954218   1.025153   0.000000
    11  H    2.583360   2.941903   2.346688   1.022940   1.644542
    12  Cl   4.778557   4.278590   4.534661   2.689564   2.667938
    13  C    4.225989   3.282789   3.018408   2.574138   3.393912
    14  H    3.932179   2.874021   2.448827   2.805846   3.740768
    15  H    5.257081   4.123138   4.035163   3.577469   4.292176
    16  H    4.419847   3.899852   3.207249   2.705718   3.536527
    17  C    4.344853   3.232694   4.647639   3.235660   2.888642
    18  H    4.272893   3.583395   4.772989   2.995499   2.380996
    19  H    5.445160   4.252172   5.671487   4.260818   3.914275
    20  H    4.116364   3.051337   4.700880   3.573630   3.160516
    21  C    5.532885   3.800839   5.251946   4.903573   5.059634
    22  H    6.209774   4.429253   5.738189   5.707145   5.981991
    23  H    5.159712   3.546194   5.197112   4.889828   4.915716
    24  H    6.249565   4.598940   6.059255   5.381857   5.405542
                   11         12         13         14         15
    11  H    0.000000
    12  Cl   2.768471   0.000000
    13  C    2.705007   2.732649   0.000000
    14  H    3.038127   3.715156   1.095620   0.000000
    15  H    3.738569   3.059609   1.097086   1.753267   0.000000
    16  H    2.407838   2.753816   1.098422   1.810264   1.789866
    17  C    4.124122   3.140686   3.941246   4.317205   4.242090
    18  H    3.744442   2.642946   4.127093   4.663559   4.543330
    19  H    5.092662   3.605449   4.581313   5.031830   4.642949
    20  H    4.549997   4.104470   4.639833   4.803775   5.045504
    21  C    5.822215   5.189554   4.491891   4.360289   4.414445
    22  H    6.587212   6.069141   4.993016   4.701396   4.799696
    23  H    5.879956   5.549388   5.025298   4.827132   5.153364
    24  H    6.275298   5.156947   4.930693   5.015851   4.718216
                   16         17         18         19         20
    16  H    0.000000
    17  C    4.685118   0.000000
    18  H    4.645027   1.098380   0.000000
    19  H    5.363479   1.103437   1.755479   0.000000
    20  H    5.409918   1.105113   1.774234   1.767509   0.000000
    21  C    5.563994   2.870197   3.962227   2.841230   2.846867
    22  H    6.090244   3.956830   5.042992   3.895575   3.901468
    23  H    6.049133   2.814107   3.873553   2.942409   2.367528
    24  H    5.965822   2.802430   3.850647   2.351501   2.956304
                   21         22         23         24
    21  C    0.000000
    22  H    1.096050   0.000000
    23  H    1.101027   1.789039   0.000000
    24  H    1.101425   1.791047   1.772316   0.000000
 Stoichiometry    C7H14ClNO
 Framework group  C1[X(C7H14ClNO)]
 Deg. of freedom    66
 Full point group                 C1      NOp   1
 Largest Abelian subgroup         C1      NOp   1
 Largest concise Abelian subgroup C1      NOp   1
                         Standard orientation:                         
 ---------------------------------------------------------------------
 Center     Atomic      Atomic             Coordinates (Angstroms)
 Number     Number       Type             X           Y           Z
 ---------------------------------------------------------------------
      1          6           0       -0.592781   -0.437332   -0.186825
      2          6           0       -1.833333    0.057669    0.354988
      3          8           0       -1.958917    0.886339    1.264525
      4          6           0        0.647660   -0.023137    0.350109
      5          6           0        0.744472    2.140637   -1.276998
      6          1           0        1.077645    2.508202   -2.255808
      7          1           0       -0.308641    1.826635   -1.334230
      8          1           0        0.839936    2.942879   -0.534532
      9          7           0        1.521639    0.979914   -0.850231
     10          1           0        1.684654    0.331416   -1.627286
     11          1           0        2.439884    1.227255   -0.473330
     12         17           0        1.957422   -1.344688    0.430423
     13          6           0        0.754389    0.811586    1.601132
     14          1           0        0.184206    1.741214    1.495929
     15          1           0        0.294925    0.263589    2.433111
     16          1           0        1.806794    1.016120    1.840175
     17          6           0       -0.619401   -1.390945   -1.364501
     18          1           0        0.395935   -1.670053   -1.676959
     19          1           0       -1.133788   -2.339985   -1.135804
     20          1           0       -1.129355   -0.966499   -2.248280
     21          6           0       -3.115928   -0.501004   -0.262961
     22          1           0       -3.974943   -0.073918    0.267148
     23          1           0       -3.188402   -0.242774   -1.330821
     24          1           0       -3.155638   -1.599341   -0.190753
 ---------------------------------------------------------------------
 Rotational constants (GHZ):           1.3796951           0.8173807           0.7412981
 Basis read from rwf:  (5D, 7F)
 Pseudo-potential data read from rwf file.
 There are   224 symmetry adapted cartesian basis functions of A   symmetry.
 There are   214 symmetry adapted basis functions of A   symmetry.
   214 basis functions,   360 primitive gaussians,   224 cartesian basis functions
    44 alpha electrons       44 beta electrons
       nuclear repulsion energy       670.5762652557 Hartrees.
 NAtoms=   24 NActive=   24 NUniq=   24 SFac= 1.00D+00 NAtFMM=   60 NAOKFM=F Big=F
 Integral buffers will be    131072 words long.
 Raffenetti 2 integral format.
 Two-electron integral symmetry is turned on.
 Nuclear repulsion after empirical dispersion term =      670.5584654088 Hartrees.
 ------------------------------------------------------------------------------
 Polarizable Continuum Model (PCM)
 =================================
 Model                : PCM.
 Atomic radii         : UFF (Universal Force Field).
 Polarization charges : Total charges.
 Charge compensation  : None.
 Solution method      : On-the-fly selection.
 Cavity type          : Scaled VdW (van der Waals Surface) (Alpha=1.100).
 Cavity algorithm     : GePol (No added spheres)
                        Default sphere list used, NSphG=   24.
                        Lebedev-Laikov grids with approx.  5.0 points / Ang**2.
                        Smoothing algorithm: York/Karplus (Gamma=1.0000).
                        Polarization charges: spherical gaussians, with
                                              point-specific exponents (IZeta= 3).
                        Self-potential: point-specific (ISelfS= 7).
                        Self-field    : sphere-specific E.n sum rule (ISelfD= 2).
 1st derivatives      : Analytical E(r).r(x)/FMM algorithm (CHGder, D1EAlg=3).
                        Cavity 1st derivative terms included.
 Solvent              : Toluene, Eps=   2.374100 Eps(inf)=   2.238315
 ------------------------------------------------------------------------------
 One-electron integrals computed using PRISM.
   1 Symmetry operations used in ECPInt.
 ECPInt:  NShTT=    5460 NPrTT=   19488 LenC2=    5395 LenP2D=   15052.
 LDataN:  DoStor=T MaxTD1= 4 Len=   56
 NBasis=   214 RedAO= T EigKep=  9.62D-04  NBF=   214
 NBsUse=   214 1.00D-06 EigRej= -1.00D+00 NBFU=   214
 Initial guess from the checkpoint file:  "TS-898_opt_sqm.chk"
 B after Tr=    -0.000000   -0.000000    0.000000
         Rot=    0.999950   -0.007975   -0.002185   -0.005592 Ang=  -1.14 deg.
 ExpMin= 1.22D-01 ExpMax= 1.04D+04 ExpMxC= 1.57D+03 IAcc=3 IRadAn=         5 AccDes= 0.00D+00
 Harris functional with IExCor= 4639 and IRadAn=       5 diagonalized for initial guess.
 HarFok:  IExCor= 4639 AccDes= 0.00D+00 IRadAn=         5 IDoV= 1 UseB2=F ITyADJ=14
 ICtDFT=  3500011 ScaDFX=  1.000000  1.000000  1.000000  1.000000
 FoFCou: FMM=F IPFlag=           0 FMFlag=      100000 FMFlg1=           0
         NFxFlg=           0 DoJE=T BraDBF=F KetDBF=T FulRan=T
         wScrn=  0.000000 ICntrl=       500 IOpCl=  0 I1Cent=   200000004 NGrid=           0
         NMat0=    1 NMatS0=      1 NMatT0=    0 NMatD0=    1 NMtDS0=    0 NMtDT0=    0
 Petite list used in FoFCou.
 Requested convergence on RMS density matrix=1.00D-08 within 128 cycles.
 Requested convergence on MAX density matrix=1.00D-06.
 Requested convergence on             energy=1.00D-06.
 No special actions if energy rises.
 Inv3:  Mode=1 IEnd=     8416875.
 Iteration    1 A*A^-1 deviation from unit magnitude is 3.33D-15 for   1524.
 Iteration    1 A*A^-1 deviation from orthogonality  is 2.12D-15 for   1207    565.
 Iteration    1 A^-1*A deviation from unit magnitude is 3.33D-15 for    950.
 Iteration    1 A^-1*A deviation from orthogonality  is 2.06D-15 for   1095    843.
 Error on total polarization charges =  0.00565
 SCF Done:  E(RwB97XD) =  -864.737679041     A.U. after   12 cycles
            NFock= 12  Conv=0.67D-08     -V/T= 2.0064
   1 Symmetry operations used in ECPInt.
 ECPInt:  NShTT=    5460 NPrTT=   19488 LenC2=    5395 LenP2D=   15052.
 LDataN:  DoStor=T MaxTD1= 5 Len=  102
 D1PCM: PCM CHGder 1st derivatives, ID1Alg=3 FixD1E=F DoIter=F DoCFld=F I1PDM=0.
 Calling FoFJK, ICntrl=      2127 FMM=F ISym2X=0 I1Cent= 0 IOpClX= 0 NMat=1 NMatS=1 NMatT=0.
 ***** Axes restored to original set *****
 -------------------------------------------------------------------
 Center     Atomic                   Forces (Hartrees/Bohr)
 Number     Number              X              Y              Z
 -------------------------------------------------------------------
      1        6          -0.000627283   -0.000691830   -0.000291809
      2        6          -0.002066989    0.000841581    0.001310301
      3        8           0.001211789    0.000047715    0.000559301
      4        6           0.000255469    0.001154552    0.000609897
      5        6           0.000321909    0.000706698    0.001521590
      6        1           0.000193717   -0.000032894   -0.000102829
      7        1          -0.000342758   -0.000088071   -0.000226808
      8        1          -0.000234198   -0.000478958   -0.000709124
      9        7           0.001224616   -0.001764226   -0.003428497
     10        1          -0.000503909    0.001085100    0.002977057
     11        1          -0.000528567    0.000010102   -0.000684930
     12       17           0.000011940    0.000167424   -0.000173222
     13        6          -0.001137160   -0.000284447   -0.000090319
     14        1          -0.000222328   -0.000237408   -0.000330183
     15        1           0.000456835   -0.000088185    0.000362175
     16        1           0.000315585   -0.000095638    0.000132550
     17        6          -0.000740850    0.000534063    0.000129463
     18        1           0.000554160   -0.000102597   -0.000561336
     19        1           0.000043508   -0.000147719    0.000215059
     20        1           0.000479418   -0.000209078    0.000282675
     21        6           0.001656961   -0.000874899   -0.001389561
     22        1          -0.000095608    0.000359240    0.000784041
     23        1          -0.000253429   -0.000216739   -0.000567017
     24        1           0.000027173    0.000406215   -0.000328472
 -------------------------------------------------------------------
 Cartesian Forces:  Max     0.003428497 RMS     0.000861900

 GradGradGradGradGradGradGradGradGradGradGradGradGradGradGradGradGradGrad
 Berny optimization.
 FormGI is forming the generalized inverse of G from B-inverse, IUseBI=4.
 Internal  Forces:  Max     0.003203610 RMS     0.000514881
 Search for a saddle point.
 Step number   2 out of a maximum of   50
 All quantities printed in internal units (Hartrees-Bohrs-Radians)
 Swapping is turned off.
 Update second derivatives using D2CorX and points    1    2
 ITU=  0  0
     Eigenvalues ---   -0.04756  -0.00130   0.00069   0.00203   0.00227
     Eigenvalues ---    0.00328   0.00828   0.01064   0.01360   0.02485
     Eigenvalues ---    0.03470   0.03627   0.03691   0.03725   0.03753
     Eigenvalues ---    0.03871   0.04453   0.04625   0.04673   0.04840
     Eigenvalues ---    0.05331   0.07670   0.08431   0.10424   0.10456
     Eigenvalues ---    0.10886   0.11032   0.11579   0.11854   0.12183
     Eigenvalues ---    0.12290   0.12451   0.12790   0.12972   0.13427
     Eigenvalues ---    0.13578   0.14379   0.15022   0.16215   0.16931
     Eigenvalues ---    0.17832   0.19802   0.22385   0.24369   0.26033
     Eigenvalues ---    0.26115   0.26276   0.26391   0.26424   0.26661
     Eigenvalues ---    0.27144   0.27582   0.27891   0.28149   0.28685
     Eigenvalues ---    0.29012   0.35089   0.37607   0.38582   0.41499
     Eigenvalues ---    0.41921   0.45206   0.49265   0.53000   0.70861
     Eigenvalues ---    0.80444
 Eigenvectors required to have negative eigenvalues:
                          R6        D6        D9        A11       R7
   1                    0.81838   0.21334   0.19848  -0.15657  -0.15293
                          D38       D5        D40       D33       D39
   1                   -0.14571   0.13081  -0.12649   0.12176  -0.12086
 RFO step:  Lambda0=7.669609282D-07 Lambda=-1.41914909D-03.
 Linear search not attempted -- option 19 set.
 Iteration  1 RMS(Cart)=  0.05464866 RMS(Int)=  0.00128037
 Iteration  2 RMS(Cart)=  0.00166218 RMS(Int)=  0.00011262
 Iteration  3 RMS(Cart)=  0.00000173 RMS(Int)=  0.00011261
 Iteration  4 RMS(Cart)=  0.00000000 RMS(Int)=  0.00011261
 Variable       Old X    -DE/DX   Delta X   Delta X   Delta X     New X
                                 (Linear)    (Quad)   (Total)
    R1        2.72380  -0.00017   0.00000   0.00120   0.00120   2.72500
    R2        2.67151  -0.00024   0.00000   0.00271   0.00271   2.67422
    R3        2.86405  -0.00009   0.00000  -0.00049  -0.00049   2.86356
    R4        2.33725   0.00039   0.00000   0.00026   0.00026   2.33751
    R5        2.89012  -0.00024   0.00000  -0.00256  -0.00256   2.88757
    R6        3.38613  -0.00012   0.00000   0.00325   0.00325   3.38938
    R7        3.51937  -0.00007   0.00000  -0.00716  -0.00716   3.51221
    R8        2.84917  -0.00007   0.00000  -0.00126  -0.00126   2.84792
    R9        2.07369   0.00011   0.00000   0.00129   0.00129   2.07498
   R10        2.07949   0.00039   0.00000   0.00064   0.00064   2.08013
   R11        2.07350  -0.00086   0.00000  -0.00557  -0.00557   2.06794
   R12        2.76016   0.00015   0.00000   0.00109   0.00109   2.76126
   R13        1.93726  -0.00320   0.00000  -0.01523  -0.01523   1.92203
   R14        1.93308  -0.00078   0.00000  -0.00288  -0.00288   1.93020
   R15        2.07042  -0.00015   0.00000  -0.00172  -0.00172   2.06870
   R16        2.07319   0.00005   0.00000  -0.00004  -0.00004   2.07316
   R17        2.07572   0.00033   0.00000   0.00237   0.00237   2.07808
   R18        2.07564   0.00072   0.00000   0.00398   0.00398   2.07962
   R19        2.08519   0.00008   0.00000  -0.00100  -0.00100   2.08420
   R20        2.08836  -0.00053   0.00000  -0.00136  -0.00136   2.08700
   R21        2.07123   0.00059   0.00000   0.00556   0.00556   2.07679
   R22        2.08064   0.00034   0.00000   0.00141   0.00141   2.08205
   R23        2.08139  -0.00027   0.00000  -0.00248  -0.00248   2.07891
    A1        2.10808  -0.00011   0.00000   0.00145   0.00079   2.10887
    A2        2.08640   0.00026   0.00000   0.00449   0.00382   2.09021
    A3        2.08850  -0.00016   0.00000  -0.00723  -0.00788   2.08062
    A4        2.20671  -0.00050   0.00000  -0.00252  -0.00252   2.20419
    A5        2.03136  -0.00195   0.00000  -0.01532  -0.01532   2.01604
    A6        2.04511   0.00246   0.00000   0.01784   0.01784   2.06294
    A7        1.91511  -0.00033   0.00000  -0.00161  -0.00160   1.91351
    A8        2.01038   0.00017   0.00000   0.00085   0.00084   2.01121
    A9        2.14060  -0.00046   0.00000  -0.00440  -0.00440   2.13619
   A10        1.65398  -0.00035   0.00000  -0.00506  -0.00507   1.64892
   A11        1.78380   0.00087   0.00000   0.00887   0.00888   1.79267
   A12        1.88315   0.00018   0.00000   0.00202   0.00203   1.88518
   A13        1.91745   0.00007   0.00000   0.00226   0.00226   1.91971
   A14        1.90948   0.00016   0.00000   0.00400   0.00400   1.91348
   A15        1.94470  -0.00027   0.00000  -0.00362  -0.00362   1.94108
   A16        1.90401  -0.00001   0.00000  -0.00313  -0.00313   1.90088
   A17        1.87302  -0.00000   0.00000   0.00139   0.00140   1.87442
   A18        1.91455   0.00007   0.00000  -0.00102  -0.00102   1.91353
   A19        1.96173  -0.00042   0.00000  -0.00623  -0.00625   1.95548
   A20        1.80412   0.00033   0.00000   0.01246   0.01246   1.81659
   A21        1.90325   0.00019   0.00000   0.00008   0.00002   1.90327
   A22        1.94533   0.00010   0.00000   0.00315   0.00317   1.94850
   A23        1.97483  -0.00000   0.00000  -0.00586  -0.00588   1.96895
   A24        1.86450  -0.00015   0.00000  -0.00185  -0.00186   1.86264
   A25        1.93183  -0.00055   0.00000  -0.00635  -0.00634   1.92549
   A26        1.89975   0.00059   0.00000   0.00523   0.00524   1.90499
   A27        1.92995   0.00001   0.00000   0.00036   0.00036   1.93032
   A28        1.85323   0.00003   0.00000   0.00094   0.00095   1.85418
   A29        1.94069   0.00030   0.00000   0.00705   0.00705   1.94775
   A30        1.90629  -0.00038   0.00000  -0.00728  -0.00728   1.89901
   A31        1.94410   0.00047   0.00000   0.00251   0.00251   1.94661
   A32        1.96959  -0.00035   0.00000  -0.00492  -0.00492   1.96466
   A33        1.96910  -0.00002   0.00000   0.00342   0.00342   1.97252
   A34        1.84557  -0.00009   0.00000  -0.00041  -0.00041   1.84516
   A35        1.87199  -0.00028   0.00000  -0.00448  -0.00449   1.86751
   A36        1.85560   0.00026   0.00000   0.00366   0.00367   1.85927
   A37        1.89601  -0.00099   0.00000  -0.01186  -0.01184   1.88417
   A38        1.94057   0.00074   0.00000   0.00664   0.00664   1.94721
   A39        1.94767   0.00029   0.00000   0.00700   0.00700   1.95467
   A40        1.90298   0.00016   0.00000   0.00135   0.00137   1.90435
   A41        1.90562   0.00040   0.00000   0.00648   0.00650   1.91212
   A42        1.87035  -0.00057   0.00000  -0.00941  -0.00943   1.86092
    D1        0.04473  -0.00014   0.00000  -0.05166  -0.05181  -0.00708
    D2       -3.09834  -0.00009   0.00000  -0.05470  -0.05483   3.13002
    D3       -3.07475  -0.00002   0.00000   0.01624   0.01637  -3.05838
    D4        0.06537   0.00002   0.00000   0.01320   0.01335   0.07872
    D5       -1.95966  -0.00015   0.00000   0.06242   0.06233  -1.89733
    D6        2.48330   0.00038   0.00000   0.06908   0.06900   2.55230
    D7        0.13066   0.00041   0.00000   0.07008   0.06999   0.20065
    D8        1.15980  -0.00026   0.00000  -0.00541  -0.00533   1.15447
    D9       -0.68043   0.00027   0.00000   0.00125   0.00134  -0.67910
   D10       -3.03307   0.00030   0.00000   0.00225   0.00233  -3.03075
   D11        3.12654  -0.00004   0.00000   0.03461   0.03464  -3.12200
   D12       -1.08377  -0.00006   0.00000   0.03250   0.03252  -1.05124
[...]
    19  H    5.436983   1.102047   1.756264   0.000000
    20  H    5.330108   1.106164   1.775868   1.767353   0.000000
    21  C    5.566792   2.864591   3.949699   2.732773   2.948635
    22  H    6.094562   3.950849   5.031632   3.803692   3.984706
    23  H    6.029382   2.753858   3.836541   2.742625   2.420760
    24  H    5.991553   2.852584   3.859739   2.307815   3.139142
                   21         22         23         24
    21  C    0.000000
    22  H    1.097090   0.000000
    23  H    1.101085   1.792751   0.000000
    24  H    1.101268   1.790909   1.769783   0.000000
 Stoichiometry    C7H14ClNO
 Framework group  C1[X(C7H14ClNO)]
 Deg. of freedom    66
 Full point group                 C1      NOp   1
 Largest Abelian subgroup         C1      NOp   1
 Largest concise Abelian subgroup C1      NOp   1
                         Standard orientation:                         
 ---------------------------------------------------------------------
 Center     Atomic      Atomic             Coordinates (Angstroms)
 Number     Number       Type             X           Y           Z
 ---------------------------------------------------------------------
      1          6           0       -0.588994   -0.475451   -0.152330
      2          6           0       -1.831615    0.042010    0.367304
      3          8           0       -1.958429    0.881040    1.266804
      4          6           0        0.650986   -0.022992    0.353123
      5          6           0        0.683499    2.142556   -1.283127
      6          1           0        1.012551    2.550458   -2.247793
      7          1           0       -0.366767    1.821745   -1.352327
      8          1           0        0.769823    2.914938   -0.510286
      9          7           0        1.474559    0.976083   -0.900065
     10          1           0        1.585298    0.327657   -1.681629
     11          1           0        2.414893    1.218056   -0.580926
     12         17           0        1.998955   -1.302746    0.429473
     13          6           0        0.763419    0.838557    1.584124
     14          1           0        0.127729    1.725320    1.491490
     15          1           0        0.383143    0.275886    2.446392
     16          1           0        1.811361    1.111160    1.772455
     17          6           0       -0.610584   -1.439235   -1.321178
     18          1           0        0.393575   -1.834504   -1.529789
     19          1           0       -1.247258   -2.318829   -1.132853
     20          1           0       -0.983432   -0.979838   -2.255810
     21          6           0       -3.107576   -0.515324   -0.264155
     22          1           0       -3.968030   -0.021488    0.204195
     23          1           0       -3.136568   -0.342772   -1.351249
     24          1           0       -3.187839   -1.602715   -0.109458
 ---------------------------------------------------------------------
 Rotational constants (GHZ):           1.3850850           0.8171233           0.7406059

 **********************************************************************

            Population analysis using the SCF Density.

 **********************************************************************

 Orbital symmetries:
       Occupied  (A) (A) (A) (A) (A) (A) (A) (A) (A) (A) (A) (A)
                 (A) (A) (A) (A) (A) (A) (A) (A) (A) (A) (A) (A)
                 (A) (A) (A) (A) (A) (A) (A) (A) (A) (A) (A) (A)
                 (A) (A) (A) (A) (A) (A) (A) (A)
       Virtual   (A) (A) (A) (A) (A) (A) (A) (A) (A) (A) (A) (A)
                 (A) (A) (A) (A) (A) (A) (A) (A) (A) (A) (A) (A)
                 (A) (A) (A) (A) (A) (A) (A) (A) (A) (A) (A) (A)
                 (A) (A) (A) (A) (A) (A) (A) (A) (A) (A) (A) (A)
                 (A) (A) (A) (A) (A) (A) (A) (A) (A) (A) (A) (A)
                 (A) (A) (A) (A) (A) (A) (A) (A) (A) (A) (A) (A)
                 (A) (A) (A) (A) (A) (A) (A) (A) (A) (A) (A) (A)
                 (A) (A) (A) (A) (A) (A) (A) (A) (A) (A) (A) (A)
                 (A) (A) (A) (A) (A) (A) (A) (A) (A) (A) (A) (A)
                 (A) (A) (A) (A) (A) (A) (A) (A) (A) (A) (A) (A)
                 (A) (A) (A) (A) (A) (A) (A) (A) (A) (A) (A) (A)
                 (A) (A) (A) (A) (A) (A) (A) (A) (A) (A) (A) (A)
                 (A) (A) (A) (A) (A) (A) (A) (A) (A) (A) (A) (A)
                 (A) (A) (A) (A) (A) (A) (A) (A) (A) (A) (A) (A)
                 (A) (A)
 The electronic state is 1-A.
 Alpha  occ. eigenvalues -- -101.66008 -19.18330 -14.53294 -10.40653 -10.35277
 Alpha  occ. eigenvalues --  -10.34214 -10.29622 -10.28403 -10.27307 -10.25550
 Alpha  occ. eigenvalues --   -9.56778  -7.32096  -7.31232  -7.31200  -1.07209
 Alpha  occ. eigenvalues --   -1.06383  -0.94769  -0.86176  -0.83060  -0.80245
 Alpha  occ. eigenvalues --   -0.78770  -0.73327  -0.67036  -0.65296  -0.60127
 Alpha  occ. eigenvalues --   -0.58360  -0.56003  -0.53705  -0.51968  -0.50907
 Alpha  occ. eigenvalues --   -0.49767  -0.49438  -0.47963  -0.46958  -0.46330
 Alpha  occ. eigenvalues --   -0.44967  -0.44101  -0.44047  -0.42679  -0.40558
 Alpha  occ. eigenvalues --   -0.38425  -0.37841  -0.28808  -0.25257
 Alpha virt. eigenvalues --    0.08286   0.08753   0.11083   0.14211   0.15418
 Alpha virt. eigenvalues --    0.16557   0.17185   0.19226   0.19765   0.20875
 Alpha virt. eigenvalues --    0.21500   0.22706   0.22947   0.24416   0.24952
 Alpha virt. eigenvalues --    0.25225   0.26993   0.28822   0.31104   0.31894
 Alpha virt. eigenvalues --    0.35491   0.37952   0.40831   0.46043   0.46440
 Alpha virt. eigenvalues --    0.48990   0.50540   0.50949   0.53232   0.53787
 Alpha virt. eigenvalues --    0.56649   0.57281   0.59136   0.60966   0.61522
 Alpha virt. eigenvalues --    0.63596   0.66737   0.68617   0.69395   0.71011
 Alpha virt. eigenvalues --    0.72543   0.72766   0.73263   0.73589   0.73874
 Alpha virt. eigenvalues --    0.74639   0.74984   0.75401   0.75879   0.77185
 Alpha virt. eigenvalues --    0.77317   0.77999   0.78748   0.79441   0.80099
 Alpha virt. eigenvalues --    0.81320   0.81625   0.83762   0.84150   0.85305
 Alpha virt. eigenvalues --    0.85596   0.86896   0.89581   0.91550   0.93141
 Alpha virt. eigenvalues --    0.93921   0.95031   0.96689   1.01588   1.03739
 Alpha virt. eigenvalues --    1.04862   1.08379   1.10878   1.13210   1.16704
 Alpha virt. eigenvalues --    1.18844   1.20400   1.25528   1.26007   1.27009
 Alpha virt. eigenvalues --    1.32463   1.35627   1.38184   1.41424   1.42611
 Alpha virt. eigenvalues --    1.43108   1.46310   1.46609   1.54661   1.56765
 Alpha virt. eigenvalues --    1.58526   1.61031   1.62210   1.63872   1.66692
 Alpha virt. eigenvalues --    1.67841   1.69133   1.72530   1.72841   1.77246
 Alpha virt. eigenvalues --    1.78791   1.82346   1.83639   1.84367   1.85091
 Alpha virt. eigenvalues --    1.86671   1.87586   1.89114   1.89812   1.91303
 Alpha virt. eigenvalues --    1.92289   1.92514   1.94158   1.95040   1.96611
 Alpha virt. eigenvalues --    1.99864   2.00733   2.03820   2.05964   2.06581
 Alpha virt. eigenvalues --    2.08303   2.09254   2.11997   2.13593   2.14831
 Alpha virt. eigenvalues --    2.18617   2.20153   2.21865   2.23096   2.30269
 Alpha virt. eigenvalues --    2.31719   2.35811   2.40370   2.40654   2.45561
 Alpha virt. eigenvalues --    2.45650   2.46763   2.50139   2.52335   2.55625
 Alpha virt. eigenvalues --    2.57641   2.58104   2.59102   2.65180   2.66877
 Alpha virt. eigenvalues --    2.69832   2.72770   2.75033   2.80142   2.81535
 Alpha virt. eigenvalues --    2.82647   2.84869   2.86574   2.91947   2.93889
 Alpha virt. eigenvalues --    3.00904   3.02348   3.02558   3.03358   3.05196
 Alpha virt. eigenvalues --    3.05562   3.06757   3.09738   3.12057   3.20317
 Alpha virt. eigenvalues --    3.24211   3.27618   3.47913   3.53588   3.76277
          Condensed to atoms (all electrons):
               1          2          3          4          5          6
     1  C    5.854114   0.222987  -0.123388   0.391027  -0.011286  -0.000783
     2  C    0.222987   4.721868   0.705915  -0.048116  -0.000322  -0.000025
     3  O   -0.123388   0.705915   7.829287  -0.019420   0.000111   0.000012
     4  C    0.391027  -0.048116  -0.019420   5.328203  -0.029598   0.003316
     5  C   -0.011286  -0.000322   0.000111  -0.029598   4.528216   0.403871
     6  H   -0.000783  -0.000025   0.000012   0.003316   0.403871   0.583807
     7  H    0.021700   0.006535   0.000463  -0.005194   0.402535  -0.018766
     8  H   -0.001230  -0.000256  -0.000371  -0.002361   0.406022  -0.019212
     9  N   -0.112460  -0.002239   0.000170   0.101720   0.311948  -0.015819
    10  H   -0.005576   0.000059  -0.000024  -0.004757  -0.016305  -0.009022
    11  H    0.008565  -0.000002  -0.000007  -0.006601  -0.016390  -0.002975
    12  Cl  -0.079850  -0.001154  -0.000008   0.259695   0.002924  -0.000164
    13  C   -0.054254   0.001216  -0.004326   0.375035   0.000480  -0.000076
    14  H   -0.027723   0.003575   0.026568   0.012421   0.003336   0.000025
    15  H   -0.011751   0.000178   0.003201  -0.003208  -0.000132   0.000007
    16  H    0.011722   0.001208   0.001861  -0.031721  -0.001398  -0.000020
    17  C    0.328106  -0.009433   0.004041  -0.069870  -0.000587   0.000096
    18  H   -0.023749   0.007744  -0.000073  -0.017134  -0.000079  -0.000012
    19  H   -0.001130  -0.018809   0.000006   0.005741  -0.000052  -0.000002
    20  H   -0.023870  -0.012446   0.000042   0.000110   0.000973   0.000038
    21  C   -0.196859   0.425959  -0.087759   0.007545  -0.000095  -0.000000
    22  H    0.018865  -0.014932   0.013050  -0.000242  -0.000003   0.000000
    23  H   -0.006074   0.002475   0.002432  -0.000292   0.000141  -0.000001
    24  H    0.000927  -0.007603   0.001900   0.000643  -0.000002   0.000000
               7          8          9         10         11         12
     1  C    0.021700  -0.001230  -0.112460  -0.005576   0.008565  -0.079850
     2  C    0.006535  -0.000256  -0.002239   0.000059  -0.000002  -0.001154
     3  O    0.000463  -0.000371   0.000170  -0.000024  -0.000007  -0.000008
     4  C   -0.005194  -0.002361   0.101720  -0.004757  -0.006601   0.259695
     5  C    0.402535   0.406022   0.311948  -0.016305  -0.016390   0.002924
     6  H   -0.018766  -0.019212  -0.015819  -0.009022  -0.002975  -0.000164
     7  H    0.545239  -0.014947  -0.028503  -0.001913   0.006373   0.000391
     8  H   -0.014947   0.567768  -0.020959   0.005693  -0.008203   0.000020
     9  N   -0.028503  -0.020959   6.368444   0.338081   0.333023  -0.084335
    10  H   -0.001913   0.005693   0.338081   0.508942  -0.013062   0.009008
    11  H    0.006373  -0.008203   0.333023  -0.013062   0.514566   0.011188
    12  Cl   0.000391   0.000020  -0.084335   0.009008   0.011188  17.088729
    13  C   -0.002660   0.006041  -0.045278   0.004665  -0.004280  -0.062006
    14  H    0.000067   0.001880  -0.000252  -0.000132  -0.000646   0.002920
    15  H    0.000013  -0.000177   0.003599  -0.000232  -0.000095   0.002506
    16  H   -0.000022  -0.000116  -0.002427  -0.000051   0.004441   0.001375
    17  C   -0.002575   0.000065   0.003074   0.004795  -0.000488  -0.015595
    18  H    0.000026  -0.000015  -0.002700   0.004103  -0.000082   0.021685
    19  H    0.000130   0.000002  -0.000315  -0.000124   0.000017   0.001309
    20  H   -0.000667  -0.000009   0.002869  -0.000164  -0.000119   0.000009
    21  C    0.000130  -0.000036  -0.000100  -0.000027   0.000009  -0.000112
    22  H   -0.000058   0.000001   0.000004   0.000000  -0.000000   0.000002
    23  H   -0.000468   0.000007   0.000042  -0.000004  -0.000001  -0.000001
    24  H    0.000034   0.000001  -0.000010   0.000002   0.000000   0.000013
              13         14         15         16         17         18
     1  C   -0.054254  -0.027723  -0.011751   0.011722   0.328106  -0.023749
     2  C    0.001216   0.003575   0.000178   0.001208  -0.009433   0.007744
     3  O   -0.004326   0.026568   0.003201   0.001861   0.004041  -0.000073
     4  C    0.375035   0.012421  -0.003208  -0.031721  -0.069870  -0.017134
     5  C    0.000480   0.003336  -0.000132  -0.001398  -0.000587  -0.000079
     6  H   -0.000076   0.000025   0.000007  -0.000020   0.000096  -0.000012
     7  H   -0.002660   0.000067   0.000013  -0.000022  -0.002575   0.000026
     8  H    0.006041   0.001880  -0.000177  -0.000116   0.000065  -0.000015
     9  N   -0.045278  -0.000252   0.003599  -0.002427   0.003074  -0.002700
    10  H    0.004665  -0.000132  -0.000232  -0.000051   0.004795   0.004103
    11  H   -0.004280  -0.000646  -0.000095   0.004441  -0.000488  -0.000082
    12  Cl  -0.062006   0.002920   0.002506   0.001375  -0.015595   0.021685
    13  C    4.554022   0.362365   0.391273   0.368321   0.006868   0.001208
    14  H    0.362365   0.575901  -0.010846  -0.017800  -0.000124  -0.000106
    15  H    0.391273  -0.010846   0.573240  -0.020231   0.000023  -0.000014
    16  H    0.368321  -0.017800  -0.020231   0.660425  -0.000257  -0.000025
    17  C    0.006868  -0.000124   0.000023  -0.000257   4.564955   0.383408
    18  H    0.001208  -0.000106  -0.000014  -0.000025   0.383408   0.651738
    19  H   -0.000249  -0.000017   0.000033  -0.000001   0.372898  -0.016994
    20  H   -0.000227   0.000046  -0.000013   0.000013   0.385815  -0.027085
    21  C    0.000426   0.001121   0.000020   0.000063   0.010202  -0.000333
    22  H   -0.000058  -0.000024   0.000007  -0.000003  -0.000481  -0.000016
    23  H    0.000041  -0.000083   0.000002  -0.000002   0.006540   0.000311
    24  H   -0.000051  -0.000019  -0.000021  -0.000003  -0.001024   0.000155
              19         20         21         22         23         24
     1  C   -0.001130  -0.023870  -0.196859   0.018865  -0.006074   0.000927
     2  C   -0.018809  -0.012446   0.425959  -0.014932   0.002475  -0.007603
     3  O    0.000006   0.000042  -0.087759   0.013050   0.002432   0.001900
     4  C    0.005741   0.000110   0.007545  -0.000242  -0.000292   0.000643
     5  C   -0.000052   0.000973  -0.000095  -0.000003   0.000141  -0.000002
     6  H   -0.000002   0.000038  -0.000000   0.000000  -0.000001   0.000000
     7  H    0.000130  -0.000667   0.000130  -0.000058  -0.000468   0.000034
     8  H    0.000002  -0.000009  -0.000036   0.000001   0.000007   0.000001
     9  N   -0.000315   0.002869  -0.000100   0.000004   0.000042  -0.000010
    10  H   -0.000124  -0.000164  -0.000027   0.000000  -0.000004   0.000002
    11  H    0.000017  -0.000119   0.000009  -0.000000  -0.000001   0.000000
    12  Cl   0.001309   0.000009  -0.000112   0.000002  -0.000001   0.000013
    13  C   -0.000249  -0.000227   0.000426  -0.000058   0.000041  -0.000051
    14  H   -0.000017   0.000046   0.001121  -0.000024  -0.000083  -0.000019
    15  H    0.000033  -0.000013   0.000020   0.000007   0.000002  -0.000021
    16  H   -0.000001   0.000013   0.000063  -0.000003  -0.000002  -0.000003
    17  C    0.372898   0.385815   0.010202  -0.000481   0.006540  -0.001024
    18  H   -0.016994  -0.027085  -0.000333  -0.000016   0.000311   0.000155
    19  H    0.647457  -0.029249   0.010670   0.000056  -0.003364   0.001460
    20  H   -0.029249   0.682711   0.002818   0.000068   0.001501  -0.001339
    21  C    0.010670   0.002818   4.780228   0.349238   0.351548   0.366442
    22  H    0.000056   0.000068   0.349238   0.628613  -0.014961  -0.013191
    23  H   -0.003364   0.001501   0.351548  -0.014961   0.644148  -0.016177
    24  H    0.001460  -0.001339   0.366442  -0.013191  -0.016177   0.621239
 Mulliken charges:
               1
     1  C   -0.178030
     2  C    0.015615
     3  O   -0.353683
     4  C   -0.246944
     5  C    0.015695
     6  H    0.075706
     7  H    0.092137
     8  H    0.080391
     9  N   -0.147578
    10  H    0.176042
    11  H    0.174768
    12  Cl  -0.158550
    13  C    0.101503
    14  H    0.067546
    15  H    0.072617
    16  H    0.024646
    17  C    0.029546
    18  H    0.018038
    19  H    0.030527
    20  H    0.018174
    21  C   -0.021098
    22  H    0.034066
    23  H    0.032241
    24  H    0.046626
 Sum of Mulliken charges =  -0.00000
 Mulliken charges with hydrogens summed into heavy atoms:
               1
     1  C   -0.178030
     2  C    0.015615
     3  O   -0.353683
     4  C   -0.246944
     5  C    0.263928
     9  N    0.203232
    12  Cl  -0.158550
    13  C    0.266312
    17  C    0.096286
    21  C    0.091835
 Electronic spatial extent (au):  <R**2>=           1844.8180
 Charge=             -0.0000 electrons
 Dipole moment (field-independent basis, Debye):
    X=              4.9605    Y=              2.7826    Z=             -4.8835  Tot=              7.4965
 Quadrupole moment (field-independent basis, Debye-Ang):
   XX=            -70.4245   YY=            -66.8930   ZZ=            -67.6875
   XY=             10.8631   XZ=              1.0722   YZ=             -4.9400
 Traceless Quadrupole moment (field-independent basis, Debye-Ang):
   XX=             -2.0895   YY=              1.4420   ZZ=              0.6475
   XY=             10.8631   XZ=              1.0722   YZ=             -4.9400
 Octapole moment (field-independent basis, Debye-Ang**2):
  XXX=             31.3897  YYY=             16.7810  ZZZ=             -8.0327  XYY=             11.3725
  XXY=              4.1612  XXZ=            -18.2741  XZZ=             17.7812  YZZ=              4.3550
  YYZ=             -7.7309  XYZ=              4.0580
 Hexadecapole moment (field-independent basis, Debye-Ang**3):
 XXXX=          -1251.2202 YYYY=           -615.3137 ZZZZ=           -475.1839 XXXY=             29.5899
 XXXZ=             -8.1946 YYYX=              9.1778 YYYZ=            -19.3664 ZZZX=            -10.9391
 ZZZY=            -23.4359 XXYY=           -313.2647 XXZZ=           -300.0687 YYZZ=           -186.6008
 XXYZ=            -18.5857 YYXZ=             -4.1055 ZZXY=              9.5517
 N-N= 6.706508351032D+02 E-N=-3.375346914617D+03  KE= 8.592686858775D+02
 Unable to Open any file for archive entry.
 1\1\GINC-NODE-001\FTS\RwB97XD\Gen\C7H14Cl1N1O1\JP2658\30-Dec-2023\0\\#
  wb97xd chkbasis guess=read geom=allchk scrf=(iefpcm,solvent=toluene) 
 opt=(readfc,ts,noeigen,maxcycles=50,maxstep=10)\\TS-898.out\\0,1\C,-0.
 6013483364,-0.2660913479,-0.3376225673\C,-1.8571338927,0.0004078341,0.
 3210692066\O,-2.0069319597,0.4015662352,1.4811494858\C,0.6255019101,-0
 .0634517161,0.3343354673\C,0.6819388939,2.580237386,-0.2786010563\H,1.
 0292437896,3.3438714437,-0.9867552063\H,-0.3650666527,2.3196443078,-0.
 4945569578\H,0.7482192586,2.971146308,0.7432144638\N,1.4704147342,1.35
 5550795,-0.3863983008\H,1.6007330089,1.0806152657,-1.3615849677\H,2.40
 26351829,1.4429193574,0.023433171\Cl,1.9777649259,-1.2691752743,-0.087
 8467541\C,0.7078061835,0.2224599089,1.811410601\H,0.0699070882,1.07285
 35065,2.0739892602\H,0.3121967852,-0.6407011961,2.3620099136\H,1.75021
 36471,0.3905693925,2.1165136173\C,-0.593642873,-0.6710536767,-1.797587
 4119\H,0.4165932412,-0.9514438009,-2.1275789435\H,-1.2298612771,-1.548
 5676467,-1.9968413513\H,-0.9489575059,0.1303042875,-2.4722542748\C,-3.
 1167948702,-0.2466406932,-0.5093881262\H,-3.9893069904,0.0175583052,0.
 1009620156\H,-3.1237301383,0.3532647149,-1.432672705\H,-3.195014153,-1
 .3026036966,-0.8120685791\\Version=ES64L-G16RevC.01\State=1-A\HF=-864.
 737844\RMSD=7.710e-09\RMSF=4.350e-06\Dipole=1.9862796,1.7734828,-1.268
 0876\Quadrupole=-1.6652713,3.6454373,-1.980166,7.1216945,4.014244,-2.1
 041103\PG=C01 [X(C7H14Cl1N1O1)]\\@
 The archive entry for this job was punched.


 SCIENCE AND PEACE WILL TRIUMPH OVER IGNORANCE AND WAR

                          -- PASTEUR
 Job cpu time:       0 days  2 hours 40 minutes  6.1 seconds.
 Elapsed time:       0 days  0 hours 13 minutes 33.5 seconds.
 File lengths (MBytes):  RWF=    126 Int=      0 D2E=      0 Chk=     10 Scr=      1
 Normal termination of Gaussian 16 at Sat Dec 30 16:42:22 2023.
