Unloading slurm/anatra/current
  ERROR: No such file or directory on
    '/cm/local/modulefiles/slurm/anatra/current'
environment: line 0: unalias: gv: not found
environment: line 0: unalias: sl: not found
 Entering Gaussian System, Link 0=g16
 Initial command:
 /apps/gaussian/g16/C.01/g16/l1.exe "/local/jobs/1157675/Gau-3101603.inp" -scrdir="/local/jobs/1157675/"
 Entering Link 1 = /apps/gaussian/g16/C.01/g16/l1.exe PID=   3101606.
  
 Copyright (c) 1988-2019, Gaussian, Inc.  All Rights Reserved.
  
 This is part of the Gaussian(R) 16 program.  It is based on
 the Gaussian(R) 09 system (copyright 2009, Gaussian, Inc.),
 the Gaussian(R) 03 system (copyright 2003, Gaussian, Inc.),
 the Gaussian(R) 98 system (copyright 1998, Gaussian, Inc.),
 the Gaussian(R) 94 system (copyright 1995, Gaussian, Inc.),
 the Gaussian 92(TM) system (copyright 1992, Gaussian, Inc.),
 the Gaussian 90(TM) system (copyright 1990, Gaussian, Inc.),
 the Gaussian 88(TM) system (copyright 1988, Gaussian, Inc.),
 the Gaussian 86(TM) system (copyright 1986, Carnegie Mellon
 University), and the Gaussian 82(TM) system (copyright 1983,
 Carnegie Mellon University). Gaussian is a federally registered
 trademark of Gaussian, Inc.
  
 This software contains proprietary and confidential information,
 including trade secrets, belonging to Gaussian, Inc.
  
 This software is provided under written license and may be
 used, copied, transmitted, or stored only in accord with that
 written license.
  
 The following legend is applicable only to US Government
 contracts under FAR:
  
                    RESTRICTED RIGHTS LEGEND
  
 Use, reproduction and disclosure by the US Government is
 subject to restrictions as set forth in subparagraphs (a)
 and (c) of the Commercial Computer Software - Restricted
 Rights clause in FAR 52.227-19.
  
 Gaussian, Inc.
 340 Quinnipiac St., Bldg. 40, Wallingford CT 06492
  
  
 ---------------------------------------------------------------
 Warning -- This program may not be used in any manner that
 competes with the business of Gaussian, Inc. or will provide
 assistance to any competitor of Gaussian, Inc.  The licensee
 of this program is prohibited from giving any competitor of
 Gaussian, Inc. access to this program.  By using this program,
 the user acknowledges that Gaussian, Inc. is engaged in the
 business of creating and licensing software in the field of
 computational chemistry and represents and warrants to the
 licensee that it is not a competitor of Gaussian, Inc. and that
 it will not use this program in any manner prohibited above.
 ---------------------------------------------------------------
  

 Cite this work as:
 Gaussian 16, Revision C.01,
 M. J. Frisch, G. W. Trucks, H. B. Schlegel, G. E. Scuseria, 
 M. A. Robb, J. R. Cheeseman, G. Scalmani, V. Barone, 
 G. A. Petersson, H. Nakatsuji, X. Li, M. Caricato, A. V. Marenich, 
 J. Bloino, B. G. Janesko, R. Gomperts, B. Mennucci, H. P. Hratchian, 
 J. V. Ortiz, A. F. Izmaylov, J. L. Sonnenberg, D. Williams-Young, 
 F. Ding, F. Lipparini, F. Egidi, J. Goings, B. Peng, A. Petrone, 
 T. Henderson, D. Ranasinghe, V. G. Zakrzewski, J. Gao, N. Rega, 
 G. Zheng, W. Liang, M. Hada, M. Ehara, K. Toyota, R. Fukuda, 
 J. Hasegawa, M. Ishida, T. Nakajima, Y. Honda, O. Kitao, H. Nakai, 
 T. Vreven, K. Throssell, J. A. Montgomery, Jr., J. E. Peralta, 
 F. Ogliaro, M. J. Bearpark, J. J. Heyd, E. N. Brothers, K. N. Kudin, 
 V. N. Staroverov, T. A. Keith, R. Kobayashi, J. Normand, 
 K. Raghavachari, A. P. Rendell, J. C. Burant, S. S. Iyengar, 
 J. Tomasi, M. Cossi, J. M. Millam, M. Klene, C. Adamo, R. Cammi, 
 J. W. Ochterski, R. L. Martin, K. Morokuma, O. Farkas, 
 J. B. Foresman, and D. J. Fox, Gaussian, Inc., Wallingford CT, 2019.
 
 ******************************************
 Gaussian 16:  ES64L-G16RevC.01  3-Jul-2019
                16-Jan-2024 
 ******************************************
 %nprocshared=12
 Will use up to   12 processors via shared memory.
 %mem=48GB
 ----------------------------------------------------------------------
 # external="~/scripts/MiMe -H 'hf def2svp' -EF 'wb97xd def2svp' -c 12 
 -m 48GB" opt=(calcall,ts,noeigen,maxcycles=50,maxstep=10,nomicro)
 ----------------------------------------------------------------------
 1/5=1,6=50,8=10,10=4,11=1,18=20,26=1,38=1/1,3;
 2/9=110,12=2,17=6,18=5,40=1/2;
 3/11=9,25=1,30=1,41=9900000,43=2,71=2,140=1/1;
 4/20=17,22=2,24=3,113=1,114=1/2;
 6/7=2,8=2,9=2,10=2,18=1/1;
 7/25=1,44=-1/16;
 1/5=1,6=50,8=10,10=4,11=1,18=20,26=1/3(3);
 2/9=110/2;
 7/8=1,9=1,25=1,44=-1/16;
 99//99;
 2/9=110/2;
 3/11=9,25=1,30=1,41=9900000,43=2,71=2,140=1/1;
 4/16=2,20=17,22=2,24=3,113=1,114=1/2;
 7/25=1,44=-1/16;
 1/5=1,6=50,8=10,10=4,11=1,18=20,26=1/3(-4);
 2/9=110/2;
 6/7=2,8=2,9=2,10=2,18=1/1;
 7/8=1,9=1,25=1,44=-1/16;
 99//99;
 -----
 *****
 -----
 Symbolic Z-matrix:
 Charge =  0 Multiplicity = 1
 O                     1.4571    1.0277   -0.4703 
 C                    -0.2447    1.596     0.2715 
 C                     0.5243   -1.1064    1.1767 
 C                    -0.9704    0.443     0.8253 
 C                     1.7089   -0.117    -0.8424 
 C                     1.2547   -1.2973   -0.0698 
 H                     2.2458   -0.3433   -1.7784 
 H                     1.0475   -0.4791    1.9054 
 H                     1.2246   -2.2497   -0.583 
 H                     0.1869    2.2996    0.9795 
 H                    -0.5702    1.9784   -0.6958 
 H                    -1.207     0.503     1.8865 
 C                    -2.0063   -0.2391   -0.0068 
 O                    -1.9637   -0.3005   -1.2288 
 H                     0.0393   -1.9945    1.5795 
 H                    -2.818    -0.7085    0.5735 
 
 Add virtual bond connecting atoms C2         and O1         Dist= 3.67D+00.

 GradGradGradGradGradGradGradGradGradGradGradGradGradGradGradGradGradGrad
 Berny optimization.
 Initialization pass.
                           ----------------------------
                           !    Initial Parameters    !
                           ! (Angstroms and Degrees)  !
 --------------------------                            --------------------------
 ! Name  Definition              Value          Derivative Info.                !
 --------------------------------------------------------------------------------
 ! R1    R(1,2)                  1.9415         calculate D2E/DX2 analytically  !
 ! R2    R(1,5)                  1.2297         calculate D2E/DX2 analytically  !
 ! R3    R(2,4)                  1.4706         calculate D2E/DX2 analytically  !
 ! R4    R(2,10)                 1.0875         calculate D2E/DX2 analytically  !
 ! R5    R(2,11)                 1.0899         calculate D2E/DX2 analytically  !
 ! R6    R(3,6)                  1.4573         calculate D2E/DX2 analytically  !
 ! R7    R(3,8)                  1.0946         calculate D2E/DX2 analytically  !
 ! R8    R(3,15)                 1.0891         calculate D2E/DX2 analytically  !
 ! R9    R(4,12)                 1.0889         calculate D2E/DX2 analytically  !
 ! R10   R(4,13)                 1.4936         calculate D2E/DX2 analytically  !
 ! R11   R(5,6)                  1.482          calculate D2E/DX2 analytically  !
 ! R12   R(5,7)                  1.1025         calculate D2E/DX2 analytically  !
 ! R13   R(6,9)                  1.0823         calculate D2E/DX2 analytically  !
 ! R14   R(13,14)                1.2243         calculate D2E/DX2 analytically  !
 ! R15   R(13,16)                1.1027         calculate D2E/DX2 analytically  !
 ! A1    A(2,1,5)              124.5813         calculate D2E/DX2 analytically  !
 ! A2    A(1,2,4)              110.2997         calculate D2E/DX2 analytically  !
 ! A3    A(1,2,10)              95.1782         calculate D2E/DX2 analytically  !
 ! A4    A(1,2,11)              91.4545         calculate D2E/DX2 analytically  !
 ! A5    A(4,2,10)             117.2544         calculate D2E/DX2 analytically  !
 ! A6    A(4,2,11)             117.5115         calculate D2E/DX2 analytically  !
 ! A7    A(10,2,11)            117.9918         calculate D2E/DX2 analytically  !
 ! A8    A(6,3,8)              113.886          calculate D2E/DX2 analytically  !
 ! A9    A(6,3,15)             115.6401         calculate D2E/DX2 analytically  !
 ! A10   A(8,3,15)             115.7174         calculate D2E/DX2 analytically  !
 ! A11   A(2,4,12)             115.5318         calculate D2E/DX2 analytically  !
 ! A12   A(2,4,13)             119.3742         calculate D2E/DX2 analytically  !
 ! A13   A(12,4,13)            114.6711         calculate D2E/DX2 analytically  !
 ! A14   A(1,5,6)              121.3901         calculate D2E/DX2 analytically  !
 ! A15   A(1,5,7)              123.207          calculate D2E/DX2 analytically  !
 ! A16   A(6,5,7)              115.3633         calculate D2E/DX2 analytically  !
 ! A17   A(3,6,5)              119.6827         calculate D2E/DX2 analytically  !
 ! A18   A(3,6,9)              120.4595         calculate D2E/DX2 analytically  !
 ! A19   A(5,6,9)              117.527          calculate D2E/DX2 analytically  !
 ! A20   A(4,13,14)            123.7007         calculate D2E/DX2 analytically  !
 ! A21   A(4,13,16)            114.3155         calculate D2E/DX2 analytically  !
 ! A22   A(14,13,16)           121.9743         calculate D2E/DX2 analytically  !
 ! D1    D(5,1,2,4)             22.8218         calculate D2E/DX2 analytically  !
 ! D2    D(5,1,2,10)           144.4087         calculate D2E/DX2 analytically  !
 ! D3    D(5,1,2,11)           -97.3151         calculate D2E/DX2 analytically  !
 ! D4    D(2,1,5,6)            -41.0115         calculate D2E/DX2 analytically  !
 ! D5    D(2,1,5,7)            136.5934         calculate D2E/DX2 analytically  !
 ! D6    D(1,2,4,12)           120.4906         calculate D2E/DX2 analytically  !
 ! D7    D(1,2,4,13)           -96.409          calculate D2E/DX2 analytically  !
 ! D8    D(10,2,4,12)           13.1052         calculate D2E/DX2 analytically  !
 ! D9    D(10,2,4,13)          156.2056         calculate D2E/DX2 analytically  !
 ! D10   D(11,2,4,12)         -136.6141         calculate D2E/DX2 analytically  !
 ! D11   D(11,2,4,13)            6.4863         calculate D2E/DX2 analytically  !
 ! D12   D(8,3,6,5)            -54.9362         calculate D2E/DX2 analytically  !
 ! D13   D(8,3,6,9)            142.822          calculate D2E/DX2 analytically  !
 ! D14   D(15,3,6,5)           167.4198         calculate D2E/DX2 analytically  !
 ! D15   D(15,3,6,9)             5.1779         calculate D2E/DX2 analytically  !
 ! D16   D(2,4,13,14)           30.3105         calculate D2E/DX2 analytically  !
 ! D17   D(2,4,13,16)         -150.7955         calculate D2E/DX2 analytically  !
 ! D18   D(12,4,13,14)         173.712          calculate D2E/DX2 analytically  !
 ! D19   D(12,4,13,16)          -7.394          calculate D2E/DX2 analytically  !
 ! D20   D(1,5,6,3)             -1.6488         calculate D2E/DX2 analytically  !
 ! D21   D(1,5,6,9)            161.1057         calculate D2E/DX2 analytically  !
 ! D22   D(7,5,6,3)           -179.4312         calculate D2E/DX2 analytically  !
 ! D23   D(7,5,6,9)            -16.6767         calculate D2E/DX2 analytically  !
 --------------------------------------------------------------------------------
 Trust Radius=1.00D-01 FncErr=1.00D-07 GrdErr=1.00D-07 EigMax=2.50D+02 EigMin=1.00D-04
 Number of steps in this run=     50 maximum allowed number of steps=    100.
 Search for a saddle point of order  1.
 GradGradGradGradGradGradGradGradGradGradGradGradGradGradGradGradGradGrad

                          Input orientation:                          
 ---------------------------------------------------------------------
 Center     Atomic      Atomic             Coordinates (Angstroms)
 Number     Number       Type             X           Y           Z
 ---------------------------------------------------------------------
      1          8           0        1.457100    1.027700   -0.470300
      2          6           0       -0.244700    1.596000    0.271500
      3          6           0        0.524300   -1.106400    1.176700
      4          6           0       -0.970400    0.443000    0.825300
      5          6           0        1.708900   -0.117000   -0.842400
      6          6           0        1.254700   -1.297300   -0.069800
      7          1           0        2.245800   -0.343300   -1.778400
      8          1           0        1.047500   -0.479100    1.905400
      9          1           0        1.224600   -2.249700   -0.583000
     10          1           0        0.186900    2.299600    0.979500
     11          1           0       -0.570200    1.978400   -0.695800
     12          1           0       -1.207000    0.503000    1.886500
     13          6           0       -2.006300   -0.239100   -0.006800
     14          8           0       -1.963700   -0.300500   -1.228800
     15          1           0        0.039300   -1.994500    1.579500
     16          1           0       -2.818000   -0.708500    0.573500
 ---------------------------------------------------------------------
                    Distance matrix (angstroms):
                    1          2          3          4          5
     1  O    0.000000
     2  C    1.941483   0.000000
     3  C    2.852562   2.951900   0.000000
     4  C    2.813043   1.470627   2.181341   0.000000
     5  C    1.229715   2.826959   2.541447   3.205226   0.000000
     6  C    2.367909   3.276564   1.457288   2.963261   1.481997
     7  H    2.052514   3.763717   3.504069   4.212062   1.102529
     8  H    2.842916   2.940315   1.094645   2.467550   2.849381
     9  H    3.287569   4.204571   2.212261   3.748595   2.202327
    10  H    2.309341   1.087472   3.428347   2.193190   3.387589
    11  H    2.250472   1.089885   3.770965   2.198035   3.099434
    12  H    3.595448   2.174602   2.468073   1.088910   4.041506
    13  C    3.716820   2.558960   2.925204   1.493566   3.809967
    14  O    3.747174   2.966913   3.553315   2.399742   3.697427
    15  H    3.917337   3.831868   1.089126   2.744033   3.489723
    16  H    4.730792   3.467535   3.419524   2.191570   4.779903
                    6          7          8          9         10
     6  C    0.000000
     7  H    2.193561   0.000000
     8  H    2.147975   3.876177   0.000000
     9  H    1.082287   2.471071   3.059170   0.000000
    10  H    3.896013   4.339355   3.052720   4.920809   0.000000
    11  H    3.801624   3.806858   3.927149   4.594656   1.866280
    12  H    3.623280   5.105834   2.459197   4.425886   2.448138
    13  C    3.428976   4.607578   3.611067   3.848796   3.496843
    14  O    3.563003   4.245443   4.349992   3.792321   4.032640
    15  H    2.164134   4.344030   1.849085   2.479207   4.338327
    16  H    4.165022   5.595255   4.094957   4.478326   4.271174
                   11         12         13         14         15
    11  H    0.000000
    12  H    3.041479   0.000000
    13  C    2.730277   2.184989   0.000000
    14  O    2.723842   3.305042   1.224283   0.000000
    15  H    4.618703   2.808028   3.127660   3.842941   0.000000
    16  H    3.726011   2.405623   1.102697   2.035824   3.290896
                   16
    16  H    0.000000
 Stoichiometry    C6H8O2
 Framework group  C1[X(C6H8O2)]
 Deg. of freedom    42
 Full point group                 C1      NOp   1
 Largest Abelian subgroup         C1      NOp   1
 Largest concise Abelian subgroup C1      NOp   1
                         Standard orientation:                         
 ---------------------------------------------------------------------
 Center     Atomic      Atomic             Coordinates (Angstroms)
 Number     Number       Type             X           Y           Z
 ---------------------------------------------------------------------
      1          8           0        1.456663    1.150187   -0.166589
      2          6           0       -0.295156    1.484708    0.600602
      3          6           0        0.577324   -1.309812    0.978956
      4          6           0       -0.980385    0.214072    0.881122
      5          6           0        1.777583    0.115798   -0.749039
      6          6           0        1.357444   -1.214233   -0.248222
      7          1           0        2.355984    0.105909   -1.687615
      8          1           0        1.043980   -0.820927    1.840043
      9          1           0        1.392065   -2.043889   -0.942352
     10          1           0        0.076943    2.048562    1.452780
     11          1           0       -0.606967    2.040330   -0.283653
     12          1           0       -1.254887    0.048655    1.921800
     13          6           0       -1.952636   -0.329229   -0.114011
     14          8           0       -1.866360   -0.140930   -1.320646
     15          1           0        0.124155   -2.280601    1.174920
     16          1           0       -2.758742   -0.939929    0.325510
 ---------------------------------------------------------------------
 Rotational constants (GHZ):           2.7622736           1.6518644           1.4942764
 Standard basis: STO-3G (5D, 7F)
 There are    48 symmetry adapted cartesian basis functions of A   symmetry.
 There are    48 symmetry adapted basis functions of A   symmetry.
    48 basis functions,   144 primitive gaussians,    48 cartesian basis functions
    30 alpha electrons       30 beta electrons
       nuclear repulsion energy       354.7323196843 Hartrees.
 NAtoms=   16 NActive=   16 NUniq=   16 SFac= 1.00D+00 NAtFMM=   60 NAOKFM=F Big=F
 Integral buffers will be    131072 words long.
 Raffenetti 1 integral format.
 Two-electron integral symmetry is turned on.
 External calculation of energy, first and second derivatives.
 Running external command "~/scripts/MiMe -H 'hf def2svp' -EF 'wb97xd def2svp' -c 12 -m 48GB R"
         input file       "/local/jobs/1157675/Gau-3101606.EIn"
         output file      "/local/jobs/1157675/Gau-3101606.EOu"
         message file     "/local/jobs/1157675/Gau-3101606.EMs"
         fchk file        "/local/jobs/1157675/Gau-3101606.EFC"
         mat. el file     "/local/jobs/1157675/Gau-3101606.EUF"
 Read checkpoint file Gau-3101606_H.chk type G16
 Write formatted file Gau-3101606_H.fchk

deriv: 2

spelevel: wb97xd def2svp
gradlevel: wb97xd def2svp
hesslevel: hf def2svp

runspe: False
runforce: True
runfreq: True

Running Gaussian ...

Parsing files ...
SPE file: Gau-3101606_F.out
FORCE file: Gau-3101606_F.out
HESS file: Gau-3101606_H.out

 ExternalExternalExternalExternalExternalExternalExternalExternalExternalExternal
 Output from external command:
 "~/scripts/MiMe -H 'hf def2svp' -EF 'wb97xd def2svp' -c 12 -m 48GB R /local/jobs/1157675/Gau-3101606.EIn /local/jobs/1157675/Gau-3101606.EOu /local/jobs/1157675/Gau-3101606.EMs /local/jobs/1157675/Gau-3101606.EFC /local/jobs/1157675/Gau-3101606.EUF"
  
 --------------------------------------------------
 Force calculation at wb97xd def2svp
 Hessian calculation at hf def2svp
 ExternalExternalExternalExternalExternalExternalExternalExternalExternalExternal

 Recovered energy= -383.350862788     dipole=      0.111200000000     -0.472700000000      2.721500000000
 Energy=    -383.350863     NIter=   0.
 Dipole moment=       0.111200      -0.472700       2.721500
 ***** Axes restored to original set *****
 -------------------------------------------------------------------
 Center     Atomic                   Forces (Hartrees/Bohr)
 Number     Number              X              Y              Z
 -------------------------------------------------------------------
      1        8          -0.000889665    0.042989829    0.009589756
      2        6          -0.017691260   -0.051241754    0.008575791
      3        6           0.032606798    0.006862943   -0.046765389
      4        6           0.013935932    0.018567655   -0.016312770
      5        6          -0.020384530   -0.081331990    0.036937832
      6        6          -0.011134781    0.049725083    0.007985470
      7        1          -0.002144649    0.007664424   -0.006353060
      8        1          -0.008803803    0.005326047    0.000881817
      9        1          -0.001567510   -0.006457468   -0.004267550
     10        1           0.003000679    0.001492007   -0.000928861
     11        1           0.002526325   -0.000292793   -0.001800962
     12        1           0.001019634    0.000014916    0.004672313
     13        6           0.024748504    0.010477005   -0.024056200
     14        8          -0.001929395    0.001653691    0.025999212
     15        1          -0.006487349    0.000170303    0.003095855
     16        1          -0.006804931   -0.005619897    0.002746746
 -------------------------------------------------------------------
 Cartesian Forces:  Max     0.081331990 RMS     0.021673989
 FormGI is forming the generalized inverse of G from B-inverse, IUseBI=4.

 GradGradGradGradGradGradGradGradGradGradGradGradGradGradGradGradGradGrad
 Berny optimization.
 Internal  Forces:  Max     0.092349869 RMS     0.021336701
 Search for a saddle point.
 Step number   1 out of a maximum of   50
 All quantities printed in internal units (Hartrees-Bohrs-Radians)
 Swapping is turned off.
 Second derivative matrix not updated -- analytic derivatives used.
 ITU=  0
     Eigenvalues ---   -0.84871   0.00818   0.01365   0.01552   0.02215
     Eigenvalues ---    0.02650   0.03349   0.04245   0.04374   0.06769
     Eigenvalues ---    0.06872   0.08344   0.09397   0.10319   0.10823
     Eigenvalues ---    0.11748   0.13448   0.13987   0.15819   0.16284
     Eigenvalues ---    0.16666   0.17236   0.20972   0.23323   0.24958
     Eigenvalues ---    0.26975   0.30484   0.32353   0.35406   0.35536
     Eigenvalues ---    0.35812   0.37151   0.38025   0.38558   0.38667
     Eigenvalues ---    0.39166   0.39869   0.50311   0.66594   0.78337
     Eigenvalues ---    0.83435   1.05623
 Eigenvectors required to have negative eigenvalues:
                          A1        R1        R6        D4        R11
   1                   -0.45880  -0.36578   0.28194   0.27810  -0.26744
                          R3        A14       A17       D5        D12
   1                    0.25690  -0.23857  -0.20508   0.19610  -0.16551
 RFO step:  Lambda0=1.103342367D-02 Lambda=-4.44811328D-02.
 Linear search not attempted -- option 19 set.
 Maximum step size (   0.100) exceeded in Quadratic search.
    -- Step size scaled by   0.305
 Iteration  1 RMS(Cart)=  0.02758648 RMS(Int)=  0.00028779
 Iteration  2 RMS(Cart)=  0.00036798 RMS(Int)=  0.00011280
 Iteration  3 RMS(Cart)=  0.00000010 RMS(Int)=  0.00011280
 Variable       Old X    -DE/DX   Delta X   Delta X   Delta X     New X
                                 (Linear)    (Quad)   (Total)
    R1        3.66887  -0.02421   0.00000   0.02392   0.02392   3.69279
    R2        2.32383   0.01569   0.00000   0.00898   0.00898   2.33280
    R3        2.77908  -0.03757   0.00000  -0.04784  -0.04784   2.73124
    R4        2.05502   0.00155   0.00000   0.00135   0.00135   2.05638
    R5        2.05958   0.00074   0.00000   0.00028   0.00028   2.05986
    R6        2.75388  -0.04366   0.00000  -0.04581  -0.04581   2.70806
    R7        2.06858  -0.00057   0.00000  -0.00137  -0.00137   2.06721
    R8        2.05815   0.00389   0.00000   0.00255   0.00255   2.06070
    R9        2.05774   0.00433   0.00000   0.00273   0.00273   2.06048
   R10        2.82243  -0.01669   0.00000  -0.01212  -0.01212   2.81032
   R11        2.80057  -0.06609   0.00000  -0.03911  -0.03911   2.76146
   R12        2.08348   0.00278   0.00000   0.00262   0.00262   2.08610
   R13        2.04523   0.00775   0.00000   0.00516   0.00516   2.05039
   R14        2.31356  -0.02610   0.00000  -0.00850  -0.00850   2.30506
   R15        2.08380   0.00885   0.00000   0.00777   0.00777   2.09157
    A1        2.17435  -0.09235   0.00000  -0.03292  -0.03292   2.14144
    A2        1.92509  -0.02602   0.00000   0.00885   0.00885   1.93394
    A3        1.66117   0.00893   0.00000  -0.01000  -0.01001   1.65116
    A4        1.59618   0.00518   0.00000  -0.01659  -0.01659   1.57960
    A5        2.04648   0.00056   0.00000   0.00710   0.00706   2.05354
    A6        2.05096   0.00829   0.00000   0.00625   0.00623   2.05719
    A7        2.05935  -0.00260   0.00000  -0.00490  -0.00502   2.05433
    A8        1.98769   0.01064   0.00000   0.02199   0.02159   2.00927
    A9        2.01830   0.00656   0.00000   0.01330   0.01289   2.03119
   A10        2.01965  -0.00426   0.00000  -0.00126  -0.00179   2.01786
   A11        2.01641   0.00307   0.00000   0.01014   0.01006   2.02647
   A12        2.08347  -0.00815   0.00000  -0.00335  -0.00342   2.08005
   A13        2.00139   0.00574   0.00000   0.00696   0.00687   2.00826
   A14        2.11866  -0.04313   0.00000   0.00813   0.00811   2.12677
   A15        2.15037   0.01302   0.00000  -0.01873  -0.01875   2.13162
   A16        2.01347   0.02956   0.00000   0.01022   0.01021   2.02368
   A17        2.08886  -0.03981   0.00000  -0.00219  -0.00220   2.08666
   A18        2.10242   0.01640   0.00000   0.00272   0.00270   2.10512
   A19        2.05123   0.01990   0.00000   0.00190   0.00189   2.05312
   A20        2.15898  -0.00054   0.00000   0.00155   0.00155   2.16053
   A21        1.99518   0.00268   0.00000   0.00283   0.00283   1.99801
   A22        2.12885  -0.00215   0.00000  -0.00436  -0.00436   2.12449
    D1        0.39832   0.01079   0.00000   0.00640   0.00639   0.40471
    D2        2.52041   0.00710   0.00000   0.01238   0.01229   2.53270
    D3       -1.69847   0.00578   0.00000   0.00474   0.00483  -1.69364
    D4       -0.71579   0.03512   0.00000  -0.00812  -0.00818  -0.72396
    D5        2.38401   0.01913   0.00000  -0.01934  -0.01928   2.36473
    D6        2.10296  -0.00009   0.00000  -0.00942  -0.00943   2.09353
    D7       -1.68265   0.00321   0.00000   0.01476   0.01479  -1.66787
    D8        0.22873   0.00549   0.00000  -0.00660  -0.00662   0.22211
    D9        2.72630   0.00878   0.00000   0.01758   0.01760   2.74390
   D10       -2.38437  -0.00568   0.00000  -0.02128  -0.02130  -2.40567
   D11        0.11321  -0.00238   0.00000   0.00291   0.00291   0.11612
   D12       -0.95882   0.00397   0.00000   0.04298   0.04313  -0.91568
   D13        2.49271   0.01354   0.00000   0.03367   0.03382   2.52653
   D14        2.92203  -0.00962   0.00000   0.00294   0.00279   2.92482
   D15        0.09037  -0.00005   0.00000  -0.00637  -0.00652   0.08385
   D16        0.52902  -0.00201   0.00000  -0.01444  -0.01445   0.51457
   D17       -2.63188  -0.00245   0.00000  -0.01393  -0.01393  -2.64581
   D18        3.03185   0.00038   0.00000   0.01070   0.01070   3.04254
   D19       -0.12905  -0.00006   0.00000   0.01121   0.01121  -0.11784
   D20       -0.02878   0.00508   0.00000  -0.00622  -0.00625  -0.03502
   D21        2.81182  -0.00443   0.00000   0.00300   0.00297   2.81479
   D22       -3.13166   0.02009   0.00000   0.00484   0.00487  -3.12680
   D23       -0.29106   0.01059   0.00000   0.01405   0.01408  -0.27698
         Item               Value     Threshold  Converged?
 Maximum Force            0.092350     0.000450     NO 
 RMS     Force            0.021337     0.000300     NO 
 Maximum Displacement     0.079639     0.001800     NO 
 RMS     Displacement     0.027614     0.001200     NO 
 Predicted change in Energy=-8.963906D-03
 GradGradGradGradGradGradGradGradGradGradGradGradGradGradGradGradGradGrad

                          Input orientation:                          
 ---------------------------------------------------------------------
 Center     Atomic      Atomic             Coordinates (Angstroms)
 Number     Number       Type             X           Y           Z
 ---------------------------------------------------------------------
      1          8           0        1.468346    1.025930   -0.458472
      2          6           0       -0.251439    1.579997    0.285851
      3          6           0        0.537960   -1.091038    1.167697
      4          6           0       -0.965884    0.446137    0.827005
      5          6           0        1.692359   -0.129264   -0.831639
      6          6           0        1.232639   -1.288589   -0.070048
      7          1           0        2.207578   -0.349552   -1.782772
      8          1           0        1.048733   -0.446728    1.889246
      9          1           0        1.182457   -2.241868   -0.585806
     10          1           0        0.182011    2.287035    0.990389
     11          1           0       -0.561237    1.960052   -0.687677
     12          1           0       -1.203930    0.491867    1.890077
     13          6           0       -1.978997   -0.242222   -0.016435
     14          8           0       -1.923906   -0.297340   -1.233730
     15          1           0        0.037442   -1.964363    1.587122
     16          1           0       -2.795332   -0.727754    0.551792
 ---------------------------------------------------------------------
                    Distance matrix (angstroms):
                    1          2          3          4          5
     1  O    0.000000
     2  C    1.954141   0.000000
     3  C    2.826941   2.921512   0.000000
     4  C    2.813199   1.445309   2.177274   0.000000
     5  C    1.234467   2.819345   2.500998   3.185662   0.000000
     6  C    2.358692   3.249298   1.433046   2.940660   1.461300
     7  H    2.047483   3.748217   3.470259   4.185084   1.103917
     8  H    2.802958   2.892912   1.093919   2.446272   2.813939
     9  H    3.282751   4.174027   2.194211   3.719782   2.187129
    10  H    2.311761   1.088189   3.401399   2.175606   3.382223
    11  H    2.245958   1.090033   3.736281   2.179435   3.076468
    12  H    3.597494   2.159816   2.462032   1.090357   4.022689
    13  C    3.699700   2.529094   2.908218   1.487155   3.762469
    14  O    3.722828   2.937800   3.529532   2.391066   3.642430
    15  H    3.895355   3.786720   1.090473   2.719365   3.457852
    16  H    4.719639   3.444972   3.409128   2.191037   4.734072
                    6          7          8          9         10
     6  C    0.000000
     7  H    2.183053   0.000000
     8  H    2.140417   3.851764   0.000000
     9  H    1.085019   2.462613   3.060441   0.000000
    10  H    3.874717   4.329542   3.005430   4.898597   0.000000
    11  H    3.762064   3.768268   3.876225   4.550492   1.864199
    12  H    3.598470   5.082932   2.440380   4.392966   2.439856
    13  C    3.378219   4.545204   3.583378   3.783855   3.475744
    14  O    3.507208   4.168134   4.314149   3.721624   4.007566
    15  H    2.152064   4.321261   1.848569   2.471778   4.295506
    16  H    4.114095   5.533746   4.079779   4.405619   4.259799
                   11         12         13         14         15
    11  H    0.000000
    12  H    3.035364   0.000000
    13  C    2.703816   2.185041   0.000000
    14  O    2.692742   3.301421   1.219787   0.000000
    15  H    4.575386   2.768727   3.098901   3.818777   0.000000
    16  H    3.708337   2.410610   1.106809   2.032911   3.259711
                   16
    16  H    0.000000
 Stoichiometry    C6H8O2
 Framework group  C1[X(C6H8O2)]
 Deg. of freedom    42
 Full point group                 C1      NOp   1
 Largest Abelian subgroup         C1      NOp   1
 Largest concise Abelian subgroup C1      NOp   1
                         Standard orientation:                         
 ---------------------------------------------------------------------
 Center     Atomic      Atomic             Coordinates (Angstroms)
 Number     Number       Type             X           Y           Z
 ---------------------------------------------------------------------
      1          8           0        1.461827    1.142026   -0.186796
      2          6           0       -0.305414    1.480181    0.575555
      3          6           0        0.586211   -1.269235    1.000937
      4          6           0       -0.979885    0.238398    0.878841
      5          6           0        1.753750    0.082748   -0.749486
      6          6           0        1.327957   -1.212572   -0.223898
      7          1           0        2.308528    0.058180   -1.703557
      8          1           0        1.042043   -0.743003    1.844711
      9          1           0        1.340684   -2.059608   -0.901862
     10          1           0        0.070679    2.067809    1.410661
     11          1           0       -0.603010    2.014488   -0.326733
     12          1           0       -1.252882    0.083220    1.923001
     13          6           0       -1.931251   -0.330816   -0.112384
     14          8           0       -1.835637   -0.165125   -1.317076
     15          1           0        0.116315   -2.224026    1.239067
     16          1           0       -2.740087   -0.944497    0.328304
 ---------------------------------------------------------------------
 Rotational constants (GHZ):           2.7911650           1.6783073           1.5247050
 Standard basis: STO-3G (5D, 7F)
 There are    48 symmetry adapted cartesian basis functions of A   symmetry.
 There are    48 symmetry adapted basis functions of A   symmetry.
    48 basis functions,   144 primitive gaussians,    48 cartesian basis functions
    30 alpha electrons       30 beta electrons
       nuclear repulsion energy       356.9878954944 Hartrees.
 NAtoms=   16 NActive=   16 NUniq=   16 SFac= 1.00D+00 NAtFMM=   60 NAOKFM=F Big=F
 Integral buffers will be    131072 words long.
 Raffenetti 1 integral format.
 Two-electron integral symmetry is turned on.
 External calculation of energy, first and second derivatives.
 Running external command "~/scripts/MiMe -H 'hf def2svp' -EF 'wb97xd def2svp' -c 12 -m 48GB R"
         input file       "/local/jobs/1157675/Gau-3101606.EIn"
         output file      "/local/jobs/1157675/Gau-3101606.EOu"
         message file     "/local/jobs/1157675/Gau-3101606.EMs"
         fchk file        "/local/jobs/1157675/Gau-3101606.EFC"
         mat. el file     "/local/jobs/1157675/Gau-3101606.EUF"
 Read checkpoint file Gau-3101606_H.chk type G16
 Write formatted file Gau-3101606_H.fchk

deriv: 2

spelevel: wb97xd def2svp
gradlevel: wb97xd def2svp
hesslevel: hf def2svp

runspe: False
runforce: True
runfreq: True

Running Gaussian ...

Parsing files ...
SPE file: Gau-3101606_F.out
FORCE file: Gau-3101606_F.out
HESS file: Gau-3101606_H.out

 ExternalExternalExternalExternalExternalExternalExternalExternalExternalExternal
 Output from external command:
 "~/scripts/MiMe -H 'hf def2svp' -EF 'wb97xd def2svp' -c 12 -m 48GB R /local/jobs/1157675/Gau-3101606.EIn /local/jobs/1157675/Gau-3101606.EOu /local/jobs/1157675/Gau-3101606.EMs /local/jobs/1157675/Gau-3101606.EFC /local/jobs/1157675/Gau-3101606.EUF"
  
 --------------------------------------------------
 Force calculation at wb97xd def2svp
 Hessian calculation at hf def2svp
 ExternalExternalExternalExternalExternalExternalExternalExternalExternalExternal

 Recovered energy= -383.359870755     dipole=      0.079800000000     -0.581300000000      2.720200000000
 Energy=    -383.359871     NIter=   0.
 Dipole moment=       0.079800      -0.581300       2.720200
 ***** Axes restored to original set *****
 -------------------------------------------------------------------
 Center     Atomic                   Forces (Hartrees/Bohr)
 Number     Number              X              Y              Z
 -------------------------------------------------------------------
      1        8           0.000230820    0.032878463    0.008746749
      2        6          -0.012435942   -0.037181467    0.005172142
      3        6           0.024331775    0.004210826   -0.033211931
      4        6           0.008734087    0.013088356   -0.010623937
      5        6          -0.015447577   -0.062459688    0.027600141
      6        6          -0.007600684    0.037277786    0.003445173
      7        1          -0.002286764    0.006465068   -0.005194265
      8        1          -0.007629636    0.005020152    0.000451618
      9        1          -0.001450757   -0.004573380   -0.003248092
     10        1           0.002545926    0.001303254   -0.001158988
     11        1           0.002520238   -0.000364302   -0.001670173
     12        1           0.001230906   -0.000530890    0.003571987
     13        6           0.018721197    0.007532735   -0.017089506
     14        8          -0.001329417    0.001295926    0.018638556
     15        1          -0.005080805    0.000587606    0.002758257
     16        1          -0.005053365   -0.004550443    0.001812268
 -------------------------------------------------------------------
 Cartesian Forces:  Max     0.062459688 RMS     0.016146153
 FormGI is forming the generalized inverse of G from B-inverse, IUseBI=4.

 GradGradGradGradGradGradGradGradGradGradGradGradGradGradGradGradGradGrad
 Berny optimization.
 Internal  Forces:  Max     0.073453992 RMS     0.016444544
 Search for a saddle point.
 Step number   2 out of a maximum of   50
 All quantities printed in internal units (Hartrees-Bohrs-Radians)
 Swapping is turned off.
 Second derivative matrix not updated -- analytic derivatives used.
 ITU=  0  0
     Eigenvalues ---   -0.71142   0.01158   0.01377   0.01712   0.02215
     Eigenvalues ---    0.02712   0.03465   0.04398   0.04596   0.06770
     Eigenvalues ---    0.06963   0.08509   0.09945   0.10430   0.10879
     Eigenvalues ---    0.12047   0.13530   0.14191   0.16005   0.16592
     Eigenvalues ---    0.16907   0.17254   0.21222   0.23861   0.25578
     Eigenvalues ---    0.27543   0.32345   0.34127   0.34911   0.35642
     Eigenvalues ---    0.37090   0.37726   0.38243   0.38599   0.38937
     Eigenvalues ---    0.39242   0.40090   0.55396   0.67401   0.76833
     Eigenvalues ---    0.85775   1.04793
 Eigenvectors required to have negative eigenvalues:
                          A1        R1        R6        R11       D4
   1                   -0.42997  -0.39912   0.29120  -0.27856   0.26702
                          R3        A14       A17       D5        D12
   1                    0.26413  -0.21521  -0.19200   0.19126  -0.18137
 RFO step:  Lambda0=7.524630266D-03 Lambda=-2.74569111D-02.
 Linear search not attempted -- option 19 set.
 Maximum step size (   0.100) exceeded in Quadratic search.
    -- Step size scaled by   0.407
 Iteration  1 RMS(Cart)=  0.03395189 RMS(Int)=  0.00045897
 Iteration  2 RMS(Cart)=  0.00068834 RMS(Int)=  0.00016218
 Iteration  3 RMS(Cart)=  0.00000034 RMS(Int)=  0.00016218
 Variable       Old X    -DE/DX   Delta X   Delta X   Delta X     New X
                                 (Linear)    (Quad)   (Total)
    R1        3.69279  -0.01916   0.00000   0.02494   0.02494   3.71773
    R2        2.33280   0.01209   0.00000   0.01070   0.01070   2.34350
    R3        2.73124  -0.02561   0.00000  -0.04200  -0.04200   2.68924
    R4        2.05638   0.00111   0.00000   0.00140   0.00140   2.05778
    R5        2.05986   0.00065   0.00000   0.00018   0.00018   2.06004
    R6        2.70806  -0.03020   0.00000  -0.04030  -0.04030   2.66777
    R7        2.06721  -0.00031   0.00000  -0.00174  -0.00174   2.06547
    R8        2.06070   0.00292   0.00000   0.00257   0.00257   2.06326
    R9        2.06048   0.00319   0.00000   0.00257   0.00257   2.06305
   R10        2.81032  -0.01229   0.00000  -0.01207  -0.01207   2.79825
   R11        2.76146  -0.05008   0.00000  -0.03833  -0.03833   2.72313
   R12        2.08610   0.00212   0.00000   0.00259   0.00259   2.08869
   R13        2.05039   0.00563   0.00000   0.00506   0.00506   2.05545
   R14        2.30506  -0.01872   0.00000  -0.00811  -0.00811   2.29695
   R15        2.09157   0.00665   0.00000   0.00827   0.00827   2.09984
    A1        2.14144  -0.07345   0.00000  -0.03668  -0.03668   2.10476
    A2        1.93394  -0.02084   0.00000   0.00941   0.00942   1.94336
    A3        1.65116   0.00730   0.00000  -0.01206  -0.01207   1.63909
    A4        1.57960   0.00361   0.00000  -0.01975  -0.01974   1.55986
    A5        2.05354   0.00078   0.00000   0.00861   0.00856   2.06209
    A6        2.05719   0.00660   0.00000   0.00739   0.00734   2.06454
    A7        2.05433  -0.00232   0.00000  -0.00569  -0.00587   2.04846
    A8        2.00927   0.00832   0.00000   0.02269   0.02210   2.03137
    A9        2.03119   0.00548   0.00000   0.01620   0.01562   2.04681
   A10        2.01786  -0.00375   0.00000  -0.00048  -0.00121   2.01665
   A11        2.02647   0.00278   0.00000   0.01292   0.01275   2.03923
   A12        2.08005  -0.00658   0.00000  -0.00358  -0.00375   2.07630
   A13        2.00826   0.00471   0.00000   0.00973   0.00954   2.01780
   A14        2.12677  -0.03377   0.00000   0.00745   0.00743   2.13420
   A15        2.13162   0.00986   0.00000  -0.02117  -0.02120   2.11042
   A16        2.02368   0.02336   0.00000   0.01308   0.01304   2.03672
   A17        2.08666  -0.03080   0.00000  -0.00541  -0.00543   2.08123
   A18        2.10512   0.01275   0.00000   0.00438   0.00436   2.10948
   A19        2.05312   0.01551   0.00000   0.00416   0.00414   2.05726
   A20        2.16053  -0.00108   0.00000   0.00132   0.00132   2.16185
   A21        1.99801   0.00256   0.00000   0.00346   0.00346   2.00147
   A22        2.12449  -0.00149   0.00000  -0.00477  -0.00477   2.11972
    D1        0.40471   0.00857   0.00000   0.01544   0.01544   0.42015
    D2        2.53270   0.00617   0.00000   0.02221   0.02208   2.55478
    D3       -1.69364   0.00456   0.00000   0.01397   0.01409  -1.67955
    D4       -0.72396   0.02699   0.00000  -0.01570  -0.01580  -0.73976
    D5        2.36473   0.01443   0.00000  -0.03043  -0.03034   2.33439
    D6        2.09353   0.00006   0.00000  -0.01482  -0.01483   2.07870
    D7       -1.66787   0.00332   0.00000   0.02000   0.02004  -1.64783
    D8        0.22211   0.00431   0.00000  -0.01072  -0.01074   0.21137
    D9        2.74390   0.00757   0.00000   0.02410   0.02414   2.76803
   D10       -2.40567  -0.00514   0.00000  -0.02968  -0.02973  -2.43540
   D11        0.11612  -0.00188   0.00000   0.00514   0.00515   0.12126
   D12       -0.91568   0.00439   0.00000   0.05801   0.05821  -0.85748
   D13        2.52653   0.01155   0.00000   0.04534   0.04553   2.57206
   D14        2.92482  -0.00741   0.00000   0.00731   0.00712   2.93194
   D15        0.08385  -0.00025   0.00000  -0.00536  -0.00555   0.07829
   D16        0.51457  -0.00194   0.00000  -0.02158  -0.02158   0.49299
   D17       -2.64581  -0.00247   0.00000  -0.02154  -0.02155  -2.66736
   D18        3.04254   0.00069   0.00000   0.01404   0.01404   3.05659
   D19       -0.11784   0.00016   0.00000   0.01408   0.01408  -0.10376
   D20       -0.03502   0.00376   0.00000  -0.00709  -0.00714  -0.04216
   D21        2.81479  -0.00335   0.00000   0.00531   0.00526   2.82005
   D22       -3.12680   0.01584   0.00000   0.00776   0.00781  -3.11899
   D23       -0.27698   0.00874   0.00000   0.02016   0.02020  -0.25678
         Item               Value     Threshold  Converged?
 Maximum Force            0.073454     0.000450     NO 
 RMS     Force            0.016445     0.000300     NO 
 Maximum Displacement     0.101902     0.001800     NO 
 RMS     Displacement     0.033894     0.001200     NO 
 Predicted change in Energy=-6.726078D-03
 GradGradGradGradGradGradGradGradGradGradGradGradGradGradGradGradGradGrad

                          Input orientation:                          
 ---------------------------------------------------------------------
 Center     Atomic      Atomic             Coordinates (Angstroms)
 Number     Number       Type             X           Y           Z
 ---------------------------------------------------------------------
      1          8           0        1.483905    1.023593   -0.440516
      2          6           0       -0.255900    1.564903    0.301427
      3          6           0        0.550351   -1.074171    1.160974
      4          6           0       -0.962912    0.449208    0.831073
      5          6           0        1.672931   -0.141567   -0.820767
      6          6           0        1.204410   -1.280751   -0.072917
      7          1           0        2.159238   -0.350461   -1.791090
      8          1           0        1.048570   -0.407230    1.869220
      9          1           0        1.128532   -2.233564   -0.592030
     10          1           0        0.179871    2.276269    1.001307
     11          1           0       -0.544293    1.940499   -0.680477
     12          1           0       -1.201847    0.477447    1.895948
     13          6           0       -1.946546   -0.249584   -0.027317
     14          8           0       -1.874480   -0.296940   -1.239746
     15          1           0        0.033564   -1.928612    1.602518
     16          1           0       -2.766595   -0.756740    0.524994
 ---------------------------------------------------------------------
                    Distance matrix (angstroms):
                    1          2          3          4          5
     1  O    0.000000
     2  C    1.967338   0.000000
     3  C    2.799448   2.890255   0.000000
     4  C    2.816695   1.423083   2.172437   0.000000
     5  C    1.240129   2.809226   2.461145   3.166268   0.000000
     6  C    2.350160   3.220309   1.411721   2.916717   1.441018
     7  H    2.041605   3.725606   3.439035   4.154880   1.105287
     8  H    2.751664   2.837063   1.092998   2.420185   2.774245
     9  H    3.279988   4.140443   2.179796   3.687360   2.173739
    10  H    2.312694   1.088930   3.374641   2.161732   3.375665
    11  H    2.238724   1.090128   3.698301   2.164249   3.044792
    12  H    3.601473   2.149389   2.453142   1.091717   4.003507
    13  C    3.682351   2.501743   2.885563   1.480770   3.706999
    14  O    3.696123   2.908862   3.499622   2.382433   3.575445
    15  H    3.872079   3.739154   1.091832   2.691119   3.428318
    16  H    4.708349   3.426893   3.392251   2.191180   4.679626
                    6          7          8          9         10
     6  C    0.000000
     7  H    2.174685   0.000000
     8  H    2.135233   3.825530   0.000000
     9  H    1.087699   2.458897   3.065884   0.000000
    10  H    3.854352   4.314521   2.951115   4.876195   0.000000
    11  H    3.715312   3.713629   3.814447   4.497663   1.861599
    12  H    3.571801   5.057329   2.418211   4.355490   2.438296
    13  C    3.315706   4.469735   3.548580   3.702862   3.458272
    14  O    3.436414   4.071575   4.268730   3.631547   3.982974
    15  H    2.144221   4.304140   1.848234   2.471435   4.250163
    16  H    4.049811   5.458309   4.060121   4.312861   4.255312
                   11         12         13         14         15
    11  H    0.000000
    12  H    3.034941   0.000000
    13  C    2.681305   2.186801   0.000000
    14  O    2.662389   3.299195   1.215493   0.000000
    15  H    4.529460   2.720563   3.065344   3.792289   0.000000
    16  H    3.696875   2.418919   1.111186   2.030171   3.221061
                   16
    16  H    0.000000
 Stoichiometry    C6H8O2
 Framework group  C1[X(C6H8O2)]
 Deg. of freedom    42
 Full point group                 C1      NOp   1
 Largest Abelian subgroup         C1      NOp   1
 Largest concise Abelian subgroup C1      NOp   1
                         Standard orientation:                         
 ---------------------------------------------------------------------
 Center     Atomic      Atomic             Coordinates (Angstroms)
 Number     Number       Type             X           Y           Z
 ---------------------------------------------------------------------
      1          8           0        1.474742    1.124488   -0.212881
      2          6           0       -0.308362    1.483685    0.536742
      3          6           0        0.587213   -1.218639    1.035702
      4          6           0       -0.981063    0.276047    0.874749
      5          6           0        1.725934    0.035246   -0.749886
      6          6           0        1.285960   -1.217975   -0.190964
      7          1           0        2.249462   -0.011242   -1.722211
      8          1           0        1.034471   -0.642677    1.849871
      9          1           0        1.267406   -2.087489   -0.844179
     10          1           0        0.074832    2.102336    1.346805
     11          1           0       -0.583773    1.986369   -0.390532
     12          1           0       -1.252432    0.139890    1.923399
     13          6           0       -1.907211   -0.328604   -0.109794
     14          8           0       -1.797268   -0.196444   -1.313068
     15          1           0        0.095605   -2.147747    1.330964
     16          1           0       -2.720188   -0.942353    0.334182
 ---------------------------------------------------------------------
 Rotational constants (GHZ):           2.8171914           1.7100593           1.5605889
 Standard basis: STO-3G (5D, 7F)
 There are    48 symmetry adapted cartesian basis functions of A   symmetry.
 There are    48 symmetry adapted basis functions of A   symmetry.
    48 basis functions,   144 primitive gaussians,    48 cartesian basis functions
    30 alpha electrons       30 beta electrons
       nuclear repulsion energy       359.3734835971 Hartrees.
 NAtoms=   16 NActive=   16 NUniq=   16 SFac= 1.00D+00 NAtFMM=   60 NAOKFM=F Big=F
 Integral buffers will be    131072 words long.
 Raffenetti 1 integral format.
 Two-electron integral symmetry is turned on.
 External calculation of energy, first and second derivatives.
 Running external command "~/scripts/MiMe -H 'hf def2svp' -EF 'wb97xd def2svp' -c 12 -m 48GB R"
         input file       "/local/jobs/1157675/Gau-3101606.EIn"
         output file      "/local/jobs/1157675/Gau-3101606.EOu"
         message file     "/local/jobs/1157675/Gau-3101606.EMs"
         fchk file        "/local/jobs/1157675/Gau-3101606.EFC"
         mat. el file     "/local/jobs/1157675/Gau-3101606.EUF"
 Read checkpoint file Gau-3101606_H.chk type G16
 Write formatted file Gau-3101606_H.fchk

deriv: 2

spelevel: wb97xd def2svp
gradlevel: wb97xd def2svp
hesslevel: hf def2svp

runspe: False
runforce: True
runfreq: True

Running Gaussian ...

Parsing files ...
SPE file: Gau-3101606_F.out
FORCE file: Gau-3101606_F.out
HESS file: Gau-3101606_H.out

 ExternalExternalExternalExternalExternalExternalExternalExternalExternalExternal
 Output from external command:
 "~/scripts/MiMe -H 'hf def2svp' -EF 'wb97xd def2svp' -c 12 -m 48GB R /local/jobs/1157675/Gau-3101606.EIn /local/jobs/1157675/Gau-3101606.EOu /local/jobs/1157675/Gau-3101606.EMs /local/jobs/1157675/Gau-3101606.EFC /local/jobs/1157675/Gau-3101606.EUF"
  
 --------------------------------------------------
 Force calculation at wb97xd def2svp
 Hessian calculation at hf def2svp
 ExternalExternalExternalExternalExternalExternalExternalExternalExternalExternal

 Recovered energy= -383.366705954     dipole=      0.016200000000     -0.659400000000      2.724500000000
 Energy=    -383.366706     NIter=   0.
 Dipole moment=       0.016200      -0.659400       2.724500
 ***** Axes restored to original set *****
 -------------------------------------------------------------------
 Center     Atomic                   Forces (Hartrees/Bohr)
 Number     Number              X              Y              Z
 -------------------------------------------------------------------
      1        8           0.001024363    0.021879704    0.008011180
      2        6          -0.006917532   -0.022751937    0.001832209
      3        6           0.015761562    0.001997488   -0.019625372
      4        6           0.003897668    0.007292135   -0.005244676
      5        6          -0.010313040   -0.041864899    0.017062558
      6        6          -0.004305227    0.024116442   -0.000219586
      7        1          -0.002229010    0.004905631   -0.003782412
      8        1          -0.005960333    0.004312636    0.000051577
      9        1          -0.001236681   -0.002735822   -0.002141262
     10        1           0.001885213    0.001044591   -0.001219322
     11        1           0.002181495   -0.000463577   -0.001409861
     12        1           0.001230129   -0.000758511    0.002383242
     13        6           0.012206268    0.004592456   -0.010282264
     14        8          -0.000567689    0.000979482    0.011415847
     15        1          -0.003479385    0.000831567    0.002240116
     16        1          -0.003177802   -0.003377386    0.000928024
 -------------------------------------------------------------------
 Cartesian Forces:  Max     0.041864899 RMS     0.010384406
 FormGI is forming the generalized inverse of G from B-inverse, IUseBI=4.

 GradGradGradGradGradGradGradGradGradGradGradGradGradGradGradGradGradGrad
 Berny optimization.
 Internal  Forces:  Max     0.052639853 RMS     0.011313285
 Search for a saddle point.
 Step number   3 out of a maximum of   50
 All quantities printed in internal units (Hartrees-Bohrs-Radians)
 Swapping is turned off.
 Second derivative matrix not updated -- analytic derivatives used.
 ITU=  0  0  0
     Eigenvalues ---   -0.56495   0.01323   0.01438   0.01878   0.02212
     Eigenvalues ---    0.02739   0.03597   0.04559   0.04795   0.06789
     Eigenvalues ---    0.07098   0.08686   0.10191   0.10744   0.11047
     Eigenvalues ---    0.12423   0.13591   0.14365   0.16200   0.16849
     Eigenvalues ---    0.17187   0.17386   0.21513   0.24368   0.26134
     Eigenvalues ---    0.27981   0.33275   0.34461   0.34896   0.36891
     Eigenvalues ---    0.37416   0.37779   0.38030   0.38559   0.38717
     Eigenvalues ---    0.38842   0.44416   0.59704   0.68812   0.76648
     Eigenvalues ---    0.87967   1.05973
 Eigenvectors required to have negative eigenvalues:
                          R1        A1        R6        R11       R3
   1                   -0.44275  -0.38554   0.29746  -0.28812   0.26893
                          D4        D12       R2        A14       D5
   1                    0.25148  -0.20223   0.18766  -0.18655   0.18364
 RFO step:  Lambda0=4.210422731D-03 Lambda=-1.43404604D-02.
 Linear search not attempted -- option 19 set.
 Maximum step size (   0.100) exceeded in Quadratic search.
    -- Step size scaled by   0.616
 Iteration  1 RMS(Cart)=  0.04528349 RMS(Int)=  0.00089538
 Iteration  2 RMS(Cart)=  0.00166585 RMS(Int)=  0.00025963
 Iteration  3 RMS(Cart)=  0.00000166 RMS(Int)=  0.00025963
 Iteration  4 RMS(Cart)=  0.00000000 RMS(Int)=  0.00025963
 Variable       Old X    -DE/DX   Delta X   Delta X   Delta X     New X
                                 (Linear)    (Quad)   (Total)
    R1        3.71773  -0.01380   0.00000   0.01595   0.01595   3.73368
    R2        2.34350   0.00810   0.00000   0.01336   0.01336   2.35687
    R3        2.68924  -0.01389   0.00000  -0.03422  -0.03422   2.65502
    R4        2.05778   0.00065   0.00000   0.00135   0.00135   2.05913
    R5        2.06004   0.00053   0.00000   0.00006   0.00006   2.06010
    R6        2.66777  -0.01703   0.00000  -0.03436  -0.03436   2.63341
    R7        2.06547  -0.00005   0.00000  -0.00228  -0.00228   2.06319
    R8        2.06326   0.00190   0.00000   0.00245   0.00245   2.06571
    R9        2.06305   0.00204   0.00000   0.00217   0.00217   2.06522
   R10        2.79825  -0.00785   0.00000  -0.01258  -0.01258   2.78567
   R11        2.72313  -0.03302   0.00000  -0.03699  -0.03699   2.68614
   R12        2.08869   0.00141   0.00000   0.00222   0.00222   2.09091
   R13        2.05545   0.00351   0.00000   0.00464   0.00464   2.06009
   R14        2.29695  -0.01146   0.00000  -0.00705  -0.00705   2.28989
   R15        2.09984   0.00435   0.00000   0.00855   0.00855   2.10839
    A1        2.10476  -0.05264   0.00000  -0.04082  -0.04082   2.06394
    A2        1.94336  -0.01532   0.00000   0.00975   0.00975   1.95311
    A3        1.63909   0.00563   0.00000  -0.01408  -0.01409   1.62499
    A4        1.55986   0.00218   0.00000  -0.02015  -0.02013   1.53973
    A5        2.06209   0.00086   0.00000   0.01035   0.01028   2.07238
    A6        2.06454   0.00468   0.00000   0.00710   0.00705   2.07158
    A7        2.04846  -0.00186   0.00000  -0.00680  -0.00700   2.04146
    A8        2.03137   0.00561   0.00000   0.02286   0.02191   2.05328
    A9        2.04681   0.00419   0.00000   0.02077   0.01982   2.06663
   A10        2.01665  -0.00295   0.00000   0.00122   0.00009   2.01674
   A11        2.03923   0.00229   0.00000   0.01744   0.01704   2.05627
   A12        2.07630  -0.00494   0.00000  -0.00447  -0.00486   2.07144
   A13        2.01780   0.00361   0.00000   0.01444   0.01400   2.03179
   A14        2.13420  -0.02403   0.00000   0.00451   0.00446   2.13866
   A15        2.11042   0.00687   0.00000  -0.02323  -0.02328   2.08715
   A16        2.03672   0.01664   0.00000   0.01762   0.01756   2.05428
   A17        2.08123  -0.02150   0.00000  -0.01125  -0.01129   2.06994
   A18        2.10948   0.00894   0.00000   0.00726   0.00722   2.11670
   A19        2.05726   0.01096   0.00000   0.00809   0.00806   2.06532
   A20        2.16185  -0.00163   0.00000   0.00048   0.00048   2.16233
   A21        2.00147   0.00237   0.00000   0.00472   0.00472   2.00618
   A22        2.11972  -0.00075   0.00000  -0.00523  -0.00523   2.11449
    D1        0.42015   0.00621   0.00000   0.03811   0.03811   0.45826
    D2        2.55478   0.00499   0.00000   0.04580   0.04566   2.60044
    D3       -1.67955   0.00341   0.00000   0.03722   0.03737  -1.64218
    D4       -0.73976   0.01811   0.00000  -0.03591  -0.03605  -0.77581
    D5        2.33439   0.00934   0.00000  -0.05530  -0.05516   2.27923
    D6        2.07870   0.00030   0.00000  -0.02670  -0.02674   2.05195
    D7       -1.64783   0.00324   0.00000   0.02649   0.02656  -1.62127
    D8        0.21137   0.00306   0.00000  -0.02135  -0.02140   0.18998
    D9        2.76803   0.00600   0.00000   0.03185   0.03191   2.79994
   D10       -2.43540  -0.00423   0.00000  -0.04204  -0.04212  -2.47751
   D11        0.12126  -0.00129   0.00000   0.01116   0.01119   0.13245
   D12       -0.85748   0.00424   0.00000   0.08287   0.08314  -0.77434
   D13        2.57206   0.00892   0.00000   0.06524   0.06550   2.63757
   D14        2.93194  -0.00499   0.00000   0.01483   0.01457   2.94650
   D15        0.07829  -0.00031   0.00000  -0.00280  -0.00306   0.07523
   D16        0.49299  -0.00164   0.00000  -0.03615  -0.03617   0.45682
   D17       -2.66736  -0.00232   0.00000  -0.03776  -0.03778  -2.70514
   D18        3.05659   0.00088   0.00000   0.01749   0.01750   3.07409
   D19       -0.10376   0.00020   0.00000   0.01588   0.01590  -0.08786
   D20       -0.04216   0.00244   0.00000  -0.00634  -0.00642  -0.04858
   D21        2.82005  -0.00222   0.00000   0.01075   0.01068   2.83073
   D22       -3.11899   0.01114   0.00000   0.01375   0.01383  -3.10516
   D23       -0.25678   0.00647   0.00000   0.03085   0.03092  -0.22586
         Item               Value     Threshold  Converged?
 Maximum Force            0.052640     0.000450     NO 
 RMS     Force            0.011313     0.000300     NO 
 Maximum Displacement     0.137933     0.001800     NO 
 RMS     Displacement     0.044950     0.001200     NO 
 Predicted change in Energy=-4.575734D-03
 GradGradGradGradGradGradGradGradGradGradGradGradGradGradGradGradGradGrad

                          Input orientation:                          
 ---------------------------------------------------------------------
 Center     Atomic      Atomic             Coordinates (Angstroms)
 Number     Number       Type             X           Y           Z
 ---------------------------------------------------------------------
      1          8           0        1.503804    1.018238   -0.405938
      2          6           0       -0.256067    1.551669    0.316564
      3          6           0        0.562820   -1.058867    1.158181
      4          6           0       -0.962836    0.455071    0.838010
      5          6           0        1.646389   -0.153769   -0.807906
      6          6           0        1.165797   -1.275677   -0.079303
      7          1           0        2.090582   -0.339362   -1.804152
      8          1           0        1.048065   -0.360295    1.842685
      9          1           0        1.055541   -2.224812   -0.604110
     10          1           0        0.180032    2.271126    1.009041
     11          1           0       -0.515418    1.916793   -0.677352
     12          1           0       -1.202219    0.463028    1.904307
     13          6           0       -1.905016   -0.261847   -0.040246
     14          8           0       -1.808476   -0.299082   -1.247580
     15          1           0        0.031352   -1.889237    1.630362
     16          1           0       -2.725550   -0.800679    0.490035
 ---------------------------------------------------------------------
                    Distance matrix (angstroms):
                    1          2          3          4          5
     1  O    0.000000
     2  C    1.975779   0.000000
     3  C    2.765191   2.862480   0.000000
     4  C    2.819376   1.404976   2.173050   0.000000
     5  C    1.247201   2.791467   2.420500   3.144485   0.000000
     6  C    2.341578   3.189403   1.393540   2.892755   1.421446
     7  H    2.035286   3.685131   3.409862   4.115278   1.106462
     8  H    2.676632   2.772258   1.091793   2.391217   2.725120
     9  H    3.279876   4.102410   2.169763   3.651758   2.163297
    10  H    2.307437   1.089645   3.355238   2.152546   3.366247
    11  H    2.226729   1.090159   3.658733   2.152472   2.996278
    12  H    3.601118   2.145058   2.447086   1.092866   3.981345
    13  C    3.659563   2.476931   2.856865   1.474113   3.635032
    14  O    3.662634   2.877811   3.462369   2.373508   3.485760
    15  H    3.842922   3.694389   1.093128   2.666836   3.400786
    16  H    4.690273   3.414964   3.365480   2.192066   4.606191
                    6          7          8          9         10
     6  C    0.000000
     7  H    2.169566   0.000000
     8  H    2.132093   3.792981   0.000000
     9  H    1.090155   2.462992   3.076246   0.000000
    10  H    3.838754   4.287062   2.893583   4.856154   0.000000
    11  H    3.657323   3.626451   3.739010   4.430143   1.858258
    12  H    3.544757   5.023847   2.396964   4.314409   2.445677
    13  C    3.234079   4.368315   3.503685   3.596675   3.444471
    14  O    3.341393   3.938787   4.208718   3.510710   3.956320
    15  H    2.141582   4.293999   1.848365   2.480814   4.209129
    16  H    3.961357   5.354552   4.032836   4.185924   4.260019
                   11         12         13         14         15
    11  H    0.000000
    12  H    3.041396   0.000000
    13  C    2.661459   2.191039   0.000000
    14  O    2.628167   3.298901   1.211760   0.000000
    15  H    4.484458   2.670186   3.031311   3.767772   0.000000
    16  H    3.692172   2.432623   1.115712   2.027789   3.175816
                   16
    16  H    0.000000
 Stoichiometry    C6H8O2
 Framework group  C1[X(C6H8O2)]
 Deg. of freedom    42
 Full point group                 C1      NOp   1
 Largest Abelian subgroup         C1      NOp   1
 Largest concise Abelian subgroup C1      NOp   1
                         Standard orientation:                         
 ---------------------------------------------------------------------
 Center     Atomic      Atomic             Coordinates (Angstroms)
 Number     Number       Type             X           Y           Z
 ---------------------------------------------------------------------
      1          8           0        1.493734    1.092752   -0.245873
      2          6           0       -0.302066    1.499279    0.470742
      3          6           0        0.584029   -1.151400    1.089230
      4          6           0       -0.984057    0.336435    0.866518
      5          6           0        1.687377   -0.031043   -0.750944
      6          6           0        1.226734   -1.231350   -0.144662
      7          1           0        2.163975   -0.107718   -1.746552
      8          1           0        1.026506   -0.505237    1.849953
      9          1           0        1.163323   -2.129890   -0.758700
     10          1           0        0.090378    2.163903    1.239891
     11          1           0       -0.547454    1.947892   -0.492054
     12          1           0       -1.251752    0.236303    1.921349
     13          6           0       -1.877264   -0.324341   -0.102277
     14          8           0       -1.747525   -0.244626   -1.304431
     15          1           0        0.069271   -2.039096    1.465990
     16          1           0       -2.692437   -0.936650    0.350916
 ---------------------------------------------------------------------
 Rotational constants (GHZ):           2.8390029           1.7532678           1.6059169
 Standard basis: STO-3G (5D, 7F)
 There are    48 symmetry adapted cartesian basis functions of A   symmetry.
 There are    48 symmetry adapted basis functions of A   symmetry.
    48 basis functions,   144 primitive gaussians,    48 cartesian basis functions
    30 alpha electrons       30 beta electrons
       nuclear repulsion energy       362.0621486497 Hartrees.
 NAtoms=   16 NActive=   16 NUniq=   16 SFac= 1.00D+00 NAtFMM=   60 NAOKFM=F Big=F
 Integral buffers will be    131072 words long.
 Raffenetti 1 integral format.
 Two-electron integral symmetry is turned on.
 External calculation of energy, first and second derivatives.
 Running external command "~/scripts/MiMe -H 'hf def2svp' -EF 'wb97xd def2svp' -c 12 -m 48GB R"
         input file       "/local/jobs/1157675/Gau-3101606.EIn"
         output file      "/local/jobs/1157675/Gau-3101606.EOu"
         message file     "/local/jobs/1157675/Gau-3101606.EMs"
         fchk file        "/local/jobs/1157675/Gau-3101606.EFC"
         mat. el file     "/local/jobs/1157675/Gau-3101606.EUF"
 Read checkpoint file Gau-3101606_H.chk type G16
 Write formatted file Gau-3101606_H.fchk

deriv: 2

spelevel: wb97xd def2svp
gradlevel: wb97xd def2svp
hesslevel: hf def2svp

runspe: False
runforce: True
runfreq: True

Running Gaussian ...

Parsing files ...
SPE file: Gau-3101606_F.out
FORCE file: Gau-3101606_F.out
HESS file: Gau-3101606_H.out

 ExternalExternalExternalExternalExternalExternalExternalExternalExternalExternal
 Output from external command:
 "~/scripts/MiMe -H 'hf def2svp' -EF 'wb97xd def2svp' -c 12 -m 48GB R /local/jobs/1157675/Gau-3101606.EIn /local/jobs/1157675/Gau-3101606.EOu /local/jobs/1157675/Gau-3101606.EMs /local/jobs/1157675/Gau-3101606.EFC /local/jobs/1157675/Gau-3101606.EUF"
  
 --------------------------------------------------
 Force calculation at wb97xd def2svp
 Hessian calculation at hf def2svp
 ExternalExternalExternalExternalExternalExternalExternalExternalExternalExternal

 Recovered energy= -383.371539824     dipole=     -0.063400000000     -0.685200000000      2.720200000000
 Energy=    -383.371540     NIter=   0.
 Dipole moment=      -0.063400      -0.685200       2.720200
 ***** Axes restored to original set *****
 -------------------------------------------------------------------
 Center     Atomic                   Forces (Hartrees/Bohr)
 Number     Number              X              Y              Z
 -------------------------------------------------------------------
      1        8           0.001567301    0.009954986    0.006724956
      2        6          -0.001877644   -0.009067034   -0.000685993
      3        6           0.007448882    0.000242489   -0.006955073
      4        6           0.000088309    0.002131187   -0.000835781
      5        6          -0.005045758   -0.019548451    0.005771039
      6        6          -0.001633804    0.010571033   -0.002108088
      7        1          -0.001822103    0.002880836   -0.002087686
      8        1          -0.003700968    0.003083829   -0.000222827
      9        1          -0.000868921   -0.001036983   -0.000959952
     10        1           0.000959521    0.000728076   -0.001038492
     11        1           0.001423419   -0.000568676   -0.001014844
     12        1           0.000959703   -0.000617523    0.001139502
     13        6           0.005239609    0.001710761   -0.003982558
     14        8           0.000280481    0.000757515    0.004643561
     15        1          -0.001784956    0.000827225    0.001467679
     16        1          -0.001233072   -0.002049270    0.000144557
 -------------------------------------------------------------------
 Cartesian Forces:  Max     0.019548451 RMS     0.004638248
 FormGI is forming the generalized inverse of G from B-inverse, IUseBI=4.

 GradGradGradGradGradGradGradGradGradGradGradGradGradGradGradGradGradGrad
 Berny optimization.
 Internal  Forces:  Max     0.029491371 RMS     0.005975953
 Search for a saddle point.
 Step number   4 out of a maximum of   50
 All quantities printed in internal units (Hartrees-Bohrs-Radians)
 Swapping is turned off.
 Second derivative matrix not updated -- analytic derivatives used.
 ITU=  0  0  0  0
     Eigenvalues ---   -0.41954   0.01261   0.01631   0.02017   0.02206
     Eigenvalues ---    0.02746   0.03760   0.04722   0.04963   0.06855
     Eigenvalues ---    0.07323   0.08881   0.10222   0.10858   0.11530
     Eigenvalues ---    0.12850   0.13632   0.14511   0.16327   0.16971
     Eigenvalues ---    0.17225   0.18433   0.21970   0.24893   0.26743
     Eigenvalues ---    0.28379   0.32976   0.34506   0.35765   0.37155
     Eigenvalues ---    0.37442   0.37619   0.38048   0.38418   0.38569
     Eigenvalues ---    0.40497   0.48702   0.62455   0.69514   0.78655
     Eigenvalues ---    0.89826   1.09788
 Eigenvectors required to have negative eigenvalues:
                          R1        A1        R6        R11       R3
   1                   -0.49948  -0.31836   0.29454  -0.29149   0.26777
                          D4        D12       R2        D5        A17
   1                    0.23070  -0.22766   0.20561   0.17181  -0.15561
 RFO step:  Lambda0=1.377242223D-03 Lambda=-5.25271174D-03.
 Linear search not attempted -- option 19 set.
 Iteration  1 RMS(Cart)=  0.05693786 RMS(Int)=  0.00165979
 Iteration  2 RMS(Cart)=  0.00420125 RMS(Int)=  0.00034026
 Iteration  3 RMS(Cart)=  0.00000798 RMS(Int)=  0.00034023
 Iteration  4 RMS(Cart)=  0.00000000 RMS(Int)=  0.00034023
 Variable       Old X    -DE/DX   Delta X   Delta X   Delta X     New X
                                 (Linear)    (Quad)   (Total)
    R1        3.73368  -0.00768   0.00000  -0.01151  -0.01151   3.72217
    R2        2.35687   0.00359   0.00000   0.01404   0.01404   2.37091
    R3        2.65502  -0.00378   0.00000  -0.01745  -0.01745   2.63757
    R4        2.05913   0.00020   0.00000   0.00083   0.00083   2.05996
    R5        2.06010   0.00040   0.00000   0.00000   0.00000   2.06010
    R6        2.63341  -0.00527   0.00000  -0.02099  -0.02099   2.61242
    R7        2.06319   0.00019   0.00000  -0.00249  -0.00249   2.06070
    R8        2.06571   0.00087   0.00000   0.00157   0.00157   2.06728
    R9        2.06522   0.00090   0.00000   0.00098   0.00098   2.06620
   R10        2.78567  -0.00342   0.00000  -0.01083  -0.01083   2.77484
   R11        2.68614  -0.01512   0.00000  -0.02649  -0.02649   2.65965
   R12        2.09091   0.00066   0.00000   0.00076   0.00076   2.09167
   R13        2.06009   0.00145   0.00000   0.00271   0.00271   2.06280
   R14        2.28989  -0.00463   0.00000  -0.00337  -0.00337   2.28652
   R15        2.10839   0.00197   0.00000   0.00624   0.00624   2.11463
    A1        2.06394  -0.02949   0.00000  -0.04061  -0.04061   2.02333
    A2        1.95311  -0.00901   0.00000   0.00659   0.00658   1.95970
    A3        1.62499   0.00367   0.00000  -0.01253  -0.01254   1.61246
    A4        1.53973   0.00088   0.00000  -0.00771  -0.00770   1.53202
    A5        2.07238   0.00082   0.00000   0.01067   0.01066   2.08303
    A6        2.07158   0.00242   0.00000   0.00139   0.00137   2.07296
    A7        2.04146  -0.00115   0.00000  -0.00682  -0.00689   2.03457
    A8        2.05328   0.00267   0.00000   0.01748   0.01624   2.06952
    A9        2.06663   0.00269   0.00000   0.02372   0.02249   2.08912
   A10        2.01674  -0.00179   0.00000   0.00434   0.00295   2.01969
   A11        2.05627   0.00159   0.00000   0.02082   0.02011   2.07638
   A12        2.07144  -0.00324   0.00000  -0.00697  -0.00766   2.06378
   A13        2.03179   0.00237   0.00000   0.01896   0.01821   2.05001
   A14        2.13866  -0.01379   0.00000  -0.00493  -0.00499   2.13367
   A15        2.08715   0.00404   0.00000  -0.01787  -0.01792   2.06923
   A16        2.05428   0.00938   0.00000   0.02131   0.02125   2.07552
   A17        2.06994  -0.01175   0.00000  -0.01881  -0.01884   2.05111
   A18        2.11670   0.00487   0.00000   0.00973   0.00970   2.12640
   A19        2.06532   0.00615   0.00000   0.01291   0.01288   2.07819
   A20        2.16233  -0.00203   0.00000  -0.00229  -0.00230   2.16003
   A21        2.00618   0.00202   0.00000   0.00673   0.00672   2.01291
   A22        2.11449  -0.00000   0.00000  -0.00454  -0.00454   2.10995
    D1        0.45826   0.00345   0.00000   0.08550   0.08551   0.54377
    D2        2.60044   0.00333   0.00000   0.09321   0.09316   2.69360
    D3       -1.64218   0.00220   0.00000   0.08612   0.08617  -1.55601
    D4       -0.77581   0.00833   0.00000  -0.07885  -0.07900  -0.85481
    D5        2.27923   0.00383   0.00000  -0.09859  -0.09844   2.18079
    D6        2.05195   0.00054   0.00000  -0.04768  -0.04775   2.00420
    D7       -1.62127   0.00269   0.00000   0.02288   0.02296  -1.59831
    D8        0.18998   0.00161   0.00000  -0.04243  -0.04250   0.14747
    D9        2.79994   0.00376   0.00000   0.02814   0.02821   2.82816
   D10       -2.47751  -0.00282   0.00000  -0.05245  -0.05252  -2.53004
   D11        0.13245  -0.00066   0.00000   0.01812   0.01819   0.15064
   D12       -0.77434   0.00333   0.00000   0.10364   0.10392  -0.67042
   D13        2.63757   0.00551   0.00000   0.08553   0.08581   2.72338
   D14        2.94650  -0.00248   0.00000   0.02089   0.02060   2.96711
   D15        0.07523  -0.00030   0.00000   0.00277   0.00249   0.07772
   D16        0.45682  -0.00110   0.00000  -0.05719  -0.05722   0.39959
   D17       -2.70514  -0.00190   0.00000  -0.06293  -0.06296  -2.76810
   D18        3.07409   0.00083   0.00000   0.01311   0.01315   3.08724
   D19       -0.08786   0.00003   0.00000   0.00737   0.00741  -0.08045
   D20       -0.04858   0.00118   0.00000   0.00484   0.00476  -0.04381
   D21        2.83073  -0.00103   0.00000   0.02211   0.02204   2.85277
   D22       -3.10516   0.00582   0.00000   0.02605   0.02612  -3.07905
   D23       -0.22586   0.00362   0.00000   0.04332   0.04339  -0.18247
         Item               Value     Threshold  Converged?
 Maximum Force            0.029491     0.000450     NO 
 RMS     Force            0.005976     0.000300     NO 
 Maximum Displacement     0.174554     0.001800     NO 
 RMS     Displacement     0.055754     0.001200     NO 
 Predicted change in Energy=-2.147690D-03
 GradGradGradGradGradGradGradGradGradGradGradGradGradGradGradGradGradGrad

                          Input orientation:                          
 ---------------------------------------------------------------------
 Center     Atomic      Atomic             Coordinates (Angstroms)
 Number     Number       Type             X           Y           Z
 ---------------------------------------------------------------------
      1          8           0        1.526694    1.005000   -0.339073
      2          6           0       -0.248292    1.544137    0.323066
      3          6           0        0.575233   -1.055835    1.161692
      4          6           0       -0.966816    0.468414    0.847124
      5          6           0        1.612115   -0.162002   -0.791745
      6          6           0        1.119883   -1.277902   -0.089372
      7          1           0        1.998212   -0.304016   -1.819322
      8          1           0        1.046809   -0.318837    1.812526
      9          1           0        0.968749   -2.217144   -0.624674
     10          1           0        0.178785    2.282671    1.001631
     11          1           0       -0.475138    1.884118   -0.687579
     12          1           0       -1.206416    0.461076    1.913908
     13          6           0       -1.857366   -0.276402   -0.051940
     14          8           0       -1.731323   -0.300437   -1.255093
     15          1           0        0.036363   -1.861456    1.668978
     16          1           0       -2.668691   -0.859084    0.452473
 ---------------------------------------------------------------------
                    Distance matrix (angstroms):
                    1          2          3          4          5
     1  O    0.000000
     2  C    1.969688   0.000000
     3  C    2.721142   2.853304   0.000000
     4  C    2.812930   1.395741   2.190937   0.000000
     5  C    1.254632   2.759498   2.385368   3.119968   0.000000
     6  C    2.332270   3.163212   1.382432   2.877665   1.407428
     7  H    2.031500   3.612793   3.387705   4.061769   1.106866
     8  H    2.571422   2.714121   1.090474   2.367795   2.669531
     9  H    3.282542   4.065297   2.166702   3.622820   2.159964
    10  H    2.290588   1.090082   3.365771   2.151232   3.353664
    11  H    2.213964   1.090160   3.628555   2.145058   2.924736
    12  H    3.583527   2.149838   2.457869   1.093385   3.956375
    13  C    3.629917   2.458478   2.828066   1.468383   3.549324
    14  O    3.627386   2.844718   3.425153   2.365358   3.378229
    15  H    3.803936   3.672952   1.093959   2.666479   3.380281
    16  H    4.658606   3.413290   3.326371   2.194170   4.512128
                    6          7          8          9         10
     6  C    0.000000
     7  H    2.170862   0.000000
     8  H    2.131281   3.754425   0.000000
     9  H    1.091589   2.479322   3.090244   0.000000
    10  H    3.841046   4.237812   2.859871   4.849459   0.000000
    11  H    3.591700   3.490879   3.663313   4.348462   1.854695
    12  H    3.528291   4.979158   2.386538   4.283527   2.463583
    13  C    3.141403   4.241449   3.451415   3.475835   3.435809
    14  O    3.231674   3.771975   4.138676   3.370694   3.926037
    15  H    2.146240   4.294498   1.849670   2.501339   4.199932
    16  H    3.849973   5.220071   3.993313   4.029335   4.275549
                   11         12         13         14         15
    11  H    0.000000
    12  H    3.054104   0.000000
    13  C    2.642430   2.198220   0.000000
    14  O    2.583090   3.301211   1.209976   0.000000
    15  H    4.454697   2.645495   3.010011   3.756552   0.000000
    16  H    3.692770   2.452930   1.119017   2.026457   3.130807
                   16
    16  H    0.000000
 Stoichiometry    C6H8O2
 Framework group  C1[X(C6H8O2)]
 Deg. of freedom    42
 Full point group                 C1      NOp   1
 Largest Abelian subgroup         C1      NOp   1
 Largest concise Abelian subgroup C1      NOp   1
                         Standard orientation:                         
 ---------------------------------------------------------------------
 Center     Atomic      Atomic             Coordinates (Angstroms)
 Number     Number       Type             X           Y           Z
 ---------------------------------------------------------------------
      1          8           0        1.513288    1.048169   -0.269972
      2          6           0       -0.285470    1.524531    0.375954
      3          6           0        0.586034   -1.079803    1.150082
      4          6           0       -0.986751    0.416493    0.854024
[...]
 Vibration     1          0.612              1.922              2.922
 Vibration     2          0.634              1.851              2.210
 Vibration     3          0.668              1.747              1.667
 Vibration     4          0.716              1.605              1.235
 Vibration     5          0.722              1.588              1.195
 Vibration     6          0.751              1.511              1.036
 Vibration     7          0.801              1.381              0.823
 Vibration     8          0.884              1.186              0.590
 Vibration     9          0.930              1.089              0.498
                       Q            Log10(Q)             Ln(Q)
 Total Bot       0.126605D-47        -47.897549       -110.288181
 Total V=0       0.181604D+15         14.259126         32.832852
 Vib (Bot)       0.941169D-61        -61.026332       -140.518323
 Vib (Bot)    1  0.154780D+01          0.189715          0.436834
 Vib (Bot)    2  0.104271D+01          0.018163          0.041823
 Vib (Bot)    3  0.749520D+00         -0.125217         -0.288322
 Vib (Bot)    4  0.555624D+00         -0.255219         -0.587664
 Vib (Bot)    5  0.538938D+00         -0.268461         -0.618155
 Vib (Bot)    6  0.474347D+00         -0.323904         -0.745817
 Vib (Bot)    7  0.391562D+00         -0.407199         -0.937611
 Vib (Bot)    8  0.302656D+00         -0.519051         -1.195160
 Vib (Bot)    9  0.267479D+00         -0.572710         -1.318713
 Vib (V=0)       0.135003D+02          1.130343          2.602711
 Vib (V=0)    1  0.212656D+01          0.327677          0.754504
 Vib (V=0)    2  0.165639D+01          0.219163          0.504642
 Vib (V=0)    3  0.140099D+01          0.146435          0.337178
 Vib (V=0)    4  0.124747D+01          0.096032          0.221121
 Vib (V=0)    5  0.123516D+01          0.091722          0.211197
 Vib (V=0)    6  0.118921D+01          0.075257          0.173286
 Vib (V=0)    7  0.113508D+01          0.055025          0.126699
 Vib (V=0)    8  0.108447D+01          0.035216          0.081088
 Vib (V=0)    9  0.106705D+01          0.028185          0.064897
 Electronic      0.100000D+01          0.000000          0.000000
 Translational   0.466215D+08          7.668586         17.657571
 Rotational      0.288535D+06          5.460198         12.572570
 ***** Axes restored to original set *****
 -------------------------------------------------------------------
 Center     Atomic                   Forces (Hartrees/Bohr)
 Number     Number              X              Y              Z
 -------------------------------------------------------------------
      1        8           0.000021524   -0.000017141   -0.000007392
      2        6          -0.000016458   -0.000005295    0.000008057
      3        6           0.000009406   -0.000013417   -0.000001939
      4        6           0.000002200    0.000019102   -0.000002902
      5        6          -0.000005226    0.000021866   -0.000002038
      6        6          -0.000010676   -0.000009808    0.000015186
      7        1          -0.000006818   -0.000004766   -0.000002331
      8        1           0.000002742    0.000009573   -0.000010821
      9        1          -0.000004911   -0.000002162    0.000005201
     10        1           0.000002874   -0.000001918   -0.000002230
     11        1           0.000000749   -0.000000241   -0.000004139
     12        1          -0.000000598   -0.000000537   -0.000000783
     13        6          -0.000006881   -0.000020790    0.000002580
     14        8           0.000005457    0.000032813    0.000002014
     15        1           0.000001379    0.000003774    0.000006752
     16        1           0.000005237   -0.000011052   -0.000005216
 -------------------------------------------------------------------
 Cartesian Forces:  Max     0.000032813 RMS     0.000010200
 Unable to Open any file for archive entry.
 1\1\GINC-NODE-008\Freq\External='~/scripts/MiMe -H 'hf def2svp' -EF 'w
 b97xd def2svp' -c 12 -m 48GB'\ZDO\C6H8O2\JP2658\17-Jan-2024\0\\# exter
 nal="~/scripts/MiMe -H 'hf def2svp' -EF 'wb97xd def2svp' -c 12 -m 48GB
 " opt=(calcall,ts,noeigen,maxcycles=50,maxstep=10,nomicro)\\*****\\0,1
 \O,1.5395459393,0.9851632127,-0.2690394983\C,-0.2311972971,1.544481942
 6,0.3222276317\C,0.5787409819,-1.0595548054,1.1738750177\C,-0.96154264
 51,0.4773476985,0.8544415329\C,1.5732117549,-0.1628152944,-0.784092690
 8\C,1.0826215887,-1.2848742875,-0.0946062799\H,1.9004497578,-0.2641547
 366,-1.8357937237\H,1.0533785615,-0.3007677069,1.7964315597\H,0.897661
 0807,-2.2148566896,-0.6349442942\H,0.1713579072,2.3098108037,0.9856058
 452\H,-0.4448626813,1.8531033091,-0.7014075303\H,-1.2107362665,0.47012
 47653,1.9186755276\C,-1.8132859603,-0.2873745172,-0.0639953928\O,-1.66
 61145359,-0.2828547385,-1.2657891696\H,0.0399890368,-1.8486751193,1.70
 6267319\H,-2.6004172226,-0.9218038366,0.4147441458\\Version=ES64L-G16R
 evC.01\HF=-383.3748814\RMSD=0.000e+00\RMSF=1.020e-05\ZeroPoint=0.13513
 27\Thermal=0.141972\ETot=-383.2329095\HTot=-383.2319653\GTot=-383.2707
 49\Dipole=-0.1996866,-0.6058448,2.5820479\PG=C01 [X(C6H8O2)]\NImag=1\\
 0.08285735,0.06060495,0.54484242,0.00316564,0.16282052,0.17315381,0.06
 886970,-0.12044116,-0.07542512,0.19979527,-0.00358130,-0.03624520,-0.0
 0568626,0.22045883,0.65880765,-0.04726829,0.05279157,0.01589945,0.1491
 0413,-0.03890096,0.68511302,-0.04329421,0.06554741,0.03931651,0.078883
 21,0.02184349,-0.03753436,0.31196278,0.02830053,-0.05309808,-0.0260673
 1,-0.05215025,-0.02260892,0.02958959,0.28572896,0.51669486,0.01461170,
 -0.04519427,-0.02936152,-0.03711259,-0.00365942,0.01301096,-0.11135515
 ,0.04716790,0.75555144,-0.02106044,-0.00627414,0.00147374,-0.16132901,
 -0.15559731,0.05897863,0.02003488,-0.04016432,-0.01328000,0.39145998,-
 0.06521573,0.09247037,0.05066786,-0.02470669,-0.27104377,0.03537309,-0
 .09107871,0.05658206,0.03248079,0.28990661,0.37894216,0.02431004,-0.02
 747170,-0.01864002,0.02196782,0.08697101,-0.16405332,0.03041992,-0.026
 31940,-0.02683651,-0.07169950,0.01070486,0.73834388,-0.12237507,0.0210
 0418,0.02982524,0.03074806,0.01719926,-0.00836644,-0.02767455,0.007132
 71,0.03427335,0.00006086,-0.02892086,0.01150611,0.32597389,-0.05789351
 ,-0.40105638,-0.11422071,0.15356864,0.00465536,-0.07292901,-0.09041125
 ,0.07961099,0.06803922,0.01756202,-0.10944608,0.03616425,0.04407183,0.
 74901501,0.01631629,-0.18296092,-0.20624447,0.01182929,-0.00579188,-0.
 01045132,0.02357364,0.03019028,-0.02269067,-0.00148253,-0.00035574,-0.
 00111681,-0.18350516,0.06526433,0.73994966,0.03772590,-0.05440147,-0.0
 1965295,-0.04813302,-0.00663229,0.02220254,-0.08483144,-0.03615794,0.1
 0084947,-0.02404324,0.05606559,-0.01241751,-0.11035474,-0.04370267,0.0
 6916525,0.26285083,0.00558597,-0.10975224,-0.02035839,-0.03861360,-0.0
 0524387,0.01841837,0.02210342,-0.15169195,-0.08207750,-0.00617048,0.02
 299968,-0.01261587,-0.07198757,-0.23930890,0.11512517,0.13706439,0.738
 28326,-0.03908901,0.07366299,0.07832803,0.08329122,0.01409930,-0.03760
 749,0.05693224,-0.00344693,-0.37653014,0.02909620,-0.08643762,0.029096
 42,0.02652954,-0.00547135,-0.21211611,-0.15490431,0.11685341,0.6740450
 0,0.01543502,0.00762893,0.00454572,-0.00062761,-0.00022779,0.00086679,
 0.00352889,-0.00344259,0.00230691,0.00422786,0.00167085,-0.00024961,-0
 .09206329,-0.00380767,0.07116044,0.01087063,0.00152199,0.01293357,0.06
 203083,0.01355037,-0.01243936,-0.04558991,-0.00468852,0.00017151,0.000
 27139,-0.00256418,-0.00483886,0.00237203,0.00034729,0.00134283,-0.0005
 3935,0.00248129,-0.07326740,-0.00301305,-0.00813002,0.00978418,0.02360
 617,-0.00247643,0.07910957,0.00816637,-0.02092186,-0.01192053,-0.00405
 905,0.00047832,0.00120084,0.00331013,0.00261575,0.00036155,0.00174728,
 0.00157119,-0.00010086,0.07665507,0.00106137,-0.29740411,0.00474784,-0
 .00654379,-0.00848265,-0.08970034,0.02237967,0.31707113,0.00516455,-0.
 00902138,-0.00416958,-0.01068841,-0.00280200,0.00424091,-0.09672282,-0
 .11337792,-0.07842500,-0.01612872,0.01422436,-0.01091391,-0.00037005,0
 .01346033,-0.00063555,0.00453946,0.00707574,0.02253450,-0.00017257,0.0
 0014754,-0.00034429,0.10896514,-0.00379382,0.00633156,0.00408037,0.009
 91746,0.00144276,-0.00051083,-0.11166658,-0.20098172,-0.11716052,0.014
 34028,-0.00974563,0.00915323,0.00064422,-0.01064141,0.00229763,0.00389
 606,0.00249995,-0.01383855,-0.00034503,-0.00002844,-0.00036247,0.10021
 774,0.21921562,0.00216839,-0.00204522,0.00095096,-0.00613785,-0.000324
 92,0.00161879,-0.06168555,-0.12346245,-0.16380887,-0.00461332,0.006970
 59,-0.00327159,0.00018945,0.00132881,-0.00121242,-0.01477063,-0.024626
 45,-0.00609341,0.00005835,-0.00008400,0.00036726,0.07079006,0.13061369
 ,0.16178778,0.00827270,-0.01017236,-0.00040820,-0.00513020,-0.00135776
 ,0.00330941,0.01093457,0.00861422,0.00332036,-0.00195745,0.00510246,-0
 .00123019,0.00027442,0.00190461,-0.01231740,-0.06009532,-0.05979509,-0
 .00819076,-0.00153047,0.00093425,-0.00042856,0.00330210,-0.00297413,0.
 00266573,0.04714543,-0.00451132,-0.00281089,0.00443113,0.00041566,0.00
 076981,-0.00068012,-0.00241935,0.00419084,0.00362485,0.00122819,-0.001
 09990,0.00046605,-0.00014788,-0.01640681,-0.01834002,-0.05072964,-0.27
 519144,-0.12549819,0.00101985,0.00020141,0.00108743,-0.00129058,0.0018
 9529,0.00043869,0.05599755,0.28851878,0.00319782,0.00231280,-0.0026973
 7,-0.00087087,-0.00035235,0.00060389,-0.00811616,-0.02777344,-0.012278
 15,-0.00044771,0.00166393,-0.00045609,0.00219757,0.01966492,0.01342299
 ,-0.01304374,-0.12956566,-0.13285657,-0.00101691,-0.00039090,0.0000420
 9,0.00432082,-0.00167416,-0.00389872,0.01497667,0.13494051,0.13718634,
 -0.00724352,0.01890577,0.01406255,-0.08785187,-0.08602529,-0.08082773,
 -0.00365466,0.00223035,0.00196504,0.00083855,-0.01706676,-0.00812303,-
 0.00420212,-0.00590708,0.00103340,0.00162640,0.00233668,-0.00343000,-0
 .00021281,0.00067682,0.00036588,0.00047779,-0.00069268,0.00001989,0.00
 024107,-0.00000947,0.00000638,0.09714189,0.00290239,-0.00661332,-0.005
 00009,-0.09024084,-0.21178784,-0.12189171,0.00106544,-0.00106976,-0.00
 110133,-0.00888457,-0.00620514,-0.02007483,0.00209613,0.00255472,-0.00
 020232,-0.00062650,-0.00095838,0.00171601,0.00001451,-0.00020629,-0.00
 008193,0.00011404,-0.00020928,0.00015068,-0.00011593,0.00002044,0.0000
 3635,0.09251737,0.21336041,0.00062074,-0.00142030,-0.00058172,-0.07410
 869,-0.12855096,-0.18478487,0.00027297,0.00015815,-0.00012419,0.006193
 19,0.01339738,0.01441749,0.00031784,0.00062787,0.00007598,0.00003138,-
 0.00023722,-0.00003895,0.00014951,-0.00002370,0.00006609,-0.00009997,0
 .00008648,0.00002451,0.00000358,0.00002355,-0.00002386,0.07549447,0.13
 572317,0.18048891,-0.02356657,0.01982987,0.00359483,-0.04521204,0.0135
 5776,-0.06738901,-0.00806575,0.00437818,0.00353208,0.00693589,-0.01936
 564,0.01813814,-0.00459790,-0.01379627,-0.00337445,0.00397830,0.004412
 12,-0.00705925,0.00013214,0.00026692,0.00030469,0.00083002,-0.00018059
 ,0.00036203,0.00079879,-0.00024589,0.00016288,0.00234198,0.00247371,-0
 .00918010,0.06467412,0.01264582,-0.01014766,-0.00211883,-0.00338123,-0
 .09140817,0.08043081,0.00342481,-0.00349557,-0.00140817,0.00390388,0.0
 0763390,0.02411520,0.00351536,0.00735589,0.00205307,-0.00209716,-0.002
 24412,0.00374048,-0.00026241,-0.00010595,-0.00029221,-0.00067819,0.000
 10571,-0.00022629,-0.00037904,0.00006666,-0.00005910,-0.00555504,0.012
 06125,-0.02074748,-0.01007908,0.08284147,0.00867661,-0.00766223,0.0003
 7653,-0.06480668,0.08177348,-0.33356876,0.00264635,-0.00185644,-0.0011
 8387,-0.00029988,0.00605733,-0.00618701,0.00231244,0.00417615,0.002309
 75,-0.00130078,-0.00142568,0.00192318,0.00003293,-0.00009639,-0.000131
 38,-0.00023564,-0.00003588,-0.00009712,-0.00029631,0.00001236,-0.00001
 996,-0.00097626,0.00650262,-0.00906736,0.05645104,-0.08597417,0.346815
 04,-0.00824270,0.00834947,0.00605923,0.01097159,0.00572184,0.01095197,
 -0.01218801,0.00909334,0.00889453,-0.06464208,-0.03171695,0.07246331,-
 0.00276791,-0.01140846,-0.00002990,0.00342625,0.00347874,-0.00841149,0
 .00021658,0.00029000,0.00021748,0.00059771,-0.00069094,0.00141643,0.00
 050020,-0.00008402,0.00008537,-0.00297373,0.00231144,0.00016885,0.0024
 3603,-0.00327020,-0.00105594,0.06539973,0.00574619,-0.00807670,-0.0038
 4849,-0.01473204,-0.00200099,0.03404622,0.01130383,-0.00842791,-0.0083
 1370,-0.02084734,-0.03666687,-0.01065635,0.00287315,0.00897534,-0.0007
 6464,-0.00322983,-0.00294693,0.00817109,-0.00055167,-0.00010833,-0.000
 16230,-0.00138725,0.00160501,-0.00067958,-0.00033637,0.00010016,-0.000
 11554,0.00336582,-0.00031334,-0.00089221,-0.00462599,-0.00258720,0.002
 18635,0.01620311,0.05005189,-0.00179292,0.00116365,0.00140113,0.002339
 56,-0.00107350,-0.00748170,-0.00339344,0.00181375,0.00016283,0.0623874
 6,-0.00501880,-0.33765997,-0.00048979,-0.00134722,-0.00030601,0.000739
 79,0.00045755,-0.00024509,-0.00011670,0.00004823,0.00006664,-0.0000821
 1,0.00079822,0.00077389,0.00019012,-0.00002920,0.00011640,-0.00074097,
 0.00069879,0.00109194,0.00145693,0.00064186,0.00015758,-0.06685646,-0.
 00068965,0.35569513,0.00316020,0.00097932,0.00114385,-0.01777324,-0.01
 573194,-0.00965868,-0.02110073,0.01316292,-0.00324908,-0.16197592,-0.0
 8886687,-0.05273313,-0.00230564,-0.00439820,0.00103781,0.00053183,0.00
 284184,-0.00701577,-0.00072135,-0.00009095,-0.00070239,0.00154509,-0.0
 0097578,0.00112511,0.00065475,-0.00039094,-0.00011850,0.00493662,-0.00
 444248,0.00028458,-0.00266446,0.00155906,0.00048462,0.00852254,0.01202
 753,0.01090444,0.50560221,0.00681782,-0.00304240,-0.00049025,-0.035110
 68,-0.02495550,-0.01329612,-0.00176533,0.00951984,0.00688351,-0.067822
 25,-0.14228747,-0.04834484,0.00133621,-0.00236749,0.00093502,0.0073733
 3,0.00283250,-0.00510694,-0.00157500,-0.00011343,-0.00086230,0.0022590
 0,-0.00324828,0.00066503,0.00063117,-0.00074374,-0.00031608,-0.0056193
 8,-0.00109674,0.00331622,0.00305176,-0.00136486,-0.00223611,0.00549921
 ,0.00149160,0.00684710,0.20211172,0.43051202,0.01495503,-0.00620071,-0
 .00484512,-0.01739053,-0.00571520,0.03351473,-0.02255260,0.01677827,0.
 00641280,-0.01846837,-0.03248890,-0.16924732,0.00520857,-0.00211073,0.
 00465246,0.00789920,0.00526595,-0.01434048,-0.00179905,-0.00041569,-0.
 00197145,0.00324667,-0.00247185,0.00045850,0.00159154,-0.00227782,0.00
 034644,0.00173667,0.00465450,-0.00335116,0.00468211,0.00209635,-0.0020
 2939,-0.02168313,-0.01442487,-0.01075297,-0.08732050,-0.01004927,1.028
 03927,0.00106373,-0.00059909,-0.00034804,-0.00374241,-0.00165454,0.003
 36774,-0.00277707,0.00111896,0.00350449,0.02777124,0.00522378,-0.02834
 460,0.00265987,-0.00225714,0.00122447,0.00119336,0.00224885,-0.0071937
 1,-0.00023972,-0.00002005,-0.00038981,0.00045074,-0.00039422,-0.000195
 47,0.00022096,-0.00081296,0.00025446,-0.00065465,0.00137427,-0.0010180
 0,0.00052175,0.00040328,-0.00143280,-0.00209428,-0.00539439,-0.0033825
 5,-0.13116173,-0.02624257,0.08575973,0.09555035,0.00098772,-0.00101069
 ,-0.00169858,0.00031789,-0.00252589,0.00097052,0.00395581,-0.00310829,
 -0.00203867,-0.00165650,0.01822557,-0.03322513,0.00178347,0.00176745,0
 .00071053,-0.00145881,-0.00147319,0.00409837,0.00007395,-0.00005058,0.
 00013125,-0.00056956,0.00084502,-0.00015889,-0.00042709,0.00079001,0.0
 0014277,0.00013311,0.00132432,-0.00143026,0.00080104,0.00076789,-0.001
 82961,-0.00443870,-0.00031438,-0.00357576,-0.02381422,-0.11259266,0.00
 942018,0.03202834,0.07855665,-0.00844017,0.00245421,0.00319486,0.01640
 154,0.00992233,-0.01157236,0.01382993,-0.01390521,-0.00678013,-0.03669
 850,-0.02599946,-0.06430567,-0.00166712,0.00249412,-0.00385406,-0.0028
 2109,-0.00401556,0.00981791,0.00090957,0.00017468,0.00154078,-0.002626
 24,0.00263216,-0.00049267,-0.00120770,0.00148554,-0.00015660,-0.000532
 02,-0.00033434,0.00141928,-0.00184117,-0.00200785,0.00079222,-0.003325
 57,-0.00422019,-0.00376801,0.09506507,0.01824674,-0.77166104,-0.087556
 67,0.00311514,0.88152541,0.00212664,-0.00067478,-0.00211823,-0.0053088
 6,-0.00083978,0.00145815,-0.12761470,-0.11228009,0.06993844,0.00209717
 ,0.00990496,-0.00384684,0.00592307,0.00139455,0.00571627,0.00153005,-0
 .01213048,0.00278248,-0.00082353,-0.00070513,0.00011039,-0.00158473,-0
 .00743499,0.00881672,-0.00347156,0.00193181,-0.00163190,0.00018982,0.0
 0003920,-0.00002137,0.00083749,-0.00001422,-0.00022738,0.00097072,-0.0
 0035461,-0.00018395,0.00146655,0.00087373,-0.00020966,-0.00052426,-0.0
 0034517,0.00009101,0.12451495,-0.00013504,-0.00076188,0.00194922,0.000
 44565,0.00025952,-0.00023605,-0.11428133,-0.21732863,0.10023373,-0.000
 95698,-0.00278713,0.00193868,-0.00255886,0.00034517,-0.00474112,0.0025
 6912,0.01216175,-0.00558534,0.00061498,0.00044472,-0.00015748,-0.00848
 016,-0.00924278,0.01146777,0.00234792,-0.00032407,0.00143273,-0.000073
 86,0.00006625,0.00000808,-0.00013477,-0.00005563,0.00002625,-0.0000474
 6,-0.00026595,-0.00026873,-0.00083479,-0.00100408,-0.00003535,0.000414
 51,0.00020033,-0.00000297,0.12084497,0.21796209,-0.00004526,-0.0007594
 2,0.00104444,-0.00143659,-0.00048469,0.00050364,0.07375950,0.09411655,
 -0.13593271,-0.00099788,0.00240119,-0.00144761,0.00508007,-0.00321586,
 -0.00475454,0.01338594,0.02538142,-0.00555162,0.00003045,0.00129470,-0
 .00072455,-0.00777563,-0.01334958,0.01285888,-0.00195771,0.00025027,0.
 00072745,0.00001301,0.00010943,-0.00002014,0.00015745,-0.00002238,0.00
 000681,0.00014888,-0.00040735,0.00014933,0.00080391,0.00133131,0.00018
 250,-0.00031643,-0.00039593,-0.00019201,-0.08059030,-0.10603795,0.1331
 0440,0.00110670,-0.00126552,-0.00106518,-0.00347116,-0.00433118,-0.003
 43575,0.00257961,-0.00218704,0.00022545,-0.00228956,-0.01516040,0.0107
 5297,0.00107110,0.00162028,0.00028814,-0.00081524,0.00002750,0.0011945
 4,-0.00005061,-0.00001920,-0.00000071,-0.00020530,0.00013301,-0.000209
 34,-0.00015997,0.00004899,0.00004384,-0.00100076,-0.00059818,0.0008910
 2,0.00062023,0.00026436,0.00002768,-0.00013264,-0.00006015,-0.00097942
 ,-0.18871672,-0.09181873,0.04434434,0.01176211,-0.00737130,0.02041914,
 -0.00032881,0.00026611,-0.00025944,0.18003104,-0.00201103,0.00141045,0
 .00112974,-0.00105910,0.00171352,-0.00344675,-0.00078643,0.00005111,0.
 00015156,-0.01891437,0.00108541,0.00973420,-0.00052262,-0.00178548,-0.
 00040634,0.00019785,0.00024969,-0.00056291,0.00014353,0.00010440,0.000
 05936,0.00010830,0.00015663,-0.00002748,0.00002558,0.00002344,0.000053
 24,0.00078364,-0.00092731,-0.00003876,-0.00034312,0.00057639,0.0003819
 6,0.00070956,-0.00051540,-0.00046629,-0.09313624,-0.15153932,0.0379751
 5,-0.00543703,0.01859843,0.00996065,-0.00020999,0.00033031,-0.00021171
 ,0.12045148,0.13046774,0.00044700,-0.00056910,-0.00005847,-0.00358558,
 -0.00270430,-0.00194551,0.00057609,0.00040097,0.00002718,-0.01188880,-
 0.01098769,0.01146500,-0.00006674,0.00047385,-0.00026032,-0.00011042,-
 0.00003575,0.00065196,-0.00011163,0.00000610,0.00001917,0.00017496,-0.
 00025794,0.00003422,-0.00002060,0.00006497,-0.00005828,-0.00006727,-0.
 00090500,0.00040806,0.00000179,-0.00022129,-0.00009628,0.00095645,0.00
 077120,0.00059888,0.04994867,0.04247697,-0.09540779,0.03606720,0.02576
 406,-0.03550791,-0.00008383,0.00000856,0.00004575,-0.07223727,-0.05428
 560,0.12008433\\-0.00002152,0.00001714,0.00000739,0.00001646,0.0000052
 9,-0.00000806,-0.00000941,0.00001342,0.00000194,-0.00000220,-0.0000191
 0,0.00000290,0.00000523,-0.00002187,0.00000204,0.00001068,0.00000981,-
 0.00001519,0.00000682,0.00000477,0.00000233,-0.00000274,-0.00000957,0.
 00001082,0.00000491,0.00000216,-0.00000520,-0.00000287,0.00000192,0.00
 000223,-0.00000075,0.00000024,0.00000414,0.00000060,0.00000054,0.00000
 078,0.00000688,0.00002079,-0.00000258,-0.00000546,-0.00003281,-0.00000
 201,-0.00000138,-0.00000377,-0.00000675,-0.00000524,0.00001105,0.00000
 522\\\@
 The archive entry for this job was punched.


 GARBAGE IN, GARBAGE OUT
 Job cpu time:       0 days  1 hours 22 minutes 49.4 seconds.
 Elapsed time:       0 days  0 hours 12 minutes 32.5 seconds.
 File lengths (MBytes):  RWF=      6 Int=      0 D2E=      0 Chk=      1 Scr=      1
 Normal termination of Gaussian 16 at Wed Jan 17 00:12:22 2024.
