Unloading slurm/anatra/current
  ERROR: No such file or directory on
    '/cm/local/modulefiles/slurm/anatra/current'
environment: line 0: unalias: gv: not found
environment: line 0: unalias: sl: not found
 Entering Gaussian System, Link 0=g16
 Initial command:
 /apps/gaussian/g16/C.01/g16/l1.exe "/local/jobs/1157678/Gau-665447.inp" -scrdir="/local/jobs/1157678/"
 Entering Link 1 = /apps/gaussian/g16/C.01/g16/l1.exe PID=    665450.
  
 Copyright (c) 1988-2019, Gaussian, Inc.  All Rights Reserved.
  
 This is part of the Gaussian(R) 16 program.  It is based on
 the Gaussian(R) 09 system (copyright 2009, Gaussian, Inc.),
 the Gaussian(R) 03 system (copyright 2003, Gaussian, Inc.),
 the Gaussian(R) 98 system (copyright 1998, Gaussian, Inc.),
 the Gaussian(R) 94 system (copyright 1995, Gaussian, Inc.),
 the Gaussian 92(TM) system (copyright 1992, Gaussian, Inc.),
 the Gaussian 90(TM) system (copyright 1990, Gaussian, Inc.),
 the Gaussian 88(TM) system (copyright 1988, Gaussian, Inc.),
 the Gaussian 86(TM) system (copyright 1986, Carnegie Mellon
 University), and the Gaussian 82(TM) system (copyright 1983,
 Carnegie Mellon University). Gaussian is a federally registered
 trademark of Gaussian, Inc.
  
 This software contains proprietary and confidential information,
 including trade secrets, belonging to Gaussian, Inc.
  
 This software is provided under written license and may be
 used, copied, transmitted, or stored only in accord with that
 written license.
  
 The following legend is applicable only to US Government
 contracts under FAR:
  
                    RESTRICTED RIGHTS LEGEND
  
 Use, reproduction and disclosure by the US Government is
 subject to restrictions as set forth in subparagraphs (a)
 and (c) of the Commercial Computer Software - Restricted
 Rights clause in FAR 52.227-19.
  
 Gaussian, Inc.
 340 Quinnipiac St., Bldg. 40, Wallingford CT 06492
  
  
 ---------------------------------------------------------------
 Warning -- This program may not be used in any manner that
 competes with the business of Gaussian, Inc. or will provide
 assistance to any competitor of Gaussian, Inc.  The licensee
 of this program is prohibited from giving any competitor of
 Gaussian, Inc. access to this program.  By using this program,
 the user acknowledges that Gaussian, Inc. is engaged in the
 business of creating and licensing software in the field of
 computational chemistry and represents and warrants to the
 licensee that it is not a competitor of Gaussian, Inc. and that
 it will not use this program in any manner prohibited above.
 ---------------------------------------------------------------
  

 Cite this work as:
 Gaussian 16, Revision C.01,
 M. J. Frisch, G. W. Trucks, H. B. Schlegel, G. E. Scuseria, 
 M. A. Robb, J. R. Cheeseman, G. Scalmani, V. Barone, 
 G. A. Petersson, H. Nakatsuji, X. Li, M. Caricato, A. V. Marenich, 
 J. Bloino, B. G. Janesko, R. Gomperts, B. Mennucci, H. P. Hratchian, 
 J. V. Ortiz, A. F. Izmaylov, J. L. Sonnenberg, D. Williams-Young, 
 F. Ding, F. Lipparini, F. Egidi, J. Goings, B. Peng, A. Petrone, 
 T. Henderson, D. Ranasinghe, V. G. Zakrzewski, J. Gao, N. Rega, 
 G. Zheng, W. Liang, M. Hada, M. Ehara, K. Toyota, R. Fukuda, 
 J. Hasegawa, M. Ishida, T. Nakajima, Y. Honda, O. Kitao, H. Nakai, 
 T. Vreven, K. Throssell, J. A. Montgomery, Jr., J. E. Peralta, 
 F. Ogliaro, M. J. Bearpark, J. J. Heyd, E. N. Brothers, K. N. Kudin, 
 V. N. Staroverov, T. A. Keith, R. Kobayashi, J. Normand, 
 K. Raghavachari, A. P. Rendell, J. C. Burant, S. S. Iyengar, 
 J. Tomasi, M. Cossi, J. M. Millam, M. Klene, C. Adamo, R. Cammi, 
 J. W. Ochterski, R. L. Martin, K. Morokuma, O. Farkas, 
 J. B. Foresman, and D. J. Fox, Gaussian, Inc., Wallingford CT, 2019.
 
 ******************************************
 Gaussian 16:  ES64L-G16RevC.01  3-Jul-2019
                17-Jan-2024 
 ******************************************
 %nprocshared=12
 Will use up to   12 processors via shared memory.
 %mem=48GB
 ----------------------------------------------------------------------
 # external="~/scripts/MiMe -H 'hf def2svp' -EF 'wb97xd def2svp' -c 12 
 -m 48GB" opt=(calcall,ts,noeigen,maxcycles=50,maxstep=10,nomicro)
 ----------------------------------------------------------------------
 1/5=1,6=50,8=10,10=4,11=1,18=20,26=1,38=1/1,3;
 2/9=110,12=2,17=6,18=5,40=1/2;
 3/11=9,25=1,30=1,41=9900000,43=2,71=2,140=1/1;
 4/20=17,22=2,24=3,113=1,114=1/2;
 6/7=2,8=2,9=2,10=2,18=1/1;
 7/25=1,44=-1/16;
 1/5=1,6=50,8=10,10=4,11=1,18=20,26=1/3(3);
 2/9=110/2;
 7/8=1,9=1,25=1,44=-1/16;
 99//99;
 2/9=110/2;
 3/11=9,25=1,30=1,41=9900000,43=2,71=2,140=1/1;
 4/16=2,20=17,22=2,24=3,113=1,114=1/2;
 7/25=1,44=-1/16;
 1/5=1,6=50,8=10,10=4,11=1,18=20,26=1/3(-4);
 2/9=110/2;
 6/7=2,8=2,9=2,10=2,18=1/1;
 7/8=1,9=1,25=1,44=-1/16;
 99//99;
 -----
 *****
 -----
 Symbolic Z-matrix:
 Charge =  0 Multiplicity = 1
 C                    -0.2575   -1.9445    0.4924 
 C                     0.3286   -0.0889   -0.7909 
 C                    -2.0352   -0.7041    0.0388 
 C                    -1.115     0.3285   -0.9316 
 C                    -1.0356   -2.7139   -0.451 
 C                    -2.1494   -2.0106   -0.6995 
 H                    -2.9264   -2.2819   -1.3967 
 C                    -3.2574    0.1226    0.3831 
 H                    -3.9683    0.1197   -0.4524 
 H                    -3.7878   -0.245     1.2681 
 C                    -2.7195    1.5396    0.6015 
 H                    -3.4906    2.2903    0.4124 
 H                    -2.3119    1.6634    1.6093 
 C                    -1.5872    1.6666   -0.3986 
 O                    -1.1174    2.7394   -0.7623 
 H                    -0.7421   -3.6634   -0.8684 
 H                    -1.4561    0.2362   -1.9699 
 H                     0.7903   -0.6172   -1.6179 
 C                     1.2158    0.5654    0.1836 
 O                     0.8153    1.1752    1.1624 
 N                    -1.1786   -1.0708    1.1797 
 H                    -0.739    -0.2942    1.6798 
 H                     0.6718   -2.2973    0.9293 
 Br                    3.0542    0.2998    0.0066 
 

 GradGradGradGradGradGradGradGradGradGradGradGradGradGradGradGradGradGrad
 Berny optimization.
 Initialization pass.
                           ----------------------------
                           !    Initial Parameters    !
                           ! (Angstroms and Degrees)  !
 --------------------------                            --------------------------
 ! Name  Definition              Value          Derivative Info.                !
 --------------------------------------------------------------------------------
 ! R1    R(1,5)                  1.4448         calculate D2E/DX2 analytically  !
 ! R2    R(1,21)                 1.4437         calculate D2E/DX2 analytically  !
 ! R3    R(1,23)                 1.0858         calculate D2E/DX2 analytically  !
 ! R4    R(2,4)                  1.5093         calculate D2E/DX2 analytically  !
 ! R5    R(2,18)                 1.0845         calculate D2E/DX2 analytically  !
 ! R6    R(2,19)                 1.4714         calculate D2E/DX2 analytically  !
 ! R7    R(3,4)                  1.6896         calculate D2E/DX2 analytically  !
 ! R8    R(3,6)                  1.505          calculate D2E/DX2 analytically  !
 ! R9    R(3,8)                  1.5152         calculate D2E/DX2 analytically  !
 ! R10   R(3,21)                 1.4731         calculate D2E/DX2 analytically  !
 ! R11   R(4,14)                 1.5158         calculate D2E/DX2 analytically  !
 ! R12   R(4,17)                 1.0968         calculate D2E/DX2 analytically  !
 ! R13   R(5,6)                  1.3405         calculate D2E/DX2 analytically  !
 ! R14   R(5,16)                 1.0779         calculate D2E/DX2 analytically  !
 ! R15   R(6,7)                  1.0786         calculate D2E/DX2 analytically  !
 ! R16   R(8,9)                  1.097          calculate D2E/DX2 analytically  !
 ! R17   R(8,10)                 1.0953         calculate D2E/DX2 analytically  !
 ! R18   R(8,11)                 1.5313         calculate D2E/DX2 analytically  !
 ! R19   R(11,12)                1.0927         calculate D2E/DX2 analytically  !
 ! R20   R(11,13)                1.0941         calculate D2E/DX2 analytically  !
 ! R21   R(11,14)                1.5161         calculate D2E/DX2 analytically  !
 ! R22   R(14,15)                1.2263         calculate D2E/DX2 analytically  !
 ! R23   R(19,20)                1.2208         calculate D2E/DX2 analytically  !
 ! R24   R(19,24)                1.8659         calculate D2E/DX2 analytically  !
 ! R25   R(21,22)                1.023          calculate D2E/DX2 analytically  !
 ! A1    A(5,1,21)             106.8303         calculate D2E/DX2 analytically  !
 ! A2    A(5,1,23)             123.411          calculate D2E/DX2 analytically  !
 ! A3    A(21,1,23)            123.446          calculate D2E/DX2 analytically  !
 ! A4    A(4,2,18)             118.0871         calculate D2E/DX2 analytically  !
 ! A5    A(4,2,19)             121.0305         calculate D2E/DX2 analytically  !
 ! A6    A(18,2,19)            117.7081         calculate D2E/DX2 analytically  !
 ! A7    A(4,3,6)              106.8651         calculate D2E/DX2 analytically  !
 ! A8    A(4,3,8)              103.6727         calculate D2E/DX2 analytically  !
 ! A9    A(4,3,21)             106.2761         calculate D2E/DX2 analytically  !
 ! A10   A(6,3,8)              121.595          calculate D2E/DX2 analytically  !
 ! A11   A(6,3,21)             102.0033         calculate D2E/DX2 analytically  !
 ! A12   A(8,3,21)             115.3978         calculate D2E/DX2 analytically  !
 ! A13   A(2,4,3)              107.3594         calculate D2E/DX2 analytically  !
 ! A14   A(2,4,14)             120.6183         calculate D2E/DX2 analytically  !
 ! A15   A(2,4,17)             111.2501         calculate D2E/DX2 analytically  !
 ! A16   A(3,4,14)              99.6654         calculate D2E/DX2 analytically  !
 ! A17   A(3,4,17)             108.8386         calculate D2E/DX2 analytically  !
 ! A18   A(14,4,17)            108.0768         calculate D2E/DX2 analytically  !
 ! A19   A(1,5,6)              106.8057         calculate D2E/DX2 analytically  !
 ! A20   A(1,5,16)             125.1203         calculate D2E/DX2 analytically  !
 ! A21   A(6,5,16)             128.0684         calculate D2E/DX2 analytically  !
 ! A22   A(3,6,5)              107.5457         calculate D2E/DX2 analytically  !
 ! A23   A(3,6,7)              126.164          calculate D2E/DX2 analytically  !
 ! A24   A(5,6,7)              125.9021         calculate D2E/DX2 analytically  !
 ! A25   A(3,8,9)              110.3785         calculate D2E/DX2 analytically  !
 ! A26   A(3,8,10)             113.0233         calculate D2E/DX2 analytically  !
 ! A27   A(3,8,11)             104.7112         calculate D2E/DX2 analytically  !
 ! A28   A(9,8,10)             107.4987         calculate D2E/DX2 analytically  !
 ! A29   A(9,8,11)             109.7977         calculate D2E/DX2 analytically  !
 ! A30   A(10,8,11)            111.4337         calculate D2E/DX2 analytically  !
 ! A31   A(8,11,12)            111.2954         calculate D2E/DX2 analytically  !
 ! A32   A(8,11,13)            111.5264         calculate D2E/DX2 analytically  !
 ! A33   A(8,11,14)            104.2281         calculate D2E/DX2 analytically  !
 ! A34   A(12,11,13)           110.1556         calculate D2E/DX2 analytically  !
 ! A35   A(12,11,14)           110.8152         calculate D2E/DX2 analytically  !
 ! A36   A(13,11,14)           108.6573         calculate D2E/DX2 analytically  !
 ! A37   A(4,14,11)            112.9969         calculate D2E/DX2 analytically  !
 ! A38   A(4,14,15)            123.2733         calculate D2E/DX2 analytically  !
 ! A39   A(11,14,15)           123.7139         calculate D2E/DX2 analytically  !
 ! A40   A(2,19,20)            123.7344         calculate D2E/DX2 analytically  !
 ! A41   A(2,19,24)            117.9025         calculate D2E/DX2 analytically  !
 ! A42   A(20,19,24)           118.0599         calculate D2E/DX2 analytically  !
 ! A43   A(1,21,3)              98.7979         calculate D2E/DX2 analytically  !
 ! A44   A(1,21,22)            114.7088         calculate D2E/DX2 analytically  !
 ! A45   A(3,21,22)            116.075          calculate D2E/DX2 analytically  !
 ! D1    D(21,1,5,6)            23.0539         calculate D2E/DX2 analytically  !
 ! D2    D(21,1,5,16)         -157.7473         calculate D2E/DX2 analytically  !
 ! D3    D(23,1,5,6)           175.8461         calculate D2E/DX2 analytically  !
 ! D4    D(23,1,5,16)           -4.9552         calculate D2E/DX2 analytically  !
 ! D5    D(5,1,21,3)           -39.4293         calculate D2E/DX2 analytically  !
 ! D6    D(5,1,21,22)         -163.542          calculate D2E/DX2 analytically  !
 ! D7    D(23,1,21,3)          167.7904         calculate D2E/DX2 analytically  !
 ! D8    D(23,1,21,22)          43.6777         calculate D2E/DX2 analytically  !
 ! D9    D(18,2,4,3)           105.9672         calculate D2E/DX2 analytically  !
 ! D10   D(18,2,4,14)         -141.115          calculate D2E/DX2 analytically  !
 ! D11   D(18,2,4,17)          -13.0164         calculate D2E/DX2 analytically  !
 ! D12   D(19,2,4,3)           -94.6272         calculate D2E/DX2 analytically  !
 ! D13   D(19,2,4,14)           18.2907         calculate D2E/DX2 analytically  !
 ! D14   D(19,2,4,17)          146.3893         calculate D2E/DX2 analytically  !
 ! D15   D(4,2,19,20)           21.4039         calculate D2E/DX2 analytically  !
 ! D16   D(4,2,19,24)         -165.0544         calculate D2E/DX2 analytically  !
 ! D17   D(18,2,19,20)        -179.1152         calculate D2E/DX2 analytically  !
 ! D18   D(18,2,19,24)          -5.5735         calculate D2E/DX2 analytically  !
 ! D19   D(6,3,4,2)            -76.816          calculate D2E/DX2 analytically  !
 ! D20   D(6,3,4,14)           156.7037         calculate D2E/DX2 analytically  !
 ! D21   D(6,3,4,17)            43.7068         calculate D2E/DX2 analytically  !
 ! D22   D(8,3,4,2)            153.6026         calculate D2E/DX2 analytically  !
 ! D23   D(8,3,4,14)            27.1224         calculate D2E/DX2 analytically  !
 ! D24   D(8,3,4,17)           -85.8745         calculate D2E/DX2 analytically  !
 ! D25   D(21,3,4,2)            31.5387         calculate D2E/DX2 analytically  !
 ! D26   D(21,3,4,14)          -94.9415         calculate D2E/DX2 analytically  !
 ! D27   D(21,3,4,17)          152.0616         calculate D2E/DX2 analytically  !
 ! D28   D(4,3,6,5)             82.8945         calculate D2E/DX2 analytically  !
 ! D29   D(4,3,6,7)            -90.2677         calculate D2E/DX2 analytically  !
 ! D30   D(8,3,6,5)           -158.6517         calculate D2E/DX2 analytically  !
 ! D31   D(8,3,6,7)             28.1861         calculate D2E/DX2 analytically  !
 ! D32   D(21,3,6,5)           -28.4432         calculate D2E/DX2 analytically  !
 ! D33   D(21,3,6,7)           158.3945         calculate D2E/DX2 analytically  !
 ! D34   D(4,3,8,9)             79.5515         calculate D2E/DX2 analytically  !
 ! D35   D(4,3,8,10)          -160.0256         calculate D2E/DX2 analytically  !
 ! D36   D(4,3,8,11)           -38.5536         calculate D2E/DX2 analytically  !
 ! D37   D(6,3,8,9)            -40.4598         calculate D2E/DX2 analytically  !
 ! D38   D(6,3,8,10)            79.963          calculate D2E/DX2 analytically  !
 ! D39   D(6,3,8,11)          -158.5649         calculate D2E/DX2 analytically  !
 ! D40   D(21,3,8,9)          -164.6758         calculate D2E/DX2 analytically  !
 ! D41   D(21,3,8,10)          -44.2529         calculate D2E/DX2 analytically  !
 ! D42   D(21,3,8,11)           77.2191         calculate D2E/DX2 analytically  !
 ! D43   D(4,3,21,1)           -71.9506         calculate D2E/DX2 analytically  !
 ! D44   D(4,3,21,22)           51.187          calculate D2E/DX2 analytically  !
 ! D45   D(6,3,21,1)            39.8308         calculate D2E/DX2 analytically  !
 ! D46   D(6,3,21,22)          162.9683         calculate D2E/DX2 analytically  !
 ! D47   D(8,3,21,1)           173.7684         calculate D2E/DX2 analytically  !
 ! D48   D(8,3,21,22)          -63.094          calculate D2E/DX2 analytically  !
 ! D49   D(2,4,14,11)         -122.9362         calculate D2E/DX2 analytically  !
 ! D50   D(2,4,14,15)           58.469          calculate D2E/DX2 analytically  !
 ! D51   D(3,4,14,11)           -6.0327         calculate D2E/DX2 analytically  !
 ! D52   D(3,4,14,15)          175.3724         calculate D2E/DX2 analytically  !
 ! D53   D(17,4,14,11)         107.5549         calculate D2E/DX2 analytically  !
 ! D54   D(17,4,14,15)         -71.04           calculate D2E/DX2 analytically  !
 ! D55   D(1,5,6,3)              3.9027         calculate D2E/DX2 analytically  !
 ! D56   D(1,5,6,7)            177.0878         calculate D2E/DX2 analytically  !
 ! D57   D(16,5,6,3)          -175.2648         calculate D2E/DX2 analytically  !
 ! D58   D(16,5,6,7)            -2.0797         calculate D2E/DX2 analytically  !
 ! D59   D(3,8,11,12)          154.3777         calculate D2E/DX2 analytically  !
 ! D60   D(3,8,11,13)          -82.166          calculate D2E/DX2 analytically  !
 ! D61   D(3,8,11,14)           34.8856         calculate D2E/DX2 analytically  !
 ! D62   D(9,8,11,12)           35.8781         calculate D2E/DX2 analytically  !
 ! D63   D(9,8,11,13)          159.3345         calculate D2E/DX2 analytically  !
 ! D64   D(9,8,11,14)          -83.6139         calculate D2E/DX2 analytically  !
 ! D65   D(10,8,11,12)         -83.1103         calculate D2E/DX2 analytically  !
 ! D66   D(10,8,11,13)          40.346          calculate D2E/DX2 analytically  !
 ! D67   D(10,8,11,14)         157.3976         calculate D2E/DX2 analytically  !
 ! D68   D(8,11,14,4)          -16.9278         calculate D2E/DX2 analytically  !
 ! D69   D(8,11,14,15)         161.6599         calculate D2E/DX2 analytically  !
 ! D70   D(12,11,14,4)        -136.7445         calculate D2E/DX2 analytically  !
 ! D71   D(12,11,14,15)         41.8432         calculate D2E/DX2 analytically  !
 ! D72   D(13,11,14,4)         102.0947         calculate D2E/DX2 analytically  !
 ! D73   D(13,11,14,15)        -79.3176         calculate D2E/DX2 analytically  !
 --------------------------------------------------------------------------------
 Trust Radius=1.00D-01 FncErr=1.00D-07 GrdErr=1.00D-07 EigMax=2.50D+02 EigMin=1.00D-04
 Number of steps in this run=     50 maximum allowed number of steps=    144.
 Search for a saddle point of order  1.
 GradGradGradGradGradGradGradGradGradGradGradGradGradGradGradGradGradGrad

                          Input orientation:                          
 ---------------------------------------------------------------------
 Center     Atomic      Atomic             Coordinates (Angstroms)
 Number     Number       Type             X           Y           Z
 ---------------------------------------------------------------------
      1          6           0       -0.257500   -1.944500    0.492400
      2          6           0        0.328600   -0.088900   -0.790900
      3          6           0       -2.035200   -0.704100    0.038800
      4          6           0       -1.115000    0.328500   -0.931600
      5          6           0       -1.035600   -2.713900   -0.451000
      6          6           0       -2.149400   -2.010600   -0.699500
      7          1           0       -2.926400   -2.281900   -1.396700
      8          6           0       -3.257400    0.122600    0.383100
      9          1           0       -3.968300    0.119700   -0.452400
     10          1           0       -3.787800   -0.245000    1.268100
     11          6           0       -2.719500    1.539600    0.601500
     12          1           0       -3.490600    2.290300    0.412400
     13          1           0       -2.311900    1.663400    1.609300
     14          6           0       -1.587200    1.666600   -0.398600
     15          8           0       -1.117400    2.739400   -0.762300
     16          1           0       -0.742100   -3.663400   -0.868400
     17          1           0       -1.456100    0.236200   -1.969900
     18          1           0        0.790300   -0.617200   -1.617900
     19          6           0        1.215800    0.565400    0.183600
     20          8           0        0.815300    1.175200    1.162400
     21          7           0       -1.178600   -1.070800    1.179700
     22          1           0       -0.739000   -0.294200    1.679800
     23          1           0        0.671800   -2.297300    0.929300
     24         35           0        3.054200    0.299800    0.006600
 ---------------------------------------------------------------------
                    Distance matrix (angstroms):
                    1          2          3          4          5
     1  C    0.000000
     2  C    2.331013   0.000000
     3  C    2.214625   2.579617   0.000000
     4  C    2.815957   1.509305   1.689588   0.000000
     5  C    1.444790   2.977784   2.297477   3.081149   0.000000
     6  C    2.237025   3.137159   1.505015   2.568120   1.340498
     7  H    3.287182   3.971306   2.311785   3.211180   2.157799
     8  C    3.644756   3.779207   1.515173   2.522045   3.698358
     9  H    4.350127   4.315257   2.157962   2.900785   4.077992
    10  H    3.994124   4.605279   2.189420   3.508766   4.077423
    11  C    4.267587   3.725816   2.412278   2.528157   4.694203
    12  H    5.328496   4.657769   3.350253   3.361320   5.640435
    13  H    4.299415   3.975394   2.854486   3.109775   5.003452
    14  C    3.949940   2.627921   2.451987   1.515775   4.415404
    15  O    4.924695   3.176636   3.652644   2.416838   5.462790
    16  H    2.245269   3.732219   3.354486   4.009777   1.077922
    17  H    3.500716   2.163535   2.292247   1.096784   3.344692
    18  H    2.704252   1.084526   3.276531   2.235067   3.015247
    19  C    2.926699   1.471354   3.493079   2.594691   4.028067
    20  O    3.366352   2.377016   3.594384   2.971161   4.599347
    21  N    1.443661   2.668154   1.473053   2.533707   2.319355
    22  H    2.089318   2.699310   2.130970   2.710819   3.237781
    23  H    1.085794   2.820267   3.264832   3.681091   2.234726
    24  Br   4.029918   2.866355   5.187566   4.273555   5.100809
                    6          7          8          9         10
     6  C    0.000000
     7  H    1.078620   0.000000
     8  C    2.636329   3.009796   0.000000
     9  H    2.812052   2.782973   1.097018   0.000000
    10  H    3.110168   3.462966   1.095299   1.767967   0.000000
    11  C    3.823812   4.317346   1.531314   2.164792   2.184129
    12  H    4.640353   4.949361   2.180405   2.384865   2.692266
    13  H    4.342262   4.997903   2.184400   3.062234   2.436532
    14  C    3.732078   4.287227   2.405111   2.839970   3.357789
    15  O    4.861221   5.374793   3.569199   3.884134   4.490012
    16  H    2.177331   2.637956   4.714529   4.989315   5.052364
    17  H    2.672581   2.971728   2.965501   2.937265   4.019082
    18  H    3.380364   4.078482   4.575498   4.954360   5.424622
    19  C    4.328997   5.268993   4.499488   5.241950   5.183522
    20  O    4.733438   5.700952   4.278102   5.157954   4.818368
    21  N    2.314534   3.340570   2.525903   3.444338   2.738190
    22  H    3.255200   4.266207   2.863126   3.891782   3.076865
    23  H    3.270223   4.284572   4.646812   5.411239   4.920849
    24  Br   5.737071   6.663483   6.325302   7.039789   6.978621
                   11         12         13         14         15
    11  C    0.000000
    12  H    1.092659   0.000000
    13  H    1.094132   1.793016   0.000000
    14  C    1.516058   2.160938   2.134681   0.000000
    15  O    2.422023   2.685831   2.865151   1.226332   0.000000
    16  H    5.756902   6.681410   6.080959   5.416992   6.414667
    17  H    3.147559   3.746181   3.947147   2.128900   2.799826
    18  H    4.679340   5.558937   5.023903   3.514960   3.954508
    19  C    4.075573   5.017752   3.960163   3.067313   3.326383
    20  O    3.597528   4.510734   3.196473   2.906923   3.144284
    21  N    3.085916   4.151034   2.990782   3.186117   4.277001
    22  H    2.906533   3.982116   2.512207   2.980592   3.912770
    23  H    5.131293   6.216014   5.005198   4.751726   5.606344
    24  Br   5.935202   6.852822   5.763947   4.855401   4.893373
                   16         17         18         19         20
    16  H    0.000000
    17  H    4.114605   0.000000
    18  H    3.491323   2.428685   0.000000
    19  C    4.777324   3.447461   2.196587   0.000000
    20  O    5.473728   3.981492   3.308080   1.220781   0.000000
    21  N    3.332690   3.421291   3.450925   3.066352   3.003407
    22  H    4.224316   3.757109   3.649372   2.607445   2.200611
    23  H    2.664032   4.399084   3.053687   3.007832   3.483272
    24  Br   5.557380   4.924774   2.933451   1.865901   2.667372
                   21         22         23         24
    21  N    0.000000
    22  H    1.022964   0.000000
    23  H    2.234051   2.562424   0.000000
    24  Br   4.601229   4.188174   3.643094   0.000000
 Stoichiometry    C10H10BrNO2
 Framework group  C1[X(C10H10BrNO2)]
 Deg. of freedom    66
 Full point group                 C1      NOp   1
 Largest Abelian subgroup         C1      NOp   1
 Largest concise Abelian subgroup C1      NOp   1
                         Standard orientation:                         
 ---------------------------------------------------------------------
 Center     Atomic      Atomic             Coordinates (Angstroms)
 Number     Number       Type             X           Y           Z
 ---------------------------------------------------------------------
      1          6           0        0.446932    1.980047    0.519236
      2          6           0       -0.283635    0.206262   -0.804993
      3          6           0        2.115130    0.597992    0.059237
      4          6           0        1.119728   -0.332662   -0.939645
      5          6           0        1.299598    2.695819   -0.401661
      6          6           0        2.350805    1.902822   -0.652763
      7          1           0        3.156296    2.118077   -1.337067
      8          6           0        3.256877   -0.338167    0.399487
      9          1           0        3.974763   -0.381967   -0.428866
     10          1           0        3.807153   -0.034363    1.296470
     11          6           0        2.595422   -1.706673    0.585479
     12          1           0        3.300456   -2.518113    0.389529
     13          1           0        2.167209   -1.812853    1.586720
     14          6           0        1.467778   -1.716303   -0.427811
     15          8           0        0.910672   -2.737292   -0.816532
     16          1           0        1.094478    3.674728   -0.803629
     17          1           0        1.479306   -0.251508   -1.972628
     18          1           0       -0.688271    0.787762   -1.626166
     19          6           0       -1.235331   -0.385931    0.148142
     20          8           0       -0.900463   -1.046045    1.118924
     21          7           0        1.280765    1.017048    1.198584
     22          1           0        0.769695    0.272702    1.679430
     23          1           0       -0.453083    2.404428    0.953773
     24         35           0       -3.041567    0.041978   -0.041572
 ---------------------------------------------------------------------
 Rotational constants (GHZ):           0.9200981           0.3747929           0.2995681
 Standard basis: STO-3G (5D, 7F)
 There are    94 symmetry adapted cartesian basis functions of A   symmetry.
 There are    93 symmetry adapted basis functions of A   symmetry.
    93 basis functions,   282 primitive gaussians,    94 cartesian basis functions
    64 alpha electrons       64 beta electrons
       nuclear repulsion energy      1228.8323260561 Hartrees.
 NAtoms=   24 NActive=   24 NUniq=   24 SFac= 1.00D+00 NAtFMM=   60 NAOKFM=F Big=F
 Integral buffers will be    131072 words long.
 Raffenetti 1 integral format.
 Two-electron integral symmetry is turned on.
 External calculation of energy, first and second derivatives.
 Running external command "~/scripts/MiMe -H 'hf def2svp' -EF 'wb97xd def2svp' -c 12 -m 48GB R"
         input file       "/local/jobs/1157678/Gau-665450.EIn"
         output file      "/local/jobs/1157678/Gau-665450.EOu"
         message file     "/local/jobs/1157678/Gau-665450.EMs"
         fchk file        "/local/jobs/1157678/Gau-665450.EFC"
         mat. el file     "/local/jobs/1157678/Gau-665450.EUF"
 Read checkpoint file Gau-665450_H.chk type G16
 Write formatted file Gau-665450_H.fchk

deriv: 2

spelevel: wb97xd def2svp
gradlevel: wb97xd def2svp
hesslevel: hf def2svp

runspe: False
runforce: True
runfreq: True

Running Gaussian ...

Parsing files ...
SPE file: Gau-665450_F.out
FORCE file: Gau-665450_F.out
HESS file: Gau-665450_H.out

 ExternalExternalExternalExternalExternalExternalExternalExternalExternalExternal
 Output from external command:
 "~/scripts/MiMe -H 'hf def2svp' -EF 'wb97xd def2svp' -c 12 -m 48GB R /local/jobs/1157678/Gau-665450.EIn /local/jobs/1157678/Gau-665450.EOu /local/jobs/1157678/Gau-665450.EMs /local/jobs/1157678/Gau-665450.EFC /local/jobs/1157678/Gau-665450.EUF"
  
 --------------------------------------------------
 Force calculation at wb97xd def2svp
 Hessian calculation at hf def2svp
 ExternalExternalExternalExternalExternalExternalExternalExternalExternalExternal

 Recovered energy= -3165.49200118     dipole=      4.078200000000      4.589500000000     -0.817600000000
 Energy=    -3165.49200     NIter=   0.
 Dipole moment=       4.078200       4.589500      -0.817600
 ***** Axes restored to original set *****
 -------------------------------------------------------------------
 Center     Atomic                   Forces (Hartrees/Bohr)
 Number     Number              X              Y              Z
 -------------------------------------------------------------------
      1        6          -0.020418610    0.038342047    0.018370883
      2        6          -0.007955297   -0.005102196    0.006516904
      3        6          -0.004928871   -0.017152736    0.004066932
      4        6           0.018940459   -0.023022672    0.021107038
      5        6           0.008658751    0.007330187    0.005560014
      6        6          -0.000175981    0.018211766    0.007755130
      7        1          -0.007401127    0.001833437   -0.005234286
      8        6           0.000639058    0.005504250    0.007668460
      9        1          -0.000175561   -0.001635434   -0.003139095
     10        1          -0.000168921   -0.004801504    0.000376207
     11        6          -0.005569663   -0.011659667   -0.012574993
     12        1           0.001755111    0.006989657    0.002741257
     13        1           0.001800005    0.003010236    0.003881241
     14        6           0.024151924    0.053819080   -0.009204346
     15        8          -0.016341428   -0.034847281    0.009179338
     16        1           0.003806040   -0.005508730   -0.004671157
     17        1          -0.000395855   -0.001063587   -0.001050740
     18        1           0.002739953    0.003995288   -0.006062314
     19        6          -0.052583946    0.003425429    0.015409621
     20        8           0.001850873   -0.009166482   -0.015212113
     21        7           0.021843717   -0.025121966   -0.042357255
     22        1           0.001552037    0.000335645   -0.002523572
     23        1           0.001744436    0.002628285    0.007150228
     24       35           0.026632894   -0.006343053   -0.007753387
 -------------------------------------------------------------------
 Cartesian Forces:  Max     0.053819080 RMS     0.015623359
 FormGI is forming the generalized inverse of G from B-inverse, IUseBI=4.

 GradGradGradGradGradGradGradGradGradGradGradGradGradGradGradGradGradGrad
 Berny optimization.
 Internal  Forces:  Max     0.050230308 RMS     0.009308440
 Search for a saddle point.
 Step number   1 out of a maximum of   50
 All quantities printed in internal units (Hartrees-Bohrs-Radians)
 Swapping is turned off.
 Second derivative matrix not updated -- analytic derivatives used.
 ITU=  0
     Eigenvalues ---   -0.08176   0.00623   0.01314   0.01532   0.01618
     Eigenvalues ---    0.01832   0.02078   0.02359   0.02462   0.02829
     Eigenvalues ---    0.03106   0.04341   0.04394   0.04663   0.04796
     Eigenvalues ---    0.05068   0.05649   0.05735   0.06283   0.06471
     Eigenvalues ---    0.07211   0.07411   0.08026   0.09272   0.09464
     Eigenvalues ---    0.10736   0.11409   0.11707   0.12484   0.12693
     Eigenvalues ---    0.13422   0.13863   0.15245   0.17564   0.18751
     Eigenvalues ---    0.21312   0.23554   0.23861   0.24318   0.24949
     Eigenvalues ---    0.26115   0.27107   0.27589   0.28288   0.30691
     Eigenvalues ---    0.30852   0.32473   0.33463   0.34874   0.35560
     Eigenvalues ---    0.35738   0.35985   0.36350   0.36557   0.37087
     Eigenvalues ---    0.39090   0.39297   0.39507   0.39996   0.40853
     Eigenvalues ---    0.41078   0.45229   0.50606   0.63867   0.80751
     Eigenvalues ---    0.82284
 Eigenvectors required to have negative eigenvalues:
                          R7        D43       D5        D47       D45
   1                   -0.31008   0.28817  -0.24921   0.24861   0.22639
                          D1        D8        D28       R2        D12
   1                    0.21409   0.19722  -0.19219   0.17485  -0.17070
 RFO step:  Lambda0=2.532886176D-03 Lambda=-3.58239112D-02.
 Linear search not attempted -- option 19 set.
 Maximum step size (   0.100) exceeded in Quadratic search.
    -- Step size scaled by   0.310
 Iteration  1 RMS(Cart)=  0.01897207 RMS(Int)=  0.00013629
 Iteration  2 RMS(Cart)=  0.00021795 RMS(Int)=  0.00005419
 Iteration  3 RMS(Cart)=  0.00000003 RMS(Int)=  0.00005419
 Variable       Old X    -DE/DX   Delta X   Delta X   Delta X     New X
                                 (Linear)    (Quad)   (Total)
    R1        2.73026   0.00131   0.00000   0.00067   0.00063   2.73089
    R2        2.72812  -0.05023   0.00000  -0.05873  -0.05877   2.66936
    R3        2.05185   0.00352   0.00000   0.00240   0.00240   2.05426
    R4        2.85217  -0.02505   0.00000  -0.02310  -0.02310   2.82907
    R5        2.04946   0.00384   0.00000   0.00186   0.00186   2.05132
    R6        2.78046  -0.02492   0.00000  -0.02651  -0.02651   2.75395
    R7        3.19286  -0.02790   0.00000  -0.00371  -0.00374   3.18912
    R8        2.84407  -0.02106   0.00000  -0.01590  -0.01588   2.82819
    R9        2.86326  -0.00048   0.00000   0.00055   0.00053   2.86379
   R10        2.78367  -0.01817   0.00000  -0.01688  -0.01680   2.76687
   R11        2.86440   0.00936   0.00000   0.01170   0.01172   2.87612
   R12        2.07262   0.00121   0.00000   0.00146   0.00146   2.07408
   R13        2.53317   0.01175   0.00000   0.00632   0.00630   2.53947
   R14        2.03698   0.00770   0.00000   0.00501   0.00501   2.04199
   R15        2.03830   0.00825   0.00000   0.00542   0.00542   2.04372
   R16        2.07306   0.00251   0.00000   0.00193   0.00193   2.07499
   R17        2.06981   0.00200   0.00000   0.00137   0.00137   2.07118
   R18        2.89376   0.00576   0.00000   0.00150   0.00149   2.89526
   R19        2.06483   0.00309   0.00000   0.00259   0.00259   2.06741
   R20        2.06761   0.00459   0.00000   0.00402   0.00402   2.07163
   R21        2.86493   0.00478   0.00000   0.00470   0.00473   2.86967
   R22        2.31743  -0.03947   0.00000  -0.01643  -0.01643   2.30101
   R23        2.30694  -0.01739   0.00000  -0.00580  -0.00580   2.30114
   R24        3.52604   0.02788   0.00000   0.03885   0.03885   3.56489
   R25        1.93312  -0.00031   0.00000   0.00024   0.00024   1.93336
    A1        1.86454   0.00026   0.00000   0.00819   0.00801   1.87255
    A2        2.15393   0.00632   0.00000   0.01112   0.01113   2.16505
    A3        2.15454  -0.00595   0.00000  -0.00827  -0.00839   2.14615
    A4        2.06101   0.00317   0.00000   0.00869   0.00868   2.06968
    A5        2.11238  -0.00944   0.00000  -0.01268  -0.01269   2.09969
    A6        2.05439   0.00604   0.00000   0.00745   0.00744   2.06183
    A7        1.86515  -0.00915   0.00000  -0.01234  -0.01237   1.85278
    A8        1.80943   0.00900   0.00000   0.00319   0.00321   1.81264
    A9        1.85487  -0.01199   0.00000  -0.01416  -0.01411   1.84076
   A10        2.12223   0.00245   0.00000   0.01182   0.01183   2.13406
   A11        1.78029   0.00578   0.00000   0.00276   0.00258   1.78288
   A12        2.01407   0.00029   0.00000   0.00346   0.00335   2.01742
   A13        1.87377  -0.01587   0.00000   0.00644   0.00644   1.88021
   A14        2.10519   0.00870   0.00000   0.00061   0.00057   2.10575
   A15        1.94168  -0.00048   0.00000  -0.00187  -0.00187   1.93981
   A16        1.73949   0.00581   0.00000   0.00438   0.00435   1.74384
   A17        1.89959   0.00474   0.00000  -0.00321  -0.00320   1.89639
   A18        1.88630  -0.00261   0.00000  -0.00576  -0.00575   1.88055
   A19        1.86411  -0.00277   0.00000  -0.00439  -0.00451   1.85960
   A20        2.18376   0.00076   0.00000   0.00174   0.00180   2.18556
   A21        2.23522   0.00200   0.00000   0.00264   0.00270   2.23792
   A22        1.87703  -0.01191   0.00000  -0.00427  -0.00435   1.87268
   A23        2.20198   0.00186   0.00000  -0.00518  -0.00512   2.19685
   A24        2.19741   0.00973   0.00000   0.00888   0.00889   2.20630
   A25        1.92647  -0.00195   0.00000  -0.00563  -0.00562   1.92084
   A26        1.97263   0.00209   0.00000  -0.00383  -0.00383   1.96880
   A27        1.82755  -0.00643   0.00000  -0.00060  -0.00062   1.82693
   A28        1.87621  -0.00083   0.00000   0.00057   0.00053   1.87673
   A29        1.91633   0.00294   0.00000   0.00133   0.00132   1.91765
   A30        1.94489   0.00424   0.00000   0.00817   0.00818   1.95307
   A31        1.94247   0.00476   0.00000   0.00988   0.00987   1.95234
   A32        1.94650  -0.00170   0.00000   0.00092   0.00094   1.94744
   A33        1.81912   0.00448   0.00000   0.00694   0.00693   1.82606
   A34        1.92258  -0.00200   0.00000  -0.00840  -0.00843   1.91415
   A35        1.93409  -0.00075   0.00000  -0.00337  -0.00345   1.93064
   A36        1.89643  -0.00473   0.00000  -0.00556  -0.00558   1.89085
   A37        1.97217  -0.01030   0.00000  -0.00905  -0.00903   1.96314
   A38        2.15152   0.00401   0.00000   0.00369   0.00367   2.15519
   A39        2.15921   0.00631   0.00000   0.00522   0.00520   2.16442
   A40        2.15957   0.00032   0.00000   0.01053   0.01053   2.17010
   A41        2.05779  -0.01003   0.00000  -0.01426  -0.01426   2.04353
   A42        2.06053   0.00976   0.00000   0.00406   0.00406   2.06460
   A43        1.72435   0.00993   0.00000   0.02023   0.02030   1.74465
   A44        2.00205  -0.01226   0.00000  -0.00053  -0.00065   2.00140
   A45        2.02589  -0.00271   0.00000   0.00190   0.00181   2.02770
    D1        0.40237  -0.00127   0.00000  -0.02032  -0.02033   0.38203
    D2       -2.75321  -0.00191   0.00000  -0.02039  -0.02051  -2.77372
    D3        3.06909  -0.00205   0.00000  -0.00095  -0.00079   3.06830
    D4       -0.08648  -0.00269   0.00000  -0.00102  -0.00096  -0.08745
    D5       -0.68817   0.00111   0.00000   0.02337   0.02339  -0.66478
    D6       -2.85435   0.00394   0.00000   0.00798   0.00789  -2.84645
    D7        2.92850  -0.00227   0.00000  -0.00259  -0.00244   2.92606
    D8        0.76232   0.00055   0.00000  -0.01798  -0.01794   0.74438
    D9        1.84948   0.00347   0.00000   0.00782   0.00783   1.85730
   D10       -2.46292   0.00388   0.00000   0.01888   0.01888  -2.44404
   D11       -0.22718   0.00778   0.00000   0.00882   0.00882  -0.21836
   D12       -1.65156   0.00407   0.00000   0.02028   0.02028  -1.63127
   D13        0.31923   0.00448   0.00000   0.03134   0.03134   0.35057
   D14        2.55497   0.00839   0.00000   0.02127   0.02128   2.57625
   D15        0.37357   0.00005   0.00000  -0.01344  -0.01344   0.36013
   D16       -2.88074   0.00119   0.00000  -0.00969  -0.00969  -2.89043
   D17       -3.12615   0.00010   0.00000  -0.00076  -0.00076  -3.12691
   D18       -0.09728   0.00124   0.00000   0.00299   0.00299  -0.09429
   D19       -1.34069   0.01118   0.00000   0.01188   0.01186  -1.32883
   D20        2.73500   0.00531   0.00000   0.00608   0.00604   2.74104
   D21        0.76283   0.00406   0.00000   0.01157   0.01154   0.77436
   D22        2.68087   0.00810   0.00000   0.00293   0.00292   2.68379
   D23        0.47338   0.00223   0.00000  -0.00288  -0.00290   0.47048
   D24       -1.49879   0.00098   0.00000   0.00261   0.00260  -1.49619
   D25        0.55045   0.00893   0.00000   0.00405   0.00413   0.55458
   D26       -1.65704   0.00307   0.00000  -0.00176  -0.00169  -1.65874
   D27        2.65397   0.00182   0.00000   0.00374   0.00380   2.65778
   D28        1.44678  -0.00943   0.00000  -0.00269  -0.00273   1.44405
   D29       -1.57547  -0.00719   0.00000   0.00159   0.00156  -1.57391
   D30       -2.76899  -0.00347   0.00000  -0.00101  -0.00114  -2.77013
   D31        0.49194  -0.00123   0.00000   0.00327   0.00316   0.49510
   D32       -0.49643   0.00458   0.00000   0.01606   0.01595  -0.48048
   D33        2.76451   0.00682   0.00000   0.02034   0.02024   2.78475
   D34        1.38844   0.00132   0.00000   0.00477   0.00476   1.39320
   D35       -2.79297   0.00029   0.00000  -0.00111  -0.00110  -2.79408
   D36       -0.67289   0.00243   0.00000   0.00633   0.00634  -0.66655
   D37       -0.70616   0.00432   0.00000   0.01101   0.01101  -0.69515
   D38        1.39562   0.00329   0.00000   0.00514   0.00515   1.40077
   D39       -2.76748   0.00544   0.00000   0.01258   0.01259  -2.75489
   D40       -2.87414  -0.00730   0.00000  -0.00865  -0.00864  -2.88278
   D41       -0.77236  -0.00833   0.00000  -0.01453  -0.01451  -0.78687
   D42        1.34773  -0.00618   0.00000  -0.00709  -0.00707   1.34066
   D43       -1.25577   0.01700   0.00000   0.00035   0.00023  -1.25555
   D44        0.89338   0.00745   0.00000   0.01452   0.01454   0.90793
   D45        0.69518   0.00512   0.00000  -0.01699  -0.01710   0.67808
   D46        2.84433  -0.00443   0.00000  -0.00282  -0.00278   2.84155
   D47        3.03283   0.01361   0.00000   0.00382   0.00371   3.03654
   D48       -1.10120   0.00406   0.00000   0.01800   0.01802  -1.08318
   D49       -2.14564   0.00905   0.00000  -0.01174  -0.01172  -2.15736
   D50        1.02048   0.00809   0.00000  -0.00580  -0.00580   1.01468
   D51       -0.10529  -0.00234   0.00000  -0.00003  -0.00001  -0.10530
   D52        3.06083  -0.00330   0.00000   0.00591   0.00591   3.06674
   D53        1.87719   0.00453   0.00000  -0.00356  -0.00356   1.87363
   D54       -1.23988   0.00357   0.00000   0.00237   0.00236  -1.23752
   D55        0.06812   0.00070   0.00000   0.00675   0.00665   0.07477
   D56        3.09076  -0.00221   0.00000   0.00126   0.00110   3.09186
   D57       -3.05895   0.00138   0.00000   0.00684   0.00685  -3.05210
   D58       -0.03630  -0.00153   0.00000   0.00135   0.00129  -0.03501
   D59        2.69440  -0.00202   0.00000  -0.00005  -0.00004   2.69436
   D60       -1.43407  -0.00238   0.00000  -0.00307  -0.00308  -1.43714
   D61        0.60887  -0.00622   0.00000  -0.00520  -0.00522   0.60364
   D62        0.62619   0.00236   0.00000   0.00622   0.00625   0.63244
   D63        2.78091   0.00200   0.00000   0.00320   0.00321   2.78412
   D64       -1.45934  -0.00183   0.00000   0.00106   0.00106  -1.45828
   D65       -1.45055  -0.00118   0.00000  -0.00049  -0.00047  -1.45102
   D66        0.70417  -0.00154   0.00000  -0.00351  -0.00351   0.70066
   D67        2.74711  -0.00538   0.00000  -0.00564  -0.00566   2.74145
   D68       -0.29545   0.00334   0.00000   0.00311   0.00310  -0.29235
   D69        2.82150   0.00426   0.00000  -0.00289  -0.00289   2.81861
   D70       -2.38664  -0.00454   0.00000  -0.01093  -0.01091  -2.39756
   D71        0.73030  -0.00361   0.00000  -0.01693  -0.01690   0.71340
   D72        1.78189   0.00148   0.00000   0.00518   0.00516   1.78704
   D73       -1.38435   0.00240   0.00000  -0.00081  -0.00083  -1.38518
         Item               Value     Threshold  Converged?
 Maximum Force            0.050230     0.000450     NO 
 RMS     Force            0.009308     0.000300     NO 
 Maximum Displacement     0.074707     0.001800     NO 
 RMS     Displacement     0.019086     0.001200     NO 
 Predicted change in Energy=-8.987831D-03
 GradGradGradGradGradGradGradGradGradGradGradGradGradGradGradGradGradGrad

                          Input orientation:                          
 ---------------------------------------------------------------------
 Center     Atomic      Atomic             Coordinates (Angstroms)
 Number     Number       Type             X           Y           Z
 ---------------------------------------------------------------------
      1          6           0       -0.262620   -1.924546    0.509750
      2          6           0        0.316661   -0.096862   -0.801716
      3          6           0       -2.038388   -0.707744    0.040004
      4          6           0       -1.115441    0.320411   -0.929064
      5          6           0       -1.017099   -2.697215   -0.450525
      6          6           0       -2.139024   -2.002343   -0.704131
      7          1           0       -2.912731   -2.268218   -1.411456
      8          6           0       -3.257742    0.121187    0.390216
      9          1           0       -3.969905    0.115126   -0.445532
     10          1           0       -3.784879   -0.251777    1.275818
     11          6           0       -2.715754    1.538432    0.602369
     12          1           0       -3.480576    2.298808    0.418597
     13          1           0       -2.303391    1.665771    1.610101
     14          6           0       -1.580901    1.668727   -0.398213
     15          8           0       -1.114354    2.732201   -0.764278
     16          1           0       -0.704875   -3.640828   -0.874495
     17          1           0       -1.463065    0.231122   -1.966278
     18          1           0        0.781878   -0.617273   -1.633028
     19          6           0        1.183182    0.539206    0.182339
     20          8           0        0.783503    1.138472    1.164153
     21          7           0       -1.172467   -1.065504    1.165156
     22          1           0       -0.738649   -0.286241    1.666417
     23          1           0        0.667575   -2.257767    0.962975
     24         35           0        3.040060    0.261756   -0.001379
 ---------------------------------------------------------------------
                    Distance matrix (angstroms):
                    1          2          3          4          5
     1  C    0.000000
     2  C    2.322916   0.000000
     3  C    2.203320   2.574476   0.000000
     4  C    2.799522   1.497080   1.687611   0.000000
     5  C    1.445125   2.943482   2.289464   3.056916   0.000000
     6  C    2.236169   3.109786   1.496613   2.548236   1.343830
     7  H    3.291236   3.938977   2.303538   3.188095   2.168144
     8  C    3.629059   3.774202   1.515454   2.523816   3.697393
     9  H    4.337832   4.306559   2.154906   2.902398   4.077788
    10  H    3.973830   4.600301   2.187549   3.509246   4.076890
    11  C    4.244839   3.720374   2.412548   2.527819   4.683452
    12  H    5.310393   4.652677   3.355980   3.365132   5.637760
    13  H    4.273862   3.973463   2.858147   3.109434   4.993634
    14  C    3.933684   2.623139   2.459460   1.521976   4.402506
    15  O    4.902437   3.170615   3.651566   2.417413   5.439343
    16  H    2.248855   3.688974   3.349260   3.982833   1.080574
    17  H    3.495524   2.152023   2.288588   1.097555   3.327393
    18  H    2.718720   1.085512   3.280415   2.230389   2.993458
    19  C    2.875346   1.457328   3.457407   2.562568   3.964363
    20  O    3.302226   2.368255   3.554616   2.942239   4.534517
    21  N    1.412562   2.650350   1.464164   2.511926   2.301531
    22  H    2.061194   2.690952   2.124195   2.691936   3.220523
    23  H    1.087066   2.811900   3.252181   3.661415   2.242593
    24  Br   3.993603   2.861127   5.170327   4.258195   5.041605
                    6          7          8          9         10
     6  C    0.000000
     7  H    1.081490   0.000000
     8  C    2.637898   3.012360   0.000000
     9  H    2.811170   2.780460   1.098039   0.000000
    10  H    3.113442   3.471040   1.096023   1.769717   0.000000
    11  C    3.817938   4.311018   1.532104   2.167208   2.191212
    12  H    4.643295   4.952703   2.189177   2.398881   2.707935
    13  H    4.340248   4.997736   2.187383   3.067148   2.446128
    14  C    3.725835   4.277846   2.414186   2.850133   3.368714
    15  O    4.844530   5.353241   3.569924   3.886496   4.494198
    16  H    2.184133   2.654621   4.719045   4.995160   5.059243
    17  H    2.652980   2.942118   2.964121   2.934343   4.016864
    18  H    3.363471   4.052758   4.577922   4.952373   5.426808
    19  C    4.275787   5.215200   4.465396   5.208491   5.148105
    20  O    4.679356   5.648136   4.238574   5.121837   4.776545
    21  N    2.303505   3.333762   2.521337   3.437130   2.738447
    22  H    3.244310   4.257718   2.853158   3.881036   3.071363
    23  H    3.274367   4.296117   4.625537   5.396363   4.893487
    24  Br   5.695868   6.620031   6.311530   7.025552   6.962380
                   11         12         13         14         15
    11  C    0.000000
    12  H    1.094028   0.000000
    13  H    1.096258   1.790581   0.000000
    14  C    1.518563   2.161700   2.134321   0.000000
    15  O    2.420184   2.680677   2.861600   1.217639   0.000000
    16  H    5.748869   6.682506   6.073587   5.402373   6.387121
    17  H    3.142648   3.746106   3.943964   2.130592   2.796748
    18  H    4.677339   5.557087   5.024845   3.511878   3.945808
    19  C    4.046799   4.990257   3.932410   3.041877   3.314209
    20  O    3.566563   4.481585   3.163200   2.883152   3.140171
    21  N    3.078789   4.147688   2.989453   3.175997   4.260124
    22  H    2.893194   3.969597   2.502387   2.965465   3.893639
    23  H    5.097850   6.185942   4.963826   4.725022   5.573011
    24  Br   5.926534   6.844316   5.755050   4.846681   4.893288
                   16         17         18         19         20
    16  H    0.000000
    17  H    4.093756   0.000000
    18  H    3.453649   2.422932   0.000000
    19  C    4.706840   3.422586   2.189531   0.000000
    20  O    5.404911   3.958529   3.302554   1.217712   0.000000
    21  N    3.318300   3.401700   3.442414   3.014980   2.946749
    22  H    4.208399   3.740175   3.648002   2.564622   2.144534
    23  H    2.678203   4.394851   3.073030   2.949288   3.404167
    24  Br   5.478781   4.913237   2.921362   1.886458   2.686846
                   21         22         23         24
    21  N    0.000000
    22  H    1.023089   0.000000
    23  H    2.201845   2.521747   0.000000
    24  Br   4.568130   4.166592   3.592584   0.000000
 Stoichiometry    C10H10BrNO2
 Framework group  C1[X(C10H10BrNO2)]
 Deg. of freedom    66
 Full point group                 C1      NOp   1
 Largest Abelian subgroup         C1      NOp   1
 Largest concise Abelian subgroup C1      NOp   1
                         Standard orientation:                         
 ---------------------------------------------------------------------
 Center     Atomic      Atomic             Coordinates (Angstroms)
 Number     Number       Type             X           Y           Z
 ---------------------------------------------------------------------
      1          6           0        0.417134    1.953909    0.536352
      2          6           0       -0.282067    0.197175   -0.813069
      3          6           0        2.103563    0.619104    0.057948
      4          6           0        1.116865   -0.321354   -0.937037
      5          6           0        1.234641    2.686361   -0.403638
      6          6           0        2.305123    1.915955   -0.661358
      7          1           0        3.102537    2.137128   -1.357658
      8          6           0        3.255963   -0.302885    0.402202
      9          1           0        3.974206   -0.333995   -0.427767
     10          1           0        3.800872    0.014670    1.298584
     11          6           0        2.610112   -1.680267    0.583961
     12          1           0        3.319046   -2.491129    0.392093
     13          1           0        2.180454   -1.795082    1.585955
     14          6           0        1.477880   -1.709354   -0.427592
     15          8           0        0.938312   -2.729165   -0.816821
     16          1           0        0.995951    3.657695   -0.812512
     17          1           0        1.479451   -0.239222   -1.969709
     18          1           0       -0.700529    0.764965   -1.638200
     19          6           0       -1.201560   -0.391295    0.152352
     20          8           0       -0.855575   -1.035611    1.125992
     21          7           0        1.255907    1.019079    1.182793
     22          1           0        0.761867    0.264800    1.666215
     23          1           0       -0.490331    2.346110    0.988455
     24         35           0       -3.031505    0.024418   -0.040546
 ---------------------------------------------------------------------
 Rotational constants (GHZ):           0.9268774           0.3779832           0.3024494
 Standard basis: STO-3G (5D, 7F)
 There are    94 symmetry adapted cartesian basis functions of A   symmetry.
 There are    93 symmetry adapted basis functions of A   symmetry.
    93 basis functions,   282 primitive gaussians,    94 cartesian basis functions
    64 alpha electrons       64 beta electrons
       nuclear repulsion energy      1232.8321968145 Hartrees.
 NAtoms=   24 NActive=   24 NUniq=   24 SFac= 1.00D+00 NAtFMM=   60 NAOKFM=F Big=F
 Integral buffers will be    131072 words long.
 Raffenetti 1 integral format.
 Two-electron integral symmetry is turned on.
 External calculation of energy, first and second derivatives.
 Running external command "~/scripts/MiMe -H 'hf def2svp' -EF 'wb97xd def2svp' -c 12 -m 48GB R"
         input file       "/local/jobs/1157678/Gau-665450.EIn"
         output file      "/local/jobs/1157678/Gau-665450.EOu"
         message file     "/local/jobs/1157678/Gau-665450.EMs"
         fchk file        "/local/jobs/1157678/Gau-665450.EFC"
         mat. el file     "/local/jobs/1157678/Gau-665450.EUF"
 Read checkpoint file Gau-665450_H.chk type G16
 Write formatted file Gau-665450_H.fchk

deriv: 2

spelevel: wb97xd def2svp
gradlevel: wb97xd def2svp
hesslevel: hf def2svp

runspe: False
runforce: True
runfreq: True

Running Gaussian ...

Parsing files ...
SPE file: Gau-665450_F.out
FORCE file: Gau-665450_F.out
HESS file: Gau-665450_H.out

 ExternalExternalExternalExternalExternalExternalExternalExternalExternalExternal
 Output from external command:
 "~/scripts/MiMe -H 'hf def2svp' -EF 'wb97xd def2svp' -c 12 -m 48GB R /local/jobs/1157678/Gau-665450.EIn /local/jobs/1157678/Gau-665450.EOu /local/jobs/1157678/Gau-665450.EMs /local/jobs/1157678/Gau-665450.EFC /local/jobs/1157678/Gau-665450.EUF"
  
 --------------------------------------------------
 Force calculation at wb97xd def2svp
 Hessian calculation at hf def2svp
 ExternalExternalExternalExternalExternalExternalExternalExternalExternalExternal

 Recovered energy= -3165.50104496     dipole=      4.256100000000      4.573300000000     -0.732400000000
 Energy=    -3165.50104     NIter=   0.
 Dipole moment=       4.256100       4.573300      -0.732400
 ***** Axes restored to original set *****
 -------------------------------------------------------------------
 Center     Atomic                   Forces (Hartrees/Bohr)
 Number     Number              X              Y              Z
 -------------------------------------------------------------------
      1        6          -0.012722969    0.027120633    0.012162647
      2        6          -0.006072210   -0.005237082    0.003873576
      3        6          -0.005438122   -0.013264184    0.003526397
      4        6           0.013846356   -0.018095702    0.016800159
      5        6           0.005812982    0.005239005    0.004044561
      6        6          -0.000002417    0.012434404    0.005889945
      7        1          -0.005235081    0.001746636   -0.004049444
      8        6           0.000683796    0.005427226    0.005978241
      9        1          -0.000004662   -0.001349081   -0.002380718
     10        1           0.000028441   -0.003836931    0.000181271
     11        6          -0.005048026   -0.009616110   -0.010436082
     12        1           0.001728455    0.005562725    0.002512585
     13        1           0.001285641    0.002457431    0.002804147
     14        6           0.018335957    0.039553465   -0.006238492
     15        8          -0.011743008   -0.024560011    0.006117456
     16        1           0.003179889   -0.003638811   -0.003791644
     17        1          -0.000635693   -0.000826549   -0.000636437
     18        1           0.002311097    0.003950852   -0.004819814
     19        6          -0.039475386    0.002654911    0.012150312
     20        8           0.001448425   -0.006657502   -0.011228082
     21        7           0.015577088   -0.016569089   -0.031050259
     22        1           0.000691431    0.000316026   -0.001136094
     23        1           0.001057732    0.002102638    0.005522590
     24       35           0.020390281   -0.004914899   -0.005796821
 -------------------------------------------------------------------
 Cartesian Forces:  Max     0.039553465 RMS     0.011491576
 FormGI is forming the generalized inverse of G from B-inverse, IUseBI=4.

 GradGradGradGradGradGradGradGradGradGradGradGradGradGradGradGradGradGrad
 Berny optimization.
 Internal  Forces:  Max     0.034978517 RMS     0.006855819
 Search for a saddle point.
 Step number   2 out of a maximum of   50
 All quantities printed in internal units (Hartrees-Bohrs-Radians)
 Swapping is turned off.
 Second derivative matrix not updated -- analytic derivatives used.
 ITU=  0  0
     Eigenvalues ---   -0.07130   0.00615   0.01316   0.01565   0.01647
     Eigenvalues ---    0.01841   0.02085   0.02400   0.02519   0.02850
     Eigenvalues ---    0.03101   0.04377   0.04444   0.04689   0.04854
     Eigenvalues ---    0.05049   0.05712   0.05855   0.06323   0.06509
     Eigenvalues ---    0.07400   0.07460   0.08076   0.09379   0.09684
     Eigenvalues ---    0.10792   0.11445   0.11790   0.12561   0.12835
     Eigenvalues ---    0.13624   0.14151   0.15674   0.16867   0.19148
     Eigenvalues ---    0.22149   0.24114   0.24271   0.24676   0.25271
     Eigenvalues ---    0.26163   0.27906   0.28052   0.28786   0.30746
     Eigenvalues ---    0.32274   0.32406   0.34879   0.35203   0.35409
     Eigenvalues ---    0.35806   0.36082   0.36239   0.36548   0.36819
     Eigenvalues ---    0.38955   0.39219   0.40127   0.40256   0.40557
     Eigenvalues ---    0.41580   0.45167   0.53115   0.63532   0.82278
     Eigenvalues ---    0.86590
 Eigenvectors required to have negative eigenvalues:
                          R7        D43       D5        D47       D45
   1                    0.29364  -0.28550   0.26135  -0.24752  -0.23464
                          D1        D8        D12       D28       D13
   1                   -0.22120  -0.20696   0.18881   0.18594   0.18427
 RFO step:  Lambda0=1.538947368D-03 Lambda=-2.08039502D-02.
 Linear search not attempted -- option 19 set.
 Maximum step size (   0.100) exceeded in Quadratic search.
    -- Step size scaled by   0.402
 Iteration  1 RMS(Cart)=  0.01991480 RMS(Int)=  0.00016261
 Iteration  2 RMS(Cart)=  0.00028506 RMS(Int)=  0.00006763
 Iteration  3 RMS(Cart)=  0.00000005 RMS(Int)=  0.00006763
 Variable       Old X    -DE/DX   Delta X   Delta X   Delta X     New X
                                 (Linear)    (Quad)   (Total)
    R1        2.73089   0.00126   0.00000   0.00042   0.00035   2.73124
    R2        2.66936  -0.03498   0.00000  -0.04813  -0.04818   2.62117
    R3        2.05426   0.00256   0.00000   0.00231   0.00231   2.05657
    R4        2.82907  -0.01812   0.00000  -0.02206  -0.02206   2.80701
    R5        2.05132   0.00279   0.00000   0.00160   0.00160   2.05292
    R6        2.75395  -0.01768   0.00000  -0.02434  -0.02434   2.72961
    R7        3.18912  -0.02134   0.00000  -0.00225  -0.00228   3.18684
    R8        2.82819  -0.01500   0.00000  -0.01471  -0.01466   2.81353
    R9        2.86379  -0.00031   0.00000   0.00116   0.00113   2.86492
   R10        2.76687  -0.01331   0.00000  -0.01704  -0.01695   2.74992
   R11        2.87612   0.00729   0.00000   0.01192   0.01195   2.88807
   R12        2.07408   0.00087   0.00000   0.00162   0.00162   2.07570
   R13        2.53947   0.00887   0.00000   0.00641   0.00639   2.54586
   R14        2.04199   0.00558   0.00000   0.00493   0.00493   2.04692
   R15        2.04372   0.00596   0.00000   0.00536   0.00536   2.04908
   R16        2.07499   0.00182   0.00000   0.00192   0.00192   2.07691
   R17        2.07118   0.00144   0.00000   0.00134   0.00134   2.07253
   R18        2.89526   0.00420   0.00000   0.00058   0.00057   2.89583
   R19        2.06741   0.00224   0.00000   0.00258   0.00258   2.07000
   R20        2.07163   0.00335   0.00000   0.00424   0.00424   2.07586
   R21        2.86967   0.00377   0.00000   0.00458   0.00462   2.87429
   R22        2.30101  -0.02779   0.00000  -0.01478  -0.01478   2.28623
   R23        2.30114  -0.01281   0.00000  -0.00633  -0.00633   2.29482
   R24        3.56489   0.02136   0.00000   0.04573   0.04573   3.61062
   R25        1.93336  -0.00002   0.00000   0.00035   0.00035   1.93371
    A1        1.87255  -0.00027   0.00000   0.00628   0.00606   1.87860
    A2        2.16505   0.00513   0.00000   0.01360   0.01362   2.17867
    A3        2.14615  -0.00434   0.00000  -0.00860  -0.00874   2.13741
    A4        2.06968   0.00243   0.00000   0.01001   0.01000   2.07968
    A5        2.09969  -0.00709   0.00000  -0.01348  -0.01349   2.08620
    A6        2.06183   0.00450   0.00000   0.00668   0.00666   2.06850
    A7        1.85278  -0.00734   0.00000  -0.01512  -0.01512   1.83767
    A8        1.81264   0.00688   0.00000   0.00156   0.00159   1.81424
    A9        1.84076  -0.00925   0.00000  -0.01502  -0.01496   1.82579
   A10        2.13406   0.00234   0.00000   0.01466   0.01463   2.14869
   A11        1.78288   0.00433   0.00000   0.00300   0.00277   1.78565
   A12        2.01742   0.00000   0.00000   0.00430   0.00415   2.02157
   A13        1.88021  -0.01182   0.00000   0.00986   0.00987   1.89008
   A14        2.10575   0.00661   0.00000  -0.00043  -0.00052   2.10523
   A15        1.93981  -0.00042   0.00000  -0.00181  -0.00182   1.93799
   A16        1.74384   0.00446   0.00000   0.00569   0.00564   1.74948
   A17        1.89639   0.00355   0.00000  -0.00503  -0.00502   1.89137
   A18        1.88055  -0.00210   0.00000  -0.00773  -0.00771   1.87284
   A19        1.85960  -0.00194   0.00000  -0.00319  -0.00332   1.85628
   A20        2.18556   0.00044   0.00000   0.00103   0.00109   2.18666
   A21        2.23792   0.00148   0.00000   0.00210   0.00216   2.24008
   A22        1.87268  -0.00856   0.00000  -0.00304  -0.00311   1.86956
   A23        2.19685   0.00109   0.00000  -0.00690  -0.00687   2.18998
   A24        2.20630   0.00718   0.00000   0.00875   0.00873   2.21503
   A25        1.92084  -0.00157   0.00000  -0.00682  -0.00683   1.91402
   A26        1.96880   0.00148   0.00000  -0.00553  -0.00553   1.96326
   A27        1.82693  -0.00486   0.00000   0.00044   0.00041   1.82734
   A28        1.87673  -0.00061   0.00000   0.00066   0.00060   1.87733
   A29        1.91765   0.00219   0.00000   0.00157   0.00156   1.91920
   A30        1.95307   0.00338   0.00000   0.00957   0.00959   1.96266
   A31        1.95234   0.00386   0.00000   0.01272   0.01270   1.96504
   A32        1.94744  -0.00120   0.00000   0.00077   0.00080   1.94824
   A33        1.82606   0.00349   0.00000   0.00791   0.00790   1.83396
   A34        1.91415  -0.00176   0.00000  -0.01135  -0.01138   1.90276
   A35        1.93064  -0.00070   0.00000  -0.00332  -0.00345   1.92719
   A36        1.89085  -0.00373   0.00000  -0.00648  -0.00651   1.88434
   A37        1.96314  -0.00793   0.00000  -0.01018  -0.01015   1.95299
   A38        2.15519   0.00296   0.00000   0.00422   0.00419   2.15938
   A39        2.16442   0.00498   0.00000   0.00572   0.00569   2.17011
   A40        2.17010   0.00042   0.00000   0.01296   0.01296   2.18306
   A41        2.04353  -0.00756   0.00000  -0.01629  -0.01629   2.02724
   A42        2.06460   0.00716   0.00000   0.00371   0.00371   2.06831
   A43        1.74465   0.00757   0.00000   0.02051   0.02058   1.76522
   A44        2.00140  -0.00898   0.00000   0.00185   0.00166   2.00305
   A45        2.02770  -0.00186   0.00000   0.00428   0.00413   2.03182
    D1        0.38203  -0.00122   0.00000  -0.02339  -0.02339   0.35864
    D2       -2.77372  -0.00200   0.00000  -0.02773  -0.02784  -2.80156
    D3        3.06830  -0.00157   0.00000  -0.00208  -0.00189   3.06641
    D4       -0.08745  -0.00235   0.00000  -0.00642  -0.00634  -0.09379
    D5       -0.66478   0.00105   0.00000   0.02652   0.02655  -0.63823
    D6       -2.84645   0.00297   0.00000   0.00626   0.00614  -2.84031
    D7        2.92606  -0.00163   0.00000  -0.00158  -0.00139   2.92467
    D8        0.74438   0.00028   0.00000  -0.02185  -0.02180   0.72258
    D9        1.85730   0.00304   0.00000   0.01287   0.01287   1.87018
   D10       -2.44404   0.00362   0.00000   0.02782   0.02781  -2.41624
   D11       -0.21836   0.00626   0.00000   0.01396   0.01395  -0.20441
   D12       -1.63127   0.00345   0.00000   0.02462   0.02463  -1.60665
   D13        0.35057   0.00403   0.00000   0.03956   0.03956   0.39013
   D14        2.57625   0.00668   0.00000   0.02570   0.02571   2.60196
   D15        0.36013   0.00008   0.00000  -0.01911  -0.01911   0.34102
   D16       -2.89043   0.00074   0.00000  -0.01481  -0.01480  -2.90523
   D17       -3.12691   0.00011   0.00000  -0.00675  -0.00675  -3.13366
   D18       -0.09429   0.00076   0.00000  -0.00244  -0.00244  -0.09673
   D19       -1.32883   0.00875   0.00000   0.01376   0.01374  -1.31509
   D20        2.74104   0.00423   0.00000   0.00672   0.00667   2.74770
   D21        0.77436   0.00342   0.00000   0.01444   0.01439   0.78876
   D22        2.68379   0.00611   0.00000   0.00404   0.00405   2.68784
   D23        0.47048   0.00158   0.00000  -0.00300  -0.00302   0.46746
   D24       -1.49619   0.00077   0.00000   0.00472   0.00470  -1.49149
   D25        0.55458   0.00709   0.00000   0.00536   0.00547   0.56005
   D26       -1.65874   0.00256   0.00000  -0.00167  -0.00160  -1.66033
   D27        2.65778   0.00175   0.00000   0.00604   0.00613   2.66390
   D28        1.44405  -0.00757   0.00000  -0.00479  -0.00482   1.43922
   D29       -1.57391  -0.00558   0.00000   0.00445   0.00443  -1.56948
   D30       -2.77013  -0.00307   0.00000  -0.00606  -0.00622  -2.77635
   D31        0.49510  -0.00108   0.00000   0.00319   0.00304   0.49814
   D32       -0.48048   0.00334   0.00000   0.01556   0.01545  -0.46503
   D33        2.78475   0.00533   0.00000   0.02481   0.02471   2.80946
   D34        1.39320   0.00110   0.00000   0.00599   0.00598   1.39917
   D35       -2.79408   0.00020   0.00000  -0.00161  -0.00159  -2.79567
   D36       -0.66655   0.00198   0.00000   0.00725   0.00727  -0.65928
   D37       -0.69515   0.00351   0.00000   0.01557   0.01558  -0.67957
   D38        1.40077   0.00262   0.00000   0.00797   0.00801   1.40877
   D39       -2.75489   0.00440   0.00000   0.01683   0.01687  -2.73802
   D40       -2.88278  -0.00571   0.00000  -0.00912  -0.00913  -2.89191
   D41       -0.78687  -0.00660   0.00000  -0.01671  -0.01670  -0.80357
   D42        1.34066  -0.00482   0.00000  -0.00785  -0.00784   1.33282
   D43       -1.25555   0.01289   0.00000   0.00088   0.00073  -1.25481
   D44        0.90793   0.00613   0.00000   0.02009   0.02012   0.92804
   D45        0.67808   0.00341   0.00000  -0.01951  -0.01962   0.65846
   D46        2.84155  -0.00334   0.00000  -0.00030  -0.00024   2.84132
   D47        3.03654   0.01047   0.00000   0.00649   0.00635   3.04289
   D48       -1.08318   0.00371   0.00000   0.02570   0.02573  -1.05744
   D49       -2.15736   0.00649   0.00000  -0.01766  -0.01763  -2.17499
   D50        1.01468   0.00592   0.00000  -0.00935  -0.00934   1.00534
   D51       -0.10530  -0.00176   0.00000  -0.00105  -0.00102  -0.10632
   D52        3.06674  -0.00233   0.00000   0.00726   0.00726   3.07400
   D53        1.87363   0.00335   0.00000  -0.00672  -0.00671   1.86692
   D54       -1.23752   0.00279   0.00000   0.00159   0.00158  -1.23594
   D55        0.07477   0.00039   0.00000   0.00729   0.00722   0.08199
   D56        3.09186  -0.00218   0.00000  -0.00345  -0.00364   3.08822
   D57       -3.05210   0.00121   0.00000   0.01182   0.01187  -3.04023
   D58       -0.03501  -0.00136   0.00000   0.00108   0.00100  -0.03400
   D59        2.69436  -0.00150   0.00000   0.00179   0.00182   2.69618
   D60       -1.43714  -0.00185   0.00000  -0.00308  -0.00310  -1.44024
   D61        0.60364  -0.00484   0.00000  -0.00580  -0.00584   0.59780
   D62        0.63244   0.00194   0.00000   0.00877   0.00882   0.64126
   D63        2.78412   0.00159   0.00000   0.00390   0.00391   2.78802
   D64       -1.45828  -0.00140   0.00000   0.00118   0.00116  -1.45712
   D65       -1.45102  -0.00092   0.00000   0.00076   0.00079  -1.45023
   D66        0.70066  -0.00127   0.00000  -0.00411  -0.00412   0.69654
   D67        2.74145  -0.00426   0.00000  -0.00683  -0.00687   2.73458
   D68       -0.29235   0.00259   0.00000   0.00440   0.00439  -0.28796
   D69        2.81861   0.00312   0.00000  -0.00399  -0.00399   2.81462
   D70       -2.39756  -0.00370   0.00000  -0.01368  -0.01366  -2.41121
   D71        0.71340  -0.00318   0.00000  -0.02207  -0.02204   0.69136
   D72        1.78704   0.00123   0.00000   0.00632   0.00628   1.79333
   D73       -1.38518   0.00175   0.00000  -0.00207  -0.00210  -1.38728
         Item               Value     Threshold  Converged?
 Maximum Force            0.034979     0.000450     NO 
 RMS     Force            0.006856     0.000300     NO 
 Maximum Displacement     0.083383     0.001800     NO 
 RMS     Displacement     0.020072     0.001200     NO 
 Predicted change in Energy=-6.388090D-03
 GradGradGradGradGradGradGradGradGradGradGradGradGradGradGradGradGradGrad

                          Input orientation:                          
 ---------------------------------------------------------------------
 Center     Atomic      Atomic             Coordinates (Angstroms)
 Number     Number       Type             X           Y           Z
 ---------------------------------------------------------------------
      1          6           0       -0.265578   -1.906961    0.527511
      2          6           0        0.304719   -0.104184   -0.814351
      3          6           0       -2.043753   -0.712788    0.044268
      4          6           0       -1.117374    0.310438   -0.924643
      5          6           0       -0.996576   -2.680286   -0.450516
      6          6           0       -2.127896   -1.995313   -0.707222
      7          1           0       -2.896233   -2.253414   -1.427505
      8          6           0       -3.259484    0.120893    0.398358
      9          1           0       -3.972105    0.109629   -0.438279
     10          1           0       -3.783557   -0.256953    1.284589
     11          6           0       -2.713332    1.538208    0.601339
     12          1           0       -3.469857    2.310141    0.423349
     13          1           0       -2.296531    1.671009    1.608980
     14          6           0       -1.574765    1.670459   -0.398484
     15          8           0       -1.111373    2.724628   -0.769510
     16          1           0       -0.662949   -3.614246   -0.886064
     17          1           0       -1.474245    0.223737   -1.959841
     18          1           0        0.774660   -0.611409   -1.652235
     19          6           0        1.150680    0.511630    0.181416
     20          8           0        0.754048    1.100307    1.166720
     21          7           0       -1.168222   -1.060033    1.153526
     22          1           0       -0.743033   -0.278912    1.659639
     23          1           0        0.664976   -2.219312    0.997489
     24         35           0        3.028779    0.217632   -0.010734
 ---------------------------------------------------------------------
                    Distance matrix (angstroms):
                    1          2          3          4          5
     1  C    0.000000
     2  C    2.318585   0.000000
     3  C    2.195787   2.573508   0.000000
     4  C    2.784092   1.485404   1.686403   0.000000
     5  C    1.445312   2.908959   2.283077   3.030482   0.000000
     6  C    2.236202   3.083092   1.488855   2.526839   1.347208
     7  H    3.295825   3.904003   2.294856   3.160782   2.178399
     8  C    3.618335   3.771587   1.516050   2.524855   3.699722
     9  H    4.328710   4.298647   2.151224   2.902820   4.078915
    10  H    3.958771   4.598139   2.184743   3.508727   4.080490
    11  C    4.226836   3.716216   2.413638   2.526484   4.674328
    12  H    5.297377   4.648471   3.363862   3.368986   5.637829
    13  H    4.253964   3.973707   2.862640   3.108184   4.986499
    14  C    3.920379   2.618160   2.468976   1.528301   4.389304
    15  O    4.883569   3.163780   3.653408   2.419176   5.415536
    16  H    2.251871   3.641710   3.345235   3.951093   1.083185
    17  H    3.491085   2.141120   2.284266   1.098413   3.307504
    18  H    2.740774   1.086357   3.291178   2.226878   2.976854
    19  C    2.824031   1.444448   3.423801   2.531386   3.898510
    20  O    3.239117   2.361639   3.517798   2.915461   4.469118
    21  N    1.387064   2.637374   1.455193   2.489892   2.286401
    22  H    2.039662   2.692385   2.118855   2.676934   3.206811
    23  H    1.088289   2.808258   3.242755   3.642938   2.251659
    24  Br   3.956815   2.858298   5.157450   4.246696   4.979440
                    6          7          8          9         10
     6  C    0.000000
     7  H    1.084327   0.000000
     8  C    2.642182   3.017127   0.000000
     9  H    2.811445   2.778496   1.099053   0.000000
    10  H    3.119362   3.482621   1.096734   1.771499   0.000000
    11  C    3.813245   4.304190   1.532405   2.169367   2.198821
    12  H    4.649299   4.957896   2.199474   2.415969   2.725823
    13  H    4.339948   4.998097   2.189919   3.071926   2.456321
    14  C    3.720102   4.266373   2.423714   2.860946   3.380298
    15  O    4.828565   5.329125   3.571797   3.889951   4.499968
    16  H    2.190661   2.670688   4.726838   5.001826   5.071621
    17  H    2.630684   2.905462   2.959520   2.927025   4.011273
    18  H    3.351577   4.027672   4.584268   4.952309   5.433959
    19  C    4.221789   5.158643   4.432752   5.175767   5.114138
    20  O    4.626027   5.594819   4.202151   5.088614   4.737711
    21  N    2.293055   3.327446   2.517587   3.429827   2.738994
    22  H    3.235106   4.250339   2.843097   3.870288   3.063647
    23  H    3.279687   4.308592   4.608352   5.384043   4.870598
    24  Br   5.654513   6.574121   6.302299   7.014759   6.950612
                   11         12         13         14         15
    11  C    0.000000
    12  H    1.095395   0.000000
    13  H    1.098499   1.786311   0.000000
    14  C    1.521011   2.162401   2.133274   0.000000
    15  O    2.419317   2.675287   2.858659   1.209820   0.000000
    16  H    5.741447   6.685181   6.068587   5.384909   6.355784
    17  H    3.134137   3.743680   3.937923   2.130949   2.793388
    18  H    4.676060   5.555126   5.027640   3.506937   3.932615
    19  C    4.020049   4.964125   3.907091   3.017817   3.304316
    20  O    3.540359   4.456195   3.134857   2.863269   3.141211
    21  N    3.072968   4.145932   2.989834   3.166954   4.245581
    22  H    2.881666   3.958178   2.493614   2.954267   3.880424
    23  H    5.068418   6.159742   4.927377   4.700585   5.542585
    24  Br   5.923715   6.841000   5.752799   4.842899   4.899146
                   16         17         18         19         20
    16  H    0.000000
    17  H    4.067101   0.000000
    18  H    3.416250   2.418608   0.000000
    19  C    4.631589   3.399721   2.182862   0.000000
    20  O    5.333743   3.938154   3.298015   1.214364   0.000000
    21  N    3.307451   3.381534   3.442143   2.965204   2.891776
    22  H    4.196602   3.726656   3.658204   2.529080   2.094389
    23  H    2.693881   4.392102   3.101358   2.891354   3.325123
    24  Br   5.392434   4.906759   2.909104   1.910657   2.709227
                   21         22         23         24
    21  N    0.000000
    22  H    1.023273   0.000000
    23  H    2.174602   2.487184   0.000000
    24  Br   4.539025   4.154908   3.541578   0.000000
 Stoichiometry    C10H10BrNO2
 Framework group  C1[X(C10H10BrNO2)]
 Deg. of freedom    66
 Full point group                 C1      NOp   1
 Largest Abelian subgroup         C1      NOp   1
 Largest concise Abelian subgroup C1      NOp   1
                         Standard orientation:                         
 ---------------------------------------------------------------------
 Center     Atomic      Atomic             Coordinates (Angstroms)
 Number     Number       Type             X           Y           Z
 ---------------------------------------------------------------------
      1          6           0        0.382930    1.929060    0.552701
      2          6           0       -0.280469    0.184432   -0.822802
      3          6           0        2.093330    0.643774    0.058687
      4          6           0        1.116409   -0.308637   -0.932521
      5          6           0        1.162910    2.675751   -0.408034
      6          6           0        2.255042    1.931827   -0.670323
      7          1           0        3.041363    2.157758   -1.381955
      8          6           0        3.257409   -0.263634    0.405009
      9          1           0        3.974802   -0.278980   -0.427474
     10          1           0        3.796500    0.068844    1.300367
     11          6           0        2.630253   -1.650729    0.580816
     12          1           0        3.342760   -2.461422    0.393731
     13          1           0        2.200198   -1.776423    1.583788
     14          6           0        1.492363   -1.701130   -0.427221
     15          8           0        0.972122   -2.720822   -0.818683
     16          1           0        0.885710    3.634365   -0.829352
     17          1           0        1.484184   -0.225085   -1.964156
     18          1           0       -0.715483    0.731570   -1.654412
     19          6           0       -1.166378   -0.398772    0.157743
     20          8           0       -0.810120   -1.025510    1.134964
     21          7           0        1.231959    1.021714    1.168996
     22          1           0        0.759832    0.257720    1.659402
[...]
 045807,0.00066557,-0.10903570,0.09583254,0.04375640,0.00211253,0.02138
 014,0.01555593,-0.00052840,-0.00231637,0.00131192,0.00069821,0.0007141
 7,0.00019341,0.00003229,-0.00004950,0.00001159,-0.00006155,0.00002790,
 0.00004370,-0.00032614,0.00012177,0.00005952,0.00005297,0.00009621,0.0
 0003244,0.00001686,0.00002655,0.00003127,0.00010050,0.00002152,-0.0001
 3674,0.00003633,0.00022272,-0.00002611,0.09759461,0.00766373,-0.003290
 22,-0.00055702,-0.00023898,-0.00018122,-0.00022963,0.00537384,0.002689
 15,-0.00444529,0.00000943,0.00134311,0.00078464,0.09346603,-0.25915176
 ,-0.12434997,0.00084993,-0.00365754,-0.00630119,-0.00184713,-0.0015195
 6,0.00247150,-0.00061041,-0.00054151,-0.00044368,-0.00003129,0.0000286
 5,0.00006422,0.00001742,-0.00003187,-0.00001242,0.00023820,-0.00005575
 ,0.00001780,-0.00005961,-0.00007101,0.00000615,-0.00001858,0.00000681,
 0.00000219,0.00043964,-0.00002426,-0.00033746,-0.00008923,0.00025374,0
 .00007801,-0.10404585,0.26434761,0.01305931,-0.01331907,-0.00479870,-0
 .00062550,-0.00009429,0.00009534,-0.00658594,-0.00204783,0.00409907,0.
 00030992,-0.00091638,-0.00069162,0.04316466,-0.12536537,-0.12108448,-0
 .00365482,0.00926843,0.00974403,0.00274004,0.00157952,-0.00243451,0.00
 054506,0.00063497,0.00078781,0.00010183,-0.00006834,-0.00005982,-0.000
 04914,0.00003877,-0.00000697,-0.00019964,0.00006403,-0.00001326,0.0000
 5515,0.00007835,0.00001773,0.00001575,0.00003633,0.00002872,-0.0003982
 8,-0.00000416,0.00029191,0.00007642,-0.00023121,-0.00006436,-0.0467625
 4,0.13383726,0.11596072,-0.00208798,0.00046919,0.00215145,-0.01277455,
 -0.00432198,-0.03444975,0.00465689,0.00052979,0.01314773,-0.08721936,-
 0.00462436,-0.08660638,-0.00031614,0.00020448,-0.00031386,0.00112009,0
 .00005085,0.00141301,0.00012807,-0.00011841,-0.00011404,0.00017397,0.0
 0002566,-0.00047599,-0.00046105,0.00001846,0.00030235,-0.00006175,-0.0
 0012993,-0.00019600,-0.00202416,0.00039389,-0.00198016,-0.00027084,0.0
 0002069,0.00031825,0.00041971,-0.00019205,-0.00036393,0.00414217,0.000
 63316,0.00766951,0.00011359,-0.00008240,0.00007681,-0.00002097,-0.0000
 1768,0.00000498,0.09701312,-0.00102087,0.00109167,0.00452769,0.0013838
 6,0.00397552,0.00684642,0.00528992,-0.00125349,0.01702619,-0.00773611,
 -0.05666268,-0.03737722,-0.00087748,0.00078482,-0.00091060,0.00019400,
 -0.00101234,0.00366740,-0.00009718,-0.00011763,-0.00018562,0.00051670,
 0.00000613,-0.00111782,-0.00009981,0.00024712,0.00001886,-0.00007567,0
 .00012222,-0.00010440,0.00372956,-0.00188504,0.00312464,0.00081711,0.0
 0025989,-0.00071653,-0.00094338,-0.00010614,0.00060120,-0.01382445,-0.
 00026254,-0.03304397,0.00198307,-0.00133923,0.00428821,-0.00003441,-0.
 00017036,0.00004832,0.00890111,0.06315362,0.00142293,-0.00005126,-0.00
 177613,0.00451072,-0.00194157,0.00340200,-0.00351106,0.00162427,-0.011
 46319,-0.09767877,-0.02901505,-0.29235206,-0.00132480,-0.00075070,0.00
 005958,0.00084331,-0.00250669,0.00004316,0.00024369,0.00041212,0.00026
 021,-0.00058951,-0.00017270,0.00009054,0.00061940,-0.00003149,0.000173
 92,0.00028173,0.00000836,0.00020406,0.00179204,-0.00164605,0.00097604,
 0.00037206,-0.00006880,-0.00043208,-0.00036456,0.00015773,0.00020395,-
 0.00396014,0.00012866,-0.01181679,0.00069779,0.00003817,0.00214506,0.0
 0003663,0.00011575,-0.00002427,0.09686612,0.02974507,0.30966827,-0.001
 39673,-0.00091463,0.00146448,-0.12667480,0.06394878,0.11214722,-0.0028
 9555,0.00004094,0.00080854,-0.00759740,0.01164898,0.02099339,0.0011437
 1,-0.00029783,0.00059386,-0.00031659,0.00128608,0.00014003,-0.00007132
 ,-0.00004706,0.00000362,-0.00019344,-0.00009002,0.00044095,-0.00001645
 ,0.00000177,-0.00003516,-0.00021218,0.00010580,0.00005258,-0.00021806,
 0.00074451,0.00058010,-0.00014329,0.00005274,0.00017023,-0.00014517,0.
 00001886,0.00017239,-0.00338642,-0.00331914,-0.00004674,0.00065809,0.0
 0115484,-0.00036868,0.00002196,-0.00015039,0.00005715,0.00108748,-0.00
 032167,0.00036684,0.13244682,-0.00221481,-0.00064759,0.00359376,0.0553
 2917,-0.07619609,-0.10594150,-0.00194602,-0.00475105,0.00525038,0.0070
 9249,-0.00055859,-0.00737064,0.00292077,0.00048101,0.00237372,-0.00047
 918,0.00261118,-0.00032364,-0.00006243,-0.00002351,-0.00004567,-0.0000
 5290,0.00024515,-0.00039210,-0.00005243,0.00005440,0.00000678,0.000090
 34,-0.00000498,-0.00007804,-0.00000529,-0.00042532,-0.00041340,0.00007
 175,-0.00000149,-0.00007530,0.00010263,-0.00004218,-0.00012656,0.00290
 553,0.00173717,-0.00077952,-0.00079925,-0.00035370,0.00043264,-0.00010
 482,-0.00018587,-0.00008647,-0.00146214,-0.00047660,0.00108166,-0.0615
 5028,0.08629393,0.00023143,-0.00009069,-0.00122825,0.10634230,-0.11323
 901,-0.25591002,0.00014709,0.00316557,-0.00248158,-0.00825860,0.002878
 36,0.00899205,-0.00236729,-0.00057421,-0.00040064,0.00092708,-0.001751
 29,0.00012640,-0.00001570,0.00000443,0.00003818,-0.00006519,-0.0002426
 7,0.00033871,0.00001603,-0.00002065,-0.00000793,-0.00014162,0.00004228
 ,0.00006341,-0.00011803,0.00027978,0.00033517,-0.00004940,0.00001810,0
 .00006436,-0.00009414,0.00003370,0.00011765,-0.00228594,-0.00043214,0.
 00058647,0.00040948,0.00013886,-0.00013711,0.00012799,0.00022975,0.000
 00488,0.00094977,0.00074803,0.00068318,-0.11122109,0.11494729,0.264133
 59,-0.01951408,-0.01518219,0.02272833,-0.16591225,-0.03159537,-0.10542
 731,-0.00545266,0.00629087,-0.00459664,-0.03388978,-0.01615548,-0.0175
 8612,0.00340159,-0.00017312,-0.00216819,0.00415569,0.00406381,-0.00193
 444,-0.00043324,-0.00047199,0.00059505,-0.00123459,-0.00063105,0.00075
 516,0.00034513,-0.00011979,0.00019137,-0.00019342,0.00023580,0.0000026
 4,0.00010547,-0.00042143,-0.00057158,0.00028521,-0.00029098,0.00017196
 ,-0.00034675,0.00037395,0.00041120,-0.00668129,0.00551479,-0.00288195,
 0.00099775,-0.00428640,0.00156116,0.00033931,0.00033614,0.00057781,-0.
 00322536,0.00162214,-0.00026772,0.01258569,0.00790036,0.01801603,0.416
 23776,-0.02337590,-0.01489833,0.02566988,-0.02613762,-0.07374197,-0.07
 735098,0.00232546,0.00487047,-0.00210696,-0.00512588,-0.00191929,0.011
 04276,0.00149596,-0.00012986,-0.00404840,0.00176123,-0.00062565,-0.003
 37199,-0.00020528,-0.00055979,0.00037034,-0.00081475,0.00101358,0.0000
 9058,-0.00007732,-0.00040456,-0.00015508,0.00016351,-0.00040000,-0.000
 06825,0.00103022,-0.00016375,0.00124691,-0.00029649,-0.00053158,-0.000
 40547,0.00063302,-0.00017376,-0.00106563,0.00882417,0.00911824,0.00556
 033,-0.00449046,-0.00644385,-0.00190230,-0.00005463,0.00005135,0.00010
 792,0.00452935,-0.00010264,-0.00180604,-0.00924523,-0.01221022,-0.0027
 8579,-0.02769998,0.35714211,-0.04235993,-0.01124421,0.04884083,-0.0537
 5265,-0.03693851,-0.21304389,0.00261117,0.01504280,-0.00730337,-0.0404
 1956,-0.00953741,0.00811833,0.00366634,-0.00287249,-0.00596774,0.00844
 200,0.00250052,-0.00828461,-0.00022623,-0.00082500,0.00014242,-0.00200
 053,-0.00005182,0.00057423,-0.00011964,-0.00055188,-0.00014279,-0.0002
 7049,-0.00025754,0.00014719,0.00136688,-0.00092040,0.00048551,-0.00043
 894,-0.00080590,-0.00064170,0.00166365,-0.00018970,-0.00200750,0.00921
 595,0.00984474,0.00562045,-0.00436856,-0.00658119,-0.00285305,-0.00009
 797,0.00025978,0.00012254,-0.00088552,-0.00053117,0.00029758,-0.020305
 87,-0.01210342,-0.01420852,-0.03083859,0.28766490,0.76243591,-0.010871
 38,0.00192690,0.01205827,0.03622782,0.00665303,-0.00762423,0.00291010,
 0.00244926,0.00065980,-0.00563200,-0.00177777,0.00176285,-0.00060951,-
 0.00034482,-0.00321102,0.00125460,-0.00165477,-0.00286464,0.00015492,-
 0.00009924,-0.00023012,-0.00025382,0.00046885,-0.00010172,-0.00019710,
 -0.00022820,-0.00014799,-0.00000572,-0.00023717,0.00006508,0.00020940,
 0.00001889,0.00063830,-0.00046615,-0.00031276,-0.00058206,0.00041666,-
 0.00029673,-0.00160642,0.00456641,0.00158926,0.00329517,-0.00243287,-0
 .00010581,-0.00274924,-0.00017087,-0.00007035,-0.00018324,0.00034251,-
 0.00091239,-0.00030384,-0.00266061,-0.00367655,-0.00378252,-0.16259846
 ,0.07842854,0.14201510,0.17621610,0.00501870,0.00410111,-0.01105502,-0
 .00785236,-0.01736640,-0.04204392,-0.00069673,-0.00434044,0.00220257,0
 .00618817,0.00176809,-0.00043270,-0.00243615,0.00019254,0.00164798,-0.
 00174448,-0.00143728,0.00045244,0.00039635,0.00046748,-0.00055084,0.00
 055224,-0.00061159,-0.00006694,0.00001284,0.00036022,0.00013857,-0.000
 06208,0.00030019,-0.00000403,-0.00064244,0.00031147,-0.00096806,0.0001
 3771,0.00036541,0.00039145,-0.00041160,-0.00006469,0.00108658,-0.00476
 067,-0.00811064,-0.00196381,0.00482150,0.00457132,0.00261338,-0.000034
 98,-0.00001493,-0.00017859,-0.00060565,0.00020281,0.00075422,-0.002096
 24,0.00553846,-0.00439378,0.07927008,-0.22623568,-0.24314187,-0.095663
 90,0.24570433,0.02474123,0.00615407,-0.03000398,-0.02185054,-0.0693472
 2,-0.05887761,-0.00152927,-0.00523998,0.00067660,0.02063003,0.00772328
 ,-0.00390393,-0.00311852,0.00110606,0.00437076,-0.00368252,-0.00174604
 ,0.00513404,0.00023918,0.00069335,-0.00009408,0.00105562,-0.00017664,0
 .00012714,0.00020825,0.00032718,0.00015662,-0.00009590,0.00013261,-0.0
 0005467,-0.00065733,0.00047827,-0.00043099,0.00029733,0.00046755,0.000
 57976,-0.00137270,0.00023732,0.00156569,-0.00309792,-0.00684745,-0.004
 72839,0.00121848,0.00444703,0.00087151,0.00016612,0.00005416,-0.000034
 78,0.00029119,-0.00026967,0.00069595,-0.00349580,-0.00217223,-0.001830
 74,0.13420052,-0.22964664,-0.51089859,-0.16253529,0.30707167,0.5851006
 3,-0.21857989,0.12788359,0.01350317,-0.04096397,-0.03074985,0.02373267
 ,-0.14361158,0.03403255,-0.09224270,0.00171874,0.00452075,-0.01083954,
 0.01675155,-0.00330199,0.00949871,-0.01663469,-0.00197758,-0.03038896,
 0.00172587,-0.00069111,-0.00267320,-0.01923242,0.00681533,-0.03127303,
 -0.00477489,0.00564445,0.00112209,0.00406681,-0.00206222,-0.00084513,0
 .00052046,-0.00178209,-0.00011277,0.00037494,0.00027214,-0.00043558,-0
 .00000934,0.00002476,-0.00061206,-0.00378788,-0.00075818,0.00411729,0.
 00290084,0.00122712,-0.00155253,-0.00167725,-0.00092237,-0.00325968,0.
 00119594,0.00135076,-0.00015329,0.00008410,-0.00473682,0.00263371,0.01
 301697,0.01100620,0.03888165,0.00408289,-0.00699966,-0.01327872,0.5507
 8540,0.13720570,-0.21808827,-0.09775772,0.01470159,0.00278577,0.010782
 43,0.02753136,-0.11115985,-0.00464414,-0.00507210,-0.01112382,0.048341
 33,-0.00299027,-0.02802089,-0.06103352,-0.00670874,-0.01852881,-0.0404
 6584,0.00148463,-0.00558264,-0.00216813,0.01183889,-0.00543193,0.02307
 258,0.00345859,-0.00321951,-0.00064247,-0.00229120,0.00140400,0.000004
 29,0.00007324,0.00089745,-0.00035315,0.00001795,0.00016733,0.00011662,
 0.00010538,0.00003659,0.00013599,0.00205720,0.00271500,-0.00328357,-0.
 00028715,0.00061847,0.00032170,-0.00235295,0.00019883,-0.00390324,-0.0
 0389189,-0.00610863,0.00367271,-0.00011762,-0.00055776,0.00022296,-0.0
 0463959,-0.01070595,-0.01771277,-0.01432019,-0.00039440,0.01430212,-0.
 06788227,0.68919856,0.00914316,-0.09728443,-0.12747011,0.00984995,0.03
 213540,-0.02359230,-0.07835041,-0.02958741,-0.16517590,0.02363837,0.01
 880775,-0.04588234,0.01213323,-0.02624442,-0.03204002,-0.01540038,-0.0
 0702423,-0.04348881,0.00241325,-0.00241069,-0.00183295,0.00629354,0.00
 438087,0.01164137,0.00380857,-0.00284458,0.00072079,-0.00137367,0.0003
 9303,0.00126159,-0.00127938,0.00235981,0.00118783,-0.00025170,-0.00024
 678,0.00041423,-0.00013229,0.00076713,0.00017224,0.00116387,-0.0033429
 4,0.00043932,-0.00219243,-0.00103814,0.00124573,-0.00429762,-0.0014293
 7,-0.00168821,0.00238354,0.00367352,-0.00128456,-0.00079592,0.00102394
 ,-0.00049436,-0.00780325,-0.01051415,-0.02740473,-0.00555953,0.0016541
 7,0.01666262,0.16375805,0.27347655,0.56552101,0.02198499,0.02177754,0.
 01597649,-0.00562800,-0.00491369,-0.00300910,-0.00397899,-0.02212641,-
 0.00351188,0.00361635,0.00086261,-0.00104393,-0.00397811,0.00406984,0.
 00393752,-0.00346353,0.00189646,-0.00367642,0.00062171,-0.00038817,-0.
 00071728,0.00002589,-0.00018709,0.00013561,0.00021431,-0.00008670,0.00
 034328,-0.00066614,0.00002420,0.00011707,-0.00037964,0.00038628,-0.000
 26399,0.00012155,0.00000620,0.00045765,-0.00009810,0.00121964,0.000478
 45,0.00155094,-0.00015254,-0.00128518,-0.00086670,-0.00013627,0.000455
 68,0.00100653,0.00051464,0.00093196,-0.00019583,-0.00007555,0.00006065
 ,-0.00020693,0.00030752,-0.00039898,-0.00462468,0.00690433,0.01959230,
 0.00318409,-0.00288606,-0.01208745,-0.12831262,-0.09239270,-0.10732781
 ,0.11922339,-0.00967339,-0.01403827,-0.01343755,-0.00492695,-0.0052953
 1,-0.00227938,0.00110443,0.01639307,0.00805867,0.00271814,0.00151488,-
 0.00046954,0.00263588,-0.00104682,-0.00123379,0.00298317,-0.00114843,0
 .00446934,-0.00009425,0.00117900,0.00053389,-0.00017172,0.00076761,-0.
 00001082,0.00006851,-0.00036858,-0.00002385,-0.00021497,-0.00002851,-0
 .00007902,0.00050081,0.00027720,0.00034929,-0.00030625,-0.00018279,-0.
 00036965,0.00115033,-0.00118635,-0.00037574,-0.00014948,-0.00017009,0.
 00208046,0.00003732,-0.00034593,-0.00039424,-0.00010405,0.00039815,-0.
 00075577,-0.00014817,-0.00041097,0.00008594,-0.00008364,0.00029358,-0.
 00032284,-0.00354953,0.00830920,0.01531431,0.00394867,-0.00691639,-0.0
 1011390,-0.08358643,-0.27929033,-0.17045846,0.08652391,0.28146863,0.00
 405152,-0.01394126,-0.01873214,-0.00200455,-0.00400837,0.00110365,-0.0
 0206675,-0.01588720,-0.01381324,-0.00212354,-0.00075612,0.00015049,0.0
 0292636,-0.00413190,0.00629066,-0.00429409,0.00358234,-0.00035827,-0.0
 0011028,-0.00114035,0.00014125,-0.00009966,0.00025528,0.00040592,0.000
 08751,0.00003690,-0.00019940,0.00043380,0.00008497,-0.00006748,-0.0001
 4506,-0.00002791,-0.00019157,0.00011656,0.00000054,-0.00005228,0.00025
 460,-0.00039618,0.00041293,-0.00112378,0.00208929,-0.00022143,0.000415
 75,-0.00054878,-0.00015687,-0.00042530,-0.00020984,-0.00001753,0.00002
 168,-0.00000712,0.00031770,0.00005333,-0.00020758,0.00036421,0.0063451
 4,0.00211247,0.00170633,-0.00152520,-0.00160318,-0.00294457,-0.0918543
 5,-0.13737171,-0.14678117,0.09141605,0.16938090,0.17347034,-0.28091846
 ,0.06721068,-0.12605309,-0.00110652,-0.00371650,0.00112624,0.00244784,
 0.00161886,0.00426102,-0.00001562,-0.00011089,-0.00075107,-0.00154566,
 0.00464581,-0.00102675,0.00057438,-0.00035188,-0.00201901,-0.00021456,
 -0.00005794,0.00016244,0.00017237,0.00053327,-0.00109594,-0.00016271,0
 .00018339,0.00007167,0.00019127,-0.00010389,-0.00000610,-0.00016548,-0
 .00015595,-0.00004479,0.00005292,0.00005392,-0.00002113,0.00002368,0.0
 0000063,-0.00002418,0.00013087,0.00023020,0.00037987,0.00010395,-0.000
 05084,-0.00011252,-0.00031626,-0.00071273,0.00029283,0.00020525,-0.000
 00834,-0.00000582,0.00009546,0.00005770,0.00010172,0.00397199,-0.00048
 423,0.00400897,-0.00055216,0.00028146,-0.00130558,-0.01534158,0.004632
 76,-0.01214865,-0.00031450,-0.00036053,0.00110668,0.29330468,0.0709835
 0,-0.07853893,0.01585992,-0.00200684,-0.00566996,0.00163909,0.00763316
 ,-0.00159798,-0.00298111,-0.00043520,0.00040141,-0.00096531,-0.0154708
 2,0.01381301,-0.00554100,-0.00169439,-0.00281841,-0.00479753,-0.001069
 25,0.00052649,0.00016926,0.00110370,0.00109377,0.00102147,0.00038318,-
 0.00033237,-0.00010243,0.00011394,-0.00004195,-0.00001861,-0.00025696,
 0.00000107,-0.00001562,0.00003076,0.00003419,-0.00003419,0.00002777,-0
 .00001580,-0.00003048,0.00048395,0.00027795,0.00011505,-0.00001529,0.0
 0005865,-0.00005022,0.00031148,-0.00049136,0.00119098,0.00016460,-0.00
 000463,0.00004725,-0.00001359,-0.00001257,0.00018220,0.00389647,-0.000
 63120,0.00761055,-0.00028584,0.00036958,-0.00307083,0.01115832,0.00051
 806,0.01405818,-0.00069597,0.00049442,0.00217031,-0.07382046,0.0719554
 9,-0.13836155,0.02394571,-0.13521565,0.00100434,0.00341755,-0.00118097
 ,-0.00238363,-0.00341226,-0.00379289,0.00045145,-0.00020154,0.00088000
 ,-0.01133089,0.00941846,0.00150635,-0.00352093,-0.00231547,-0.00190887
 ,-0.00064222,0.00069352,0.00021589,0.00015380,-0.00060084,0.00110743,0
 .00025501,-0.00021812,-0.00000921,-0.00019651,0.00010586,0.00000438,0.
 00011946,0.00021457,0.00004289,-0.00004133,-0.00004388,0.00002802,-0.0
 0000952,0.00001299,0.00001953,-0.00012830,-0.00013150,-0.00024021,-0.0
 0007306,-0.00002815,0.00008350,0.00089250,0.00036247,-0.00022173,-0.00
 023851,-0.00010178,0.00008577,-0.00004823,0.00011825,-0.00025193,-0.00
 319763,0.00037117,-0.00347383,0.00034740,0.00012059,0.00131719,0.02299
 863,-0.00584028,0.01717326,-0.00001274,0.00077965,-0.00072378,0.133259
 91,-0.02606232,0.12448734,0.00221396,0.00331919,-0.00683025,-0.0446829
 2,0.00604363,0.00513716,0.00006691,-0.00255676,0.00128320,0.00333460,-
 0.00250232,-0.00601400,0.00004626,-0.00005965,0.00136873,-0.00173190,0
 .00023518,0.00070641,0.00016775,0.00020108,-0.00020671,0.00029982,0.00
 001008,0.00006269,-0.00005460,0.00000489,-0.00009252,-0.00004815,0.000
 01929,0.00010424,-0.00026813,0.00036769,0.00014783,-0.00019882,0.00006
 881,-0.00009475,0.00025709,-0.00013717,-0.00033154,0.00174118,-0.00325
 793,0.00131288,-0.00003782,0.00233539,-0.00100455,-0.00007261,-0.00009
 439,-0.00021409,-0.00194079,0.00023908,0.00004561,-0.00198837,0.000364
 66,-0.00110412,-0.05133601,-0.01909421,-0.03537951,-0.04311486,0.03021
 395,0.04505957,-0.00429839,-0.00016062,0.00232750,0.00116400,0.0016981
 8,-0.00145642,-0.00062115,-0.00052622,0.00070257,0.14110294,-0.0011227
 0,-0.00020543,0.00192056,-0.00061583,0.00838395,-0.00256764,0.00038546
 ,0.00171875,-0.00107803,-0.00262907,0.00237607,-0.00070793,-0.00040504
 ,0.00004298,-0.00032731,0.00072341,-0.00037079,-0.00032385,-0.00000772
 ,0.00002032,-0.00000269,-0.00001802,-0.00008315,-0.00000841,0.00002796
 ,0.00001007,0.00001722,-0.00001336,-0.00000973,0.00001207,0.00006397,-
 0.00005182,0.00007773,0.00005610,0.00000755,0.00002888,-0.00014454,0.0
 0003245,0.00012188,-0.00039402,-0.00016294,-0.00084482,0.00010666,0.00
 010965,0.00016026,0.00005748,0.00006982,0.00008585,-0.00034658,0.00006
 914,0.00011846,-0.00075596,-0.00080736,0.00096177,-0.00428747,-0.03062
 687,0.00602770,0.02450308,0.00123943,-0.01456409,0.00151459,-0.0003273
 1,-0.00030474,-0.00045204,-0.00066697,0.00052451,0.00048548,0.00061106
 ,-0.00060463,-0.01673184,0.01862114,0.00079830,-0.00028883,-0.00059700
 ,-0.01453153,0.00063830,0.00403313,-0.00062997,-0.00031837,-0.00005551
 ,-0.00075218,-0.00172388,0.00025899,0.00055624,0.00006462,0.00018620,-
 0.00027250,0.00040381,0.00028048,-0.00001818,-0.00002736,0.00004592,-0
 .00003607,-0.00009076,0.00013076,0.00002983,0.00002402,0.00001594,-0.0
 0004010,0.00004869,0.00001287,-0.00008198,0.00001668,-0.00008042,0.000
 02029,0.00002520,0.00006748,-0.00008533,0.00003057,0.00015593,-0.00036
 692,-0.00047522,-0.00046663,0.00018298,0.00016079,0.00030552,0.0000235
 3,0.00003220,-0.00001251,0.00002774,0.00005034,-0.00015791,-0.00172725
 ,0.00128765,0.00110283,-0.00828295,0.00099042,-0.03226100,0.03216509,-
 0.01173086,-0.00345618,-0.00072445,0.00072727,0.00069545,-0.00056793,-
 0.00072790,-0.00010376,-0.00015674,-0.00039463,0.00006753,-0.00552993,
 0.01127725,0.02983187\\0.00000060,-0.00000076,0.00000012,-0.00000121,-
 0.00000061,-0.00000022,0.00000052,-0.00000071,0.00000008,-0.00000006,-
 0.00000094,-0.00000162,-0.00000015,0.00000077,0.00000185,-0.00000191,-
 0.00000051,0.00000116,-0.00000160,-0.00000138,0.00000281,-0.00000063,0
 .00000215,0.00000192,0.00000017,-0.00000048,0.00000135,0.00000070,0.00
 000112,0.00000160,0.00000372,-0.00000205,-0.00000021,0.00000058,0.0000
 0033,-0.00000268,-0.00000211,0.00000336,-0.00000026,-0.00001513,-0.000
 00311,-0.00001844,0.00001847,0.00000271,0.00001919,-0.00000119,-0.0000
 0101,0.00000240,-0.00000241,-0.00000072,0.00000087,-0.00000242,-0.0000
 0163,-0.00000181,-0.00000261,0.,-0.00000476,0.00000606,0.00000008,0.00
 000097,-0.00000136,0.00000070,0.00000244,0.00000220,0.00000189,-0.0000
 0232,0.00000062,0.00000091,-0.00000009,-0.00000087,-0.00000010,-0.0000
 0433\\\@
 The archive entry for this job was punched.


 A DANDELION FROM A LOVER MEANS MORE THAN AN ORCHID FROM A FRIEND.
 Job cpu time:       0 days  3 hours 38 minutes 56.7 seconds.
 Elapsed time:       0 days  0 hours 36 minutes 42.1 seconds.
 File lengths (MBytes):  RWF=      6 Int=      0 D2E=      0 Chk=      2 Scr=      1
 Normal termination of Gaussian 16 at Wed Jan 17 00:52:02 2024.
