Unloading slurm/anatra/current
  ERROR: No such file or directory on
    '/cm/local/modulefiles/slurm/anatra/current'
environment: line 0: unalias: gv: not found
environment: line 0: unalias: sl: not found
 Entering Gaussian System, Link 0=g16
 Initial command:
 /apps/gaussian/g16/C.01/g16/l1.exe "/local/jobs/1158198/Gau-3860709.inp" -scrdir="/local/jobs/1158198/"
 Entering Link 1 = /apps/gaussian/g16/C.01/g16/l1.exe PID=   3860710.
  
 Copyright (c) 1988-2019, Gaussian, Inc.  All Rights Reserved.
  
 This is part of the Gaussian(R) 16 program.  It is based on
 the Gaussian(R) 09 system (copyright 2009, Gaussian, Inc.),
 the Gaussian(R) 03 system (copyright 2003, Gaussian, Inc.),
 the Gaussian(R) 98 system (copyright 1998, Gaussian, Inc.),
 the Gaussian(R) 94 system (copyright 1995, Gaussian, Inc.),
 the Gaussian 92(TM) system (copyright 1992, Gaussian, Inc.),
 the Gaussian 90(TM) system (copyright 1990, Gaussian, Inc.),
 the Gaussian 88(TM) system (copyright 1988, Gaussian, Inc.),
 the Gaussian 86(TM) system (copyright 1986, Carnegie Mellon
 University), and the Gaussian 82(TM) system (copyright 1983,
 Carnegie Mellon University). Gaussian is a federally registered
 trademark of Gaussian, Inc.
  
 This software contains proprietary and confidential information,
 including trade secrets, belonging to Gaussian, Inc.
  
 This software is provided under written license and may be
 used, copied, transmitted, or stored only in accord with that
 written license.
  
 The following legend is applicable only to US Government
 contracts under FAR:
  
                    RESTRICTED RIGHTS LEGEND
  
 Use, reproduction and disclosure by the US Government is
 subject to restrictions as set forth in subparagraphs (a)
 and (c) of the Commercial Computer Software - Restricted
 Rights clause in FAR 52.227-19.
  
 Gaussian, Inc.
 340 Quinnipiac St., Bldg. 40, Wallingford CT 06492
  
  
 ---------------------------------------------------------------
 Warning -- This program may not be used in any manner that
 competes with the business of Gaussian, Inc. or will provide
 assistance to any competitor of Gaussian, Inc.  The licensee
 of this program is prohibited from giving any competitor of
 Gaussian, Inc. access to this program.  By using this program,
 the user acknowledges that Gaussian, Inc. is engaged in the
 business of creating and licensing software in the field of
 computational chemistry and represents and warrants to the
 licensee that it is not a competitor of Gaussian, Inc. and that
 it will not use this program in any manner prohibited above.
 ---------------------------------------------------------------
  

 Cite this work as:
 Gaussian 16, Revision C.01,
 M. J. Frisch, G. W. Trucks, H. B. Schlegel, G. E. Scuseria, 
 M. A. Robb, J. R. Cheeseman, G. Scalmani, V. Barone, 
 G. A. Petersson, H. Nakatsuji, X. Li, M. Caricato, A. V. Marenich, 
 J. Bloino, B. G. Janesko, R. Gomperts, B. Mennucci, H. P. Hratchian, 
 J. V. Ortiz, A. F. Izmaylov, J. L. Sonnenberg, D. Williams-Young, 
 F. Ding, F. Lipparini, F. Egidi, J. Goings, B. Peng, A. Petrone, 
 T. Henderson, D. Ranasinghe, V. G. Zakrzewski, J. Gao, N. Rega, 
 G. Zheng, W. Liang, M. Hada, M. Ehara, K. Toyota, R. Fukuda, 
 J. Hasegawa, M. Ishida, T. Nakajima, Y. Honda, O. Kitao, H. Nakai, 
 T. Vreven, K. Throssell, J. A. Montgomery, Jr., J. E. Peralta, 
 F. Ogliaro, M. J. Bearpark, J. J. Heyd, E. N. Brothers, K. N. Kudin, 
 V. N. Staroverov, T. A. Keith, R. Kobayashi, J. Normand, 
 K. Raghavachari, A. P. Rendell, J. C. Burant, S. S. Iyengar, 
 J. Tomasi, M. Cossi, J. M. Millam, M. Klene, C. Adamo, R. Cammi, 
 J. W. Ochterski, R. L. Martin, K. Morokuma, O. Farkas, 
 J. B. Foresman, and D. J. Fox, Gaussian, Inc., Wallingford CT, 2019.
 
 ******************************************
 Gaussian 16:  ES64L-G16RevC.01  3-Jul-2019
                18-Jan-2024 
 ******************************************
 %nprocshared=12
 Will use up to   12 processors via shared memory.
 %mem=48GB
 ----------------------------------------------------------------------
 # external="~/scripts/MiMe -H 'hf def2svp' -EF 'wb97xd def2svp' -c 12 
 -m 48GB" opt=(calcall,ts,noeigen,maxcycles=50,maxstep=10,nomicro)
 ----------------------------------------------------------------------
 1/5=1,6=50,8=10,10=4,11=1,18=20,26=1,38=1/1,3;
 2/9=110,12=2,17=6,18=5,40=1/2;
 3/11=9,25=1,30=1,41=9900000,43=2,71=2,140=1/1;
 4/20=17,22=2,24=3,113=1,114=1/2;
 6/7=2,8=2,9=2,10=2,18=1/1;
 7/25=1,44=-1/16;
 1/5=1,6=50,8=10,10=4,11=1,18=20,26=1/3(3);
 2/9=110/2;
 7/8=1,9=1,25=1,44=-1/16;
 99//99;
 2/9=110/2;
 3/11=9,25=1,30=1,41=9900000,43=2,71=2,140=1/1;
 4/16=2,20=17,22=2,24=3,113=1,114=1/2;
 7/25=1,44=-1/16;
 1/5=1,6=50,8=10,10=4,11=1,18=20,26=1/3(-4);
 2/9=110/2;
 6/7=2,8=2,9=2,10=2,18=1/1;
 7/8=1,9=1,25=1,44=-1/16;
 99//99;
 --------------
 TS-325_hfm.out
 --------------
 Symbolic Z-matrix:
 Charge =  0 Multiplicity = 1
 C                     0.10822   0.09638  -0.09553 
 C                    -0.3281    1.50034   0.01482 
 O                    -1.33885   1.82036   0.65171 
 C                    -0.84893  -0.8883    0.06838 
 C                    -0.57469  -0.85179   2.89322 
 H                    -0.84192  -0.38484   3.85457 
 H                    -0.37038  -1.9188    3.06028 
 H                     0.34685  -0.37654   2.52227 
 N                    -1.5988   -0.68664   1.88366 
 H                    -2.4454   -1.22973   2.04197 
 H                    -1.82647   0.30684   1.71179 
 H                    -0.51302  -1.92594   0.12479 
 Br                   -2.56385  -0.84282  -0.84561 
 C                     1.53632  -0.28872  -0.17156 
 C                     2.53809   0.42651   0.51492 
 C                     3.87392   0.03956   0.45615 
 C                     4.25372  -1.08523  -0.27684 
 C                     3.27879  -1.8072   -0.96286 
 C                     1.94502  -1.40614  -0.92305 
 H                     2.25856   1.2973    1.11303 
 H                     4.62535   0.61517   1.00221 
 H                     5.30111  -1.39143  -0.31764 
 H                     3.56061  -2.68174  -1.55426 
 H                     1.20113  -1.95549  -1.50567 
 N                     0.44622   2.43997  -0.59421 
 C                     0.17375   3.85187  -0.52371 
 H                     1.20989   2.1138   -1.17121 
 H                    -0.64692   3.99918   0.18897 
 H                     1.05663   4.4132   -0.17856 
 H                    -0.139     4.25784  -1.49964 
 
 Add virtual bond connecting atoms N9         and C4         Dist= 3.73D+00.
 Add virtual bond connecting atoms H11        and O3         Dist= 3.61D+00.

 GradGradGradGradGradGradGradGradGradGradGradGradGradGradGradGradGradGrad
 Berny optimization.
 Initialization pass.
                           ----------------------------
                           !    Initial Parameters    !
                           ! (Angstroms and Degrees)  !
 --------------------------                            --------------------------
 ! Name  Definition              Value          Derivative Info.                !
 --------------------------------------------------------------------------------
 ! R1    R(1,2)                  1.4743         calculate D2E/DX2 analytically  !
 ! R2    R(1,4)                  1.383          calculate D2E/DX2 analytically  !
 ! R3    R(1,14)                 1.4811         calculate D2E/DX2 analytically  !
 ! R4    R(2,3)                  1.2368         calculate D2E/DX2 analytically  !
 ! R5    R(2,25)                 1.3614         calculate D2E/DX2 analytically  !
 ! R6    R(3,11)                 1.9111         calculate D2E/DX2 analytically  !
 ! R7    R(4,9)                  1.9744         calculate D2E/DX2 analytically  !
 ! R8    R(4,12)                 1.0921         calculate D2E/DX2 analytically  !
 ! R9    R(4,13)                 1.9438         calculate D2E/DX2 analytically  !
 ! R10   R(5,6)                  1.1017         calculate D2E/DX2 analytically  !
 ! R11   R(5,7)                  1.0992         calculate D2E/DX2 analytically  !
 ! R12   R(5,8)                  1.1012         calculate D2E/DX2 analytically  !
 ! R13   R(5,9)                  1.4475         calculate D2E/DX2 analytically  !
 ! R14   R(9,10)                 1.0182         calculate D2E/DX2 analytically  !
 ! R15   R(9,11)                 1.0336         calculate D2E/DX2 analytically  !
 ! R16   R(14,15)                1.4094         calculate D2E/DX2 analytically  !
 ! R17   R(14,19)                1.4073         calculate D2E/DX2 analytically  !
 ! R18   R(15,16)                1.392          calculate D2E/DX2 analytically  !
 ! R19   R(15,20)                1.0928         calculate D2E/DX2 analytically  !
 ! R20   R(16,17)                1.3952         calculate D2E/DX2 analytically  !
 ! R21   R(16,21)                1.0928         calculate D2E/DX2 analytically  !
 ! R22   R(17,18)                1.3937         calculate D2E/DX2 analytically  !
 ! R23   R(17,22)                1.092          calculate D2E/DX2 analytically  !
 ! R24   R(18,19)                1.3933         calculate D2E/DX2 analytically  !
 ! R25   R(18,23)                1.0927         calculate D2E/DX2 analytically  !
 ! R26   R(19,24)                1.093          calculate D2E/DX2 analytically  !
 ! R27   R(25,26)                1.4397         calculate D2E/DX2 analytically  !
 ! R28   R(25,27)                1.0112         calculate D2E/DX2 analytically  !
 ! R29   R(26,28)                1.0969         calculate D2E/DX2 analytically  !
 ! R30   R(26,29)                1.1017         calculate D2E/DX2 analytically  !
 ! R31   R(26,30)                1.1023         calculate D2E/DX2 analytically  !
 ! A1    A(2,1,4)              117.6667         calculate D2E/DX2 analytically  !
 ! A2    A(2,1,14)             122.4666         calculate D2E/DX2 analytically  !
 ! A3    A(4,1,14)             119.2289         calculate D2E/DX2 analytically  !
 ! A4    A(1,2,3)              121.7894         calculate D2E/DX2 analytically  !
 ! A5    A(1,2,25)             117.0936         calculate D2E/DX2 analytically  !
 ! A6    A(3,2,25)             121.1043         calculate D2E/DX2 analytically  !
 ! A7    A(2,3,11)             106.8125         calculate D2E/DX2 analytically  !
 ! A8    A(1,4,9)              107.4038         calculate D2E/DX2 analytically  !
 ! A9    A(1,4,12)             118.0173         calculate D2E/DX2 analytically  !
 ! A10   A(1,4,13)             122.5621         calculate D2E/DX2 analytically  !
 ! A11   A(9,4,12)              99.5769         calculate D2E/DX2 analytically  !
 ! A12   A(9,4,13)              95.4425         calculate D2E/DX2 analytically  !
 ! A13   A(12,4,13)            108.5346         calculate D2E/DX2 analytically  !
 ! A14   A(6,5,7)              108.9001         calculate D2E/DX2 analytically  !
 ! A15   A(6,5,8)              108.3015         calculate D2E/DX2 analytically  !
 ! A16   A(6,5,9)              112.87           calculate D2E/DX2 analytically  !
 ! A17   A(7,5,8)              108.336          calculate D2E/DX2 analytically  !
 ! A18   A(7,5,9)              110.3813         calculate D2E/DX2 analytically  !
 ! A19   A(8,5,9)              107.9316         calculate D2E/DX2 analytically  !
 ! A20   A(4,9,5)              111.1543         calculate D2E/DX2 analytically  !
 ! A21   A(4,9,10)             113.8448         calculate D2E/DX2 analytically  !
 ! A22   A(4,9,11)              91.6588         calculate D2E/DX2 analytically  !
 ! A23   A(5,9,10)             114.7693         calculate D2E/DX2 analytically  !
 ! A24   A(5,9,11)             112.4247         calculate D2E/DX2 analytically  !
 ! A25   A(10,9,11)            110.8165         calculate D2E/DX2 analytically  !
 ! A26   A(3,11,9)             142.8675         calculate D2E/DX2 analytically  !
 ! A27   A(1,14,15)            121.8983         calculate D2E/DX2 analytically  !
 ! A28   A(1,14,19)            120.9246         calculate D2E/DX2 analytically  !
 ! A29   A(15,14,19)           117.17           calculate D2E/DX2 analytically  !
 ! A30   A(14,15,16)           121.3643         calculate D2E/DX2 analytically  !
 ! A31   A(14,15,20)           119.2859         calculate D2E/DX2 analytically  !
 ! A32   A(16,15,20)           119.3474         calculate D2E/DX2 analytically  !
 ! A33   A(15,16,17)           120.4983         calculate D2E/DX2 analytically  !
 ! A34   A(15,16,21)           119.4965         calculate D2E/DX2 analytically  !
 ! A35   A(17,16,21)           119.9985         calculate D2E/DX2 analytically  !
 ! A36   A(16,17,18)           119.0645         calculate D2E/DX2 analytically  !
 ! A37   A(16,17,22)           120.4493         calculate D2E/DX2 analytically  !
 ! A38   A(18,17,22)           120.485          calculate D2E/DX2 analytically  !
 ! A39   A(17,18,19)           120.428          calculate D2E/DX2 analytically  !
 ! A40   A(17,18,23)           120.0395         calculate D2E/DX2 analytically  !
 ! A41   A(19,18,23)           119.5197         calculate D2E/DX2 analytically  !
 ! A42   A(14,19,18)           121.4544         calculate D2E/DX2 analytically  !
 ! A43   A(14,19,24)           119.0838         calculate D2E/DX2 analytically  !
 ! A44   A(18,19,24)           119.4463         calculate D2E/DX2 analytically  !
 ! A45   A(2,25,26)            123.184          calculate D2E/DX2 analytically  !
 ! A46   A(2,25,27)            117.5281         calculate D2E/DX2 analytically  !
 ! A47   A(26,25,27)           119.1574         calculate D2E/DX2 analytically  !
 ! A48   A(25,26,28)           107.7659         calculate D2E/DX2 analytically  !
 ! A49   A(25,26,29)           111.3069         calculate D2E/DX2 analytically  !
 ! A50   A(25,26,30)           111.81           calculate D2E/DX2 analytically  !
 ! A51   A(28,26,29)           109.1238         calculate D2E/DX2 analytically  !
 ! A52   A(28,26,30)           108.271          calculate D2E/DX2 analytically  !
 ! A53   A(29,26,30)           108.4876         calculate D2E/DX2 analytically  !
 ! D1    D(4,1,2,3)             24.1321         calculate D2E/DX2 analytically  !
 ! D2    D(4,1,2,25)          -157.153          calculate D2E/DX2 analytically  !
 ! D3    D(14,1,2,3)          -146.6335         calculate D2E/DX2 analytically  !
 ! D4    D(14,1,2,25)           32.0814         calculate D2E/DX2 analytically  !
 ! D5    D(2,1,4,9)            -60.4062         calculate D2E/DX2 analytically  !
 ! D6    D(2,1,4,12)          -171.7699         calculate D2E/DX2 analytically  !
 ! D7    D(2,1,4,13)            48.1423         calculate D2E/DX2 analytically  !
 ! D8    D(14,1,4,9)           110.6685         calculate D2E/DX2 analytically  !
 ! D9    D(14,1,4,12)           -0.6952         calculate D2E/DX2 analytically  !
 ! D10   D(14,1,4,13)         -140.783          calculate D2E/DX2 analytically  !
 ! D11   D(2,1,14,15)           34.1172         calculate D2E/DX2 analytically  !
 ! D12   D(2,1,14,19)         -146.8809         calculate D2E/DX2 analytically  !
 ! D13   D(4,1,14,15)         -136.5097         calculate D2E/DX2 analytically  !
 ! D14   D(4,1,14,19)           42.4922         calculate D2E/DX2 analytically  !
 ! D15   D(1,2,3,11)            13.9952         calculate D2E/DX2 analytically  !
 ! D16   D(25,2,3,11)         -164.6686         calculate D2E/DX2 analytically  !
 ! D17   D(1,2,25,26)         -177.3682         calculate D2E/DX2 analytically  !
 ! D18   D(1,2,25,27)            6.8268         calculate D2E/DX2 analytically  !
 ! D19   D(3,2,25,26)            1.3561         calculate D2E/DX2 analytically  !
 ! D20   D(3,2,25,27)         -174.449          calculate D2E/DX2 analytically  !
 ! D21   D(2,3,11,9)            -6.8962         calculate D2E/DX2 analytically  !
 ! D22   D(1,4,9,5)            -60.8333         calculate D2E/DX2 analytically  !
 ! D23   D(1,4,9,10)           167.6994         calculate D2E/DX2 analytically  !
 ! D24   D(1,4,9,11)            54.0272         calculate D2E/DX2 analytically  !
 ! D25   D(12,4,9,5)            62.6792         calculate D2E/DX2 analytically  !
 ! D26   D(12,4,9,10)          -68.788          calculate D2E/DX2 analytically  !
 ! D27   D(12,4,9,11)          177.5397         calculate D2E/DX2 analytically  !
 ! D28   D(13,4,9,5)           172.5503         calculate D2E/DX2 analytically  !
 ! D29   D(13,4,9,10)           41.083          calculate D2E/DX2 analytically  !
 ! D30   D(13,4,9,11)          -72.5892         calculate D2E/DX2 analytically  !
 ! D31   D(6,5,9,4)            158.135          calculate D2E/DX2 analytically  !
 ! D32   D(6,5,9,10)           -70.8742         calculate D2E/DX2 analytically  !
 ! D33   D(6,5,9,11)            56.9916         calculate D2E/DX2 analytically  !
 ! D34   D(7,5,9,4)            -79.7416         calculate D2E/DX2 analytically  !
 ! D35   D(7,5,9,10)            51.2492         calculate D2E/DX2 analytically  !
 ! D36   D(7,5,9,11)           179.1149         calculate D2E/DX2 analytically  !
 ! D37   D(8,5,9,4)             38.4849         calculate D2E/DX2 analytically  !
 ! D38   D(8,5,9,10)           169.4757         calculate D2E/DX2 analytically  !
 ! D39   D(8,5,9,11)           -62.6586         calculate D2E/DX2 analytically  !
 ! D40   D(4,9,11,3)           -24.4969         calculate D2E/DX2 analytically  !
 ! D41   D(5,9,11,3)            89.2388         calculate D2E/DX2 analytically  !
 ! D42   D(10,9,11,3)         -140.836          calculate D2E/DX2 analytically  !
 ! D43   D(1,14,15,16)         178.759          calculate D2E/DX2 analytically  !
 ! D44   D(1,14,15,20)          -0.6667         calculate D2E/DX2 analytically  !
 ! D45   D(19,14,15,16)         -0.2786         calculate D2E/DX2 analytically  !
 ! D46   D(19,14,15,20)       -179.7044         calculate D2E/DX2 analytically  !
 ! D47   D(1,14,19,18)        -177.6263         calculate D2E/DX2 analytically  !
 ! D48   D(1,14,19,24)           3.8094         calculate D2E/DX2 analytically  !
 ! D49   D(15,14,19,18)          1.4212         calculate D2E/DX2 analytically  !
 ! D50   D(15,14,19,24)       -177.143          calculate D2E/DX2 analytically  !
 ! D51   D(14,15,16,17)         -0.8053         calculate D2E/DX2 analytically  !
 ! D52   D(14,15,16,21)       -179.8692         calculate D2E/DX2 analytically  !
 ! D53   D(20,15,16,17)        178.6201         calculate D2E/DX2 analytically  !
 ! D54   D(20,15,16,21)         -0.4438         calculate D2E/DX2 analytically  !
 ! D55   D(15,16,17,18)          0.7608         calculate D2E/DX2 analytically  !
 ! D56   D(15,16,17,22)       -179.6422         calculate D2E/DX2 analytically  !
 ! D57   D(21,16,17,18)        179.82           calculate D2E/DX2 analytically  !
 ! D58   D(21,16,17,22)         -0.5829         calculate D2E/DX2 analytically  !
 ! D59   D(16,17,18,19)          0.3698         calculate D2E/DX2 analytically  !
 ! D60   D(16,17,18,23)        179.0666         calculate D2E/DX2 analytically  !
 ! D61   D(22,17,18,19)       -179.227          calculate D2E/DX2 analytically  !
 ! D62   D(22,17,18,23)         -0.5303         calculate D2E/DX2 analytically  !
 ! D63   D(17,18,19,14)         -1.4932         calculate D2E/DX2 analytically  !
 ! D64   D(17,18,19,24)        177.0659         calculate D2E/DX2 analytically  !
 ! D65   D(23,18,19,14)        179.8033         calculate D2E/DX2 analytically  !
 ! D66   D(23,18,19,24)         -1.6376         calculate D2E/DX2 analytically  !
 ! D67   D(2,25,26,28)           7.3083         calculate D2E/DX2 analytically  !
 ! D68   D(2,25,26,29)         126.9268         calculate D2E/DX2 analytically  !
 ! D69   D(2,25,26,30)        -111.5609         calculate D2E/DX2 analytically  !
 ! D70   D(27,25,26,28)       -176.9516         calculate D2E/DX2 analytically  !
 ! D71   D(27,25,26,29)        -57.3331         calculate D2E/DX2 analytically  !
 ! D72   D(27,25,26,30)         64.1792         calculate D2E/DX2 analytically  !
 --------------------------------------------------------------------------------
 Trust Radius=1.00D-01 FncErr=1.00D-07 GrdErr=1.00D-07 EigMax=2.50D+02 EigMin=1.00D-04
 Number of steps in this run=     50 maximum allowed number of steps=    180.
 Search for a saddle point of order  1.
 GradGradGradGradGradGradGradGradGradGradGradGradGradGradGradGradGradGrad

                          Input orientation:                          
 ---------------------------------------------------------------------
 Center     Atomic      Atomic             Coordinates (Angstroms)
 Number     Number       Type             X           Y           Z
 ---------------------------------------------------------------------
      1          6           0        0.108220    0.096380   -0.095530
      2          6           0       -0.328100    1.500340    0.014820
      3          8           0       -1.338850    1.820360    0.651710
      4          6           0       -0.848930   -0.888300    0.068380
      5          6           0       -0.574690   -0.851790    2.893220
      6          1           0       -0.841920   -0.384840    3.854570
      7          1           0       -0.370380   -1.918800    3.060280
      8          1           0        0.346850   -0.376540    2.522270
      9          7           0       -1.598800   -0.686640    1.883660
     10          1           0       -2.445400   -1.229730    2.041970
     11          1           0       -1.826470    0.306840    1.711790
     12          1           0       -0.513020   -1.925940    0.124790
     13         35           0       -2.563850   -0.842820   -0.845610
     14          6           0        1.536320   -0.288720   -0.171560
     15          6           0        2.538090    0.426510    0.514920
     16          6           0        3.873920    0.039560    0.456150
     17          6           0        4.253720   -1.085230   -0.276840
     18          6           0        3.278790   -1.807200   -0.962860
     19          6           0        1.945020   -1.406140   -0.923050
     20          1           0        2.258560    1.297300    1.113030
     21          1           0        4.625350    0.615170    1.002210
     22          1           0        5.301110   -1.391430   -0.317640
     23          1           0        3.560610   -2.681740   -1.554260
     24          1           0        1.201130   -1.955490   -1.505670
     25          7           0        0.446220    2.439970   -0.594210
     26          6           0        0.173750    3.851870   -0.523710
     27          1           0        1.209890    2.113800   -1.171210
     28          1           0       -0.646920    3.999180    0.188970
     29          1           0        1.056630    4.413200   -0.178560
     30          1           0       -0.139000    4.257840   -1.499640
 ---------------------------------------------------------------------
                    Distance matrix (angstroms):
                    1          2          3          4          5
     1  C    0.000000
     2  C    1.474332   0.000000
     3  O    2.371600   1.236793   0.000000
     4  C    1.382967   2.445349   2.813740   0.000000
     5  C    3.209053   3.725387   3.570531   2.838355   0.000000
     6  H    4.091165   4.308317   3.920224   3.819523   1.101657
     7  H    3.774804   4.578988   4.551973   3.200376   1.099164
     8  H    2.670856   3.203988   3.341698   2.777294   1.101228
     9  N    2.728412   3.144857   2.805410   1.974389   1.447511
    10  H    3.584473   4.005693   3.529919   2.561318   2.089742
    11  H    2.655885   2.559153   1.911095   2.254937   2.074886
    12  H    2.127030   3.433028   3.872261   1.092115   2.970153
    13  Br   2.929962   3.351017   3.291674   1.943810   4.235055
    14  C    1.481065   2.590663   3.659589   2.471130   3.763813
    15  C    2.527034   3.101331   4.122159   3.660605   4.120651
    16  C    3.806321   4.470528   5.512029   4.828727   5.150140
    17  C    4.314423   5.269090   6.370361   5.118105   5.780771
    18  C    3.798472   4.990524   6.090043   4.352689   5.534570
    19  C    2.513203   3.807138   4.865591   3.009526   4.606534
    20  H    2.743499   2.817463   3.664392   3.940131   3.976804
    21  H    4.677461   5.127878   6.094835   5.753278   5.724361
    22  H    5.406387   6.337260   7.439375   6.182649   6.717578
    23  H    4.665280   5.922320   7.009987   5.029257   6.342673
    24  H    2.719029   4.073475   5.036152   2.796296   4.870516
    25  N    2.419781   1.361394   2.263340   3.632330   4.903071
    26  C    3.780389   2.464054   2.792240   4.885249   5.861740
    27  H    2.537863   2.036765   3.147256   3.845507   5.338449
    28  H    3.985351   2.525109   2.332413   4.893139   5.554286
    29  H    4.420555   3.231041   3.626361   5.638975   6.310084
    30  H    4.398908   3.151691   3.465437   5.426366   6.752434
                    6          7          8          9         10
     6  H    0.000000
     7  H    1.790609   0.000000
     8  H    1.785572   1.783939   0.000000
     9  N    2.132706   2.100397   2.071120   0.000000
    10  H    2.563300   2.411945   2.958932   1.018204   0.000000
    11  H    2.457492   2.981962   2.418100   1.033622   1.689124
    12  H    4.049003   2.938962   2.981263   2.410064   2.809694
    13  Br   5.026577   4.607062   4.475735   2.899074   2.915793
    14  C    4.677070   4.091144   2.946060   3.769781   4.651807
    15  C    4.820375   4.520900   3.078291   4.497378   5.469020
    16  C    5.828252   5.350771   4.108797   5.702264   6.637750
    17  C    6.597321   5.763116   4.858075   6.251290   7.090555
    18  C    6.496999   5.432730   4.773803   5.757535   6.490672
    19  C    5.624566   4.635819   3.935029   4.577550   5.300778
    20  H    4.467506   4.587636   2.905569   4.405578   5.419968
    21  H    6.247161   5.967744   4.647541   6.419634   7.381075
    22  H    7.493823   6.622255   5.799981   7.276758   8.099526
    23  H    7.342579   6.109725   5.679815   6.513005   7.149361
    24  H    5.947535   4.828964   4.409895   4.575713   5.139033
    25  N    5.424988   5.746391   4.201791   4.483039   5.364477
    26  C    6.176620   6.814814   5.214155   5.434651   6.266205
    27  H    5.975918   6.055132   4.537447   5.006339   5.904648
    28  H    5.717891   6.583569   5.057548   5.072964   5.831778
    29  H    6.549184   7.254010   5.544356   6.108390   7.002687
    30  H    7.121526   7.680969   6.155428   6.166491   6.926464
                   11         12         13         14         15
    11  H    0.000000
    12  H    3.037931   0.000000
    13  Br   2.899266   2.514106   0.000000
    14  C    3.900007   2.639717   4.191988   0.000000
    15  C    4.527273   3.872402   5.430657   1.409380   0.000000
    16  C    5.843160   4.818530   6.627070   2.442573   1.391986
    17  C    6.546848   4.856945   6.845548   2.833686   2.419840
    18  C    6.138941   3.946505   5.922856   2.442977   2.778836
    19  C    4.909259   2.722154   4.544583   1.407267   2.403767
    20  H    4.245821   4.364350   5.627790   2.165008   1.092771
    21  H    6.498042   5.799134   7.564706   3.425910   2.151673
    22  H    7.602967   5.855387   7.901729   3.925679   3.410622
    23  H    6.972756   4.470448   6.433725   3.425807   3.871469
    24  H    4.963522   2.365921   3.981054   2.161093   3.397671
    25  N    3.877241   4.527502   4.460990   2.968619   3.108072
    26  C    4.643875   5.854511   5.444097   4.373224   4.289749
    27  H    4.560293   4.579032   4.805073   2.622586   2.730219
    28  H    4.164576   5.926980   5.309420   4.825205   4.797343
    29  H    5.361705   6.537623   6.417054   4.726331   4.309215
    30  H    5.363883   6.404514   5.685454   5.024112   5.089632
                   16         17         18         19         20
    16  C    0.000000
    17  C    1.395233   0.000000
    18  C    2.403808   1.393683   0.000000
    19  C    2.777210   2.418815   1.393333   0.000000
    20  H    2.150067   3.404240   3.871448   3.398899   0.000000
    21  H    1.092774   2.159962   3.397440   3.869947   2.465619
    22  H    2.164106   1.091993   2.163088   3.410290   4.305020
    23  H    3.397850   2.158946   1.092702   2.153070   4.964124
    24  H    3.869466   3.403775   2.152511   1.092979   4.307713
    25  N    4.314435   5.198540   5.118379   4.140906   2.739514
    26  C    5.402323   6.409529   6.469869   5.562692   3.681193
    27  H    3.748043   4.505396   4.438243   3.604439   2.642751
    28  H    6.015644   7.077039   7.102954   6.096903   4.073801
    29  H    5.241060   6.361114   6.651804   5.933652   3.580736
    30  H    6.141867   7.024217   6.982416   6.062695   4.619430
                   21         22         23         24         25
    21  H    0.000000
    22  H    2.495015   0.000000
    23  H    4.305674   2.494688   0.000000
    24  H    4.962161   4.305742   2.469199   0.000000
    25  N    4.831519   6.190806   6.070670   4.552001   0.000000
    26  C    5.711515   7.336517   7.431078   5.978728   1.439678
    27  H    4.316829   5.454659   5.354420   4.083021   1.011191
    28  H    6.317414   8.043282   8.085595   6.461052   2.058995
    29  H    5.343689   7.192266   7.648571   6.507097   2.106894
    30  H    6.498256   7.931341   7.864342   6.356214   2.113513
                   26         27         28         29         30
    26  C    0.000000
    27  H    2.124554   0.000000
    28  H    1.096865   2.975314   0.000000
    29  H    1.101679   2.509200   1.791249   0.000000
    30  H    1.102299   2.554267   1.782215   1.788553   0.000000
 Stoichiometry    C11H15BrN2O
 Framework group  C1[X(C11H15BrN2O)]
 Deg. of freedom    84
 Full point group                 C1      NOp   1
 Largest Abelian subgroup         C1      NOp   1
 Largest concise Abelian subgroup C1      NOp   1
                         Standard orientation:                         
 ---------------------------------------------------------------------
 Center     Atomic      Atomic             Coordinates (Angstroms)
 Number     Number       Type             X           Y           Z
 ---------------------------------------------------------------------
      1          6           0        0.108220    0.096380   -0.095530
      2          6           0       -0.328098    1.500341    0.014820
      3          8           0       -1.338848    1.820362    0.651710
      4          6           0       -0.848932   -0.888299    0.068380
      5          6           0       -0.574692   -0.851789    2.893220
      6          1           0       -0.841921   -0.384839    3.854570
      7          1           0       -0.370384   -1.918799    3.060280
      8          1           0        0.346849   -0.376540    2.522270
      9          7           0       -1.598802   -0.686637    1.883660
     10          1           0       -2.445402   -1.229726    2.041970
     11          1           0       -1.826470    0.306843    1.711790
     12          1           0       -0.513024   -1.925939    0.124790
     13         35           0       -2.563852   -0.842816   -0.845610
     14          6           0        1.536319   -0.288722   -0.171560
     15          6           0        2.538090    0.426506    0.514920
     16          6           0        3.873920    0.039554    0.456150
     17          6           0        4.253718   -1.085237   -0.276840
     18          6           0        3.278787   -1.807205   -0.962860
     19          6           0        1.945017   -1.406143   -0.923050
     20          1           0        2.258562    1.297297    1.113030
     21          1           0        4.625350    0.615163    1.002210
     22          1           0        5.301107   -1.391438   -0.317640
     23          1           0        3.560605   -2.681745   -1.554260
     24          1           0        1.201126   -1.955492   -1.505670
     25          7           0        0.446223    2.439969   -0.594210
     26          6           0        0.173756    3.851870   -0.523710
     27          1           0        1.209893    2.113798   -1.171210
     28          1           0       -0.646914    3.999181    0.188970
     29          1           0        1.056636    4.413198   -0.178560
     30          1           0       -0.138994    4.257840   -1.499640
 ---------------------------------------------------------------------
 Rotational constants (GHZ):           0.5735208           0.3056106           0.2601470
 Standard basis: STO-3G (5D, 7F)
 There are   104 symmetry adapted cartesian basis functions of A   symmetry.
 There are   103 symmetry adapted basis functions of A   symmetry.
   103 basis functions,   312 primitive gaussians,   104 cartesian basis functions
    69 alpha electrons       69 beta electrons
       nuclear repulsion energy      1352.7391013048 Hartrees.
 NAtoms=   30 NActive=   30 NUniq=   30 SFac= 1.00D+00 NAtFMM=   60 NAOKFM=F Big=F
 Integral buffers will be    131072 words long.
 Raffenetti 1 integral format.
 Two-electron integral symmetry is turned on.
 External calculation of energy, first and second derivatives.
 Running external command "~/scripts/MiMe -H 'hf def2svp' -EF 'wb97xd def2svp' -c 12 -m 48GB R"
         input file       "/local/jobs/1158198/Gau-3860710.EIn"
         output file      "/local/jobs/1158198/Gau-3860710.EOu"
         message file     "/local/jobs/1158198/Gau-3860710.EMs"
         fchk file        "/local/jobs/1158198/Gau-3860710.EFC"
         mat. el file     "/local/jobs/1158198/Gau-3860710.EUF"
 Read checkpoint file Gau-3860710_H.chk type G16
 Write formatted file Gau-3860710_H.fchk

deriv: 2

spelevel: wb97xd def2svp
gradlevel: wb97xd def2svp
hesslevel: hf def2svp

runspe: False
runforce: True
runfreq: True

Running Gaussian ...

Parsing files ...
SPE file: Gau-3860710_F.out
FORCE file: Gau-3860710_F.out
HESS file: Gau-3860710_H.out

 ExternalExternalExternalExternalExternalExternalExternalExternalExternalExternal
 Output from external command:
 "~/scripts/MiMe -H 'hf def2svp' -EF 'wb97xd def2svp' -c 12 -m 48GB R /local/jobs/1158198/Gau-3860710.EIn /local/jobs/1158198/Gau-3860710.EOu /local/jobs/1158198/Gau-3860710.EMs /local/jobs/1158198/Gau-3860710.EFC /local/jobs/1158198/Gau-3860710.EUF"
  
 --------------------------------------------------
 Force calculation at wb97xd def2svp
 Hessian calculation at hf def2svp
 ExternalExternalExternalExternalExternalExternalExternalExternalExternalExternal

 Recovered energy= -3186.16161530     dipole=      1.245700000000     -0.917100000000      2.148800000000
 Energy=    -3186.16162     NIter=   0.
 Dipole moment=       1.245700      -0.917100       2.148800
 ***** Axes restored to original set *****
 -------------------------------------------------------------------
 Center     Atomic                   Forces (Hartrees/Bohr)
 Number     Number              X              Y              Z
 -------------------------------------------------------------------
      1        6          -0.000000400    0.000000506    0.000000684
      2        6          -0.000000582   -0.000001147   -0.000000122
      3        8           0.000001966   -0.000000119    0.000000585
      4        6           0.000004594   -0.000003620   -0.000000223
      5        6           0.000001340   -0.000007138   -0.000002149
      6        1          -0.000001329    0.000002466    0.000002584
      7        1          -0.000001824    0.000004726   -0.000001087
      8        1          -0.000001098    0.000000770    0.000001126
      9        7           0.000003031    0.000006464   -0.000003256
     10        1          -0.000005770   -0.000001559   -0.000000267
     11        1           0.000000614   -0.000000242   -0.000000183
     12        1          -0.000002299    0.000004017   -0.000000084
     13       35          -0.000000682    0.000000926   -0.000000956
     14        6          -0.000004793    0.000001536    0.000002349
     15        6          -0.000004149    0.000003973    0.000003878
     16        6           0.000002912   -0.000001075    0.000000993
     17        6          -0.000001199   -0.000001593   -0.000000269
     18        6          -0.000002168   -0.000000560    0.000001260
     19        6           0.000003404   -0.000006501   -0.000004733
     20        1           0.000001287   -0.000003153   -0.000002764
     21        1           0.000000074   -0.000000789    0.000001157
     22        1           0.000001286   -0.000001205    0.000002222
     23        1          -0.000000185    0.000000166    0.000002112
     24        1           0.000001266    0.000001403    0.000002068
     25        7          -0.000002349    0.000004375    0.000004350
     26        6          -0.000002017   -0.000005732   -0.000002540
     27        1           0.000003045   -0.000001120   -0.000006396
     28        1           0.000006905    0.000002485    0.000007133
     29        1           0.000007636    0.000003596   -0.000008346
     30        1          -0.000008517   -0.000001855    0.000000872
 -------------------------------------------------------------------
 Cartesian Forces:  Max     0.000008517 RMS     0.000003237
 FormGI is forming the generalized inverse of G from B-inverse, IUseBI=4.

 GradGradGradGradGradGradGradGradGradGradGradGradGradGradGradGradGradGrad
 Berny optimization.
 Internal  Forces:  Max     0.000015335 RMS     0.000003947
 Search for a saddle point.
 Step number   1 out of a maximum of   50
 All quantities printed in internal units (Hartrees-Bohrs-Radians)
 Swapping is turned off.
 Second derivative matrix not updated -- analytic derivatives used.
 ITU=  0
     Eigenvalues ---   -0.05365   0.00298   0.00516   0.00568   0.00633
     Eigenvalues ---    0.01373   0.01430   0.01914   0.02272   0.02332
     Eigenvalues ---    0.02394   0.02407   0.02642   0.02869   0.03016
     Eigenvalues ---    0.03129   0.03352   0.03414   0.03602   0.03735
     Eigenvalues ---    0.04086   0.04503   0.05393   0.05542   0.05790
     Eigenvalues ---    0.06028   0.06499   0.06775   0.07347   0.07697
     Eigenvalues ---    0.08459   0.09153   0.11502   0.12930   0.13917
     Eigenvalues ---    0.14251   0.14512   0.14735   0.14940   0.15282
     Eigenvalues ---    0.15673   0.15811   0.16777   0.20159   0.20665
     Eigenvalues ---    0.20977   0.21316   0.21567   0.21612   0.21952
     Eigenvalues ---    0.22266   0.22598   0.23875   0.24456   0.25179
     Eigenvalues ---    0.29593   0.34327   0.34689   0.34843   0.35010
     Eigenvalues ---    0.35486   0.35604   0.36228   0.36809   0.37326
     Eigenvalues ---    0.37411   0.37468   0.37614   0.37692   0.38252
     Eigenvalues ---    0.40867   0.41195   0.43034   0.45603   0.46973
     Eigenvalues ---    0.47173   0.48258   0.49108   0.50212   0.51483
     Eigenvalues ---    0.52127   0.53522   0.55715   0.77107
 Eigenvectors required to have negative eigenvalues:
                          R7        R6        D10       D7        R2
   1                   -0.84832  -0.21255   0.18910   0.18495   0.12791
                          R9        A22       A12       A7        D1
   1                    0.11526   0.10136   0.09083  -0.08753  -0.08618
 RFO step:  Lambda0=3.926373116D-13 Lambda=-8.70964693D-08.
 Linear search not attempted -- option 19 set.
 Iteration  1 RMS(Cart)=  0.00039636 RMS(Int)=  0.00000026
 Iteration  2 RMS(Cart)=  0.00000027 RMS(Int)=  0.00000000
 Variable       Old X    -DE/DX   Delta X   Delta X   Delta X     New X
                                 (Linear)    (Quad)   (Total)
    R1        2.78608   0.00000   0.00000   0.00000   0.00000   2.78609
    R2        2.61343  -0.00000   0.00000  -0.00000  -0.00000   2.61342
    R3        2.79881  -0.00000   0.00000  -0.00001  -0.00001   2.79880
    R4        2.33720  -0.00000   0.00000  -0.00000  -0.00000   2.33720
    R5        2.57266   0.00000   0.00000   0.00000   0.00000   2.57266
    R6        3.61145  -0.00000   0.00000  -0.00003  -0.00003   3.61141
    R7        3.73106  -0.00000   0.00000  -0.00000  -0.00000   3.73105
    R8        2.06380  -0.00000   0.00000  -0.00001  -0.00001   2.06379
    R9        3.67327   0.00000   0.00000   0.00001   0.00001   3.67328
   R10        2.08183   0.00000   0.00000   0.00001   0.00001   2.08184
   R11        2.07712  -0.00000   0.00000  -0.00001  -0.00001   2.07711
   R12        2.08102  -0.00000   0.00000  -0.00000  -0.00000   2.08102
   R13        2.73540  -0.00000   0.00000   0.00000   0.00000   2.73540
   R14        1.92413   0.00001   0.00000   0.00001   0.00001   1.92414
   R15        1.95326  -0.00000   0.00000  -0.00000  -0.00000   1.95326
   R16        2.66334   0.00000   0.00000  -0.00000  -0.00000   2.66334
   R17        2.65935   0.00001   0.00000   0.00002   0.00002   2.65936
   R18        2.63047   0.00000   0.00000   0.00001   0.00001   2.63048
   R19        2.06504  -0.00000   0.00000  -0.00001  -0.00001   2.06502
   R20        2.63661  -0.00000   0.00000  -0.00000  -0.00000   2.63661
   R21        2.06504   0.00000   0.00000   0.00000   0.00000   2.06504
   R22        2.63368   0.00000   0.00000   0.00000   0.00000   2.63368
   R23        2.06357   0.00000   0.00000   0.00000   0.00000   2.06357
   R24        2.63302   0.00000   0.00000  -0.00001  -0.00001   2.63301
   R25        2.06491  -0.00000   0.00000  -0.00000  -0.00000   2.06490
   R26        2.06543  -0.00000   0.00000  -0.00001  -0.00001   2.06542
   R27        2.72060  -0.00000   0.00000  -0.00001  -0.00001   2.72059
   R28        1.91087   0.00001   0.00000   0.00001   0.00001   1.91089
   R29        2.07277   0.00000   0.00000   0.00000   0.00000   2.07278
   R30        2.08187   0.00000   0.00000  -0.00000  -0.00000   2.08187
   R31        2.08304   0.00000   0.00000   0.00002   0.00002   2.08306
    A1        2.05367  -0.00000   0.00000  -0.00000  -0.00000   2.05367
    A2        2.13745  -0.00000   0.00000   0.00000   0.00000   2.13745
    A3        2.08094   0.00000   0.00000  -0.00000  -0.00000   2.08094
    A4        2.12563  -0.00000   0.00000   0.00001   0.00001   2.12563
    A5        2.04367   0.00000   0.00000   0.00001   0.00001   2.04368
    A6        2.11367  -0.00000   0.00000  -0.00001  -0.00001   2.11366
    A7        1.86423   0.00000   0.00000   0.00000   0.00000   1.86423
    A8        1.87455   0.00000   0.00000   0.00000   0.00000   1.87455
    A9        2.05979   0.00000   0.00000   0.00001   0.00001   2.05980
   A10        2.13911  -0.00000   0.00000  -0.00001  -0.00001   2.13910
   A11        1.73794  -0.00000   0.00000  -0.00001  -0.00001   1.73794
   A12        1.66579   0.00000   0.00000  -0.00000  -0.00000   1.66579
   A13        1.89429   0.00000   0.00000   0.00000   0.00000   1.89429
   A14        1.90067   0.00000   0.00000   0.00000   0.00000   1.90067
   A15        1.89022  -0.00000   0.00000  -0.00001  -0.00001   1.89021
   A16        1.96995  -0.00000   0.00000  -0.00000  -0.00000   1.96995
   A17        1.89082   0.00000   0.00000   0.00000   0.00000   1.89082
   A18        1.92652  -0.00000   0.00000   0.00000   0.00000   1.92652
   A19        1.88376   0.00000   0.00000  -0.00000  -0.00000   1.88376
   A20        1.94001  -0.00000   0.00000  -0.00001  -0.00001   1.94000
   A21        1.98697   0.00000   0.00000   0.00000   0.00000   1.98697
   A22        1.59975   0.00000   0.00000   0.00000   0.00000   1.59975
   A23        2.00310  -0.00000   0.00000  -0.00001  -0.00001   2.00310
   A24        1.96218   0.00000   0.00000   0.00001   0.00001   1.96219
   A25        1.93411   0.00000   0.00000  -0.00000  -0.00000   1.93411
   A26        2.49351  -0.00000   0.00000   0.00002   0.00002   2.49353
   A27        2.12753  -0.00001   0.00000  -0.00000  -0.00000   2.12752
   A28        2.11053   0.00001   0.00000   0.00001   0.00001   2.11054
   A29        2.04500  -0.00000   0.00000  -0.00000  -0.00000   2.04500
   A30        2.11821   0.00000   0.00000  -0.00000  -0.00000   2.11820
   A31        2.08193  -0.00000   0.00000   0.00000   0.00000   2.08193
   A32        2.08301  -0.00000   0.00000  -0.00000  -0.00000   2.08300
   A33        2.10309  -0.00000   0.00000   0.00000   0.00000   2.10309
   A34        2.08561   0.00000   0.00000  -0.00000  -0.00000   2.08561
   A35        2.09437   0.00000   0.00000  -0.00000  -0.00000   2.09437
   A36        2.07807   0.00000   0.00000  -0.00000  -0.00000   2.07807
   A37        2.10224  -0.00000   0.00000  -0.00000  -0.00000   2.10223
   A38        2.10286   0.00000   0.00000   0.00000   0.00000   2.10286
   A39        2.10187   0.00000   0.00000   0.00000   0.00000   2.10187
   A40        2.09508  -0.00000   0.00000  -0.00000  -0.00000   2.09508
   A41        2.08601  -0.00000   0.00000   0.00000   0.00000   2.08601
   A42        2.11978  -0.00000   0.00000  -0.00000  -0.00000   2.11978
   A43        2.07841   0.00000   0.00000  -0.00001  -0.00001   2.07840
   A44        2.08473   0.00000   0.00000   0.00001   0.00001   2.08474
   A45        2.14997   0.00000   0.00000  -0.00002  -0.00002   2.14994
   A46        2.05125   0.00000   0.00000   0.00000   0.00000   2.05125
   A47        2.07969  -0.00000   0.00000  -0.00000  -0.00000   2.07968
   A48        1.88087   0.00000   0.00000   0.00003   0.00003   1.88090
   A49        1.94267   0.00000   0.00000  -0.00008  -0.00008   1.94260
   A50        1.95145  -0.00000   0.00000   0.00006   0.00006   1.95152
   A51        1.90457  -0.00000   0.00000   0.00003   0.00003   1.90460
   A52        1.88968  -0.00000   0.00000  -0.00005  -0.00005   1.88963
   A53        1.89347  -0.00000   0.00000   0.00000   0.00000   1.89347
    D1        0.42118   0.00001   0.00000   0.00006   0.00006   0.42124
    D2       -2.74284   0.00001   0.00000   0.00004   0.00004  -2.74280
    D3       -2.55924   0.00001   0.00000   0.00009   0.00009  -2.55915
    D4        0.55993   0.00001   0.00000   0.00007   0.00007   0.56000
    D5       -1.05429  -0.00000   0.00000  -0.00000  -0.00000  -1.05429
    D6       -2.99795   0.00000   0.00000   0.00000   0.00000  -2.99795
    D7        0.84024   0.00000   0.00000  -0.00001  -0.00001   0.84023
    D8        1.93153  -0.00000   0.00000  -0.00003  -0.00003   1.93150
    D9       -0.01213  -0.00000   0.00000  -0.00003  -0.00003  -0.01216
   D10       -2.45713  -0.00000   0.00000  -0.00003  -0.00003  -2.45716
   D11        0.59546   0.00000   0.00000  -0.00007  -0.00007   0.59538
   D12       -2.56356  -0.00000   0.00000  -0.00008  -0.00008  -2.56363
   D13       -2.38254   0.00000   0.00000  -0.00004  -0.00004  -2.38259
   D14        0.74163   0.00000   0.00000  -0.00005  -0.00005   0.74158
   D15        0.24426  -0.00001   0.00000  -0.00006  -0.00006   0.24420
   D16       -2.87401  -0.00001   0.00000  -0.00004  -0.00004  -2.87405
   D17       -3.09566   0.00000   0.00000  -0.00015  -0.00015  -3.09581
   D18        0.11915   0.00001   0.00000   0.00025   0.00025   0.11940
   D19        0.02367   0.00001   0.00000  -0.00017  -0.00017   0.02350
   D20       -3.04471   0.00002   0.00000   0.00023   0.00023  -3.04448
   D21       -0.12036   0.00000   0.00000   0.00001   0.00001  -0.12035
   D22       -1.06174  -0.00000   0.00000  -0.00005  -0.00005  -1.06179
   D23        2.92691  -0.00000   0.00000  -0.00004  -0.00004   2.92687
   D24        0.94295  -0.00000   0.00000  -0.00004  -0.00004   0.94292
   D25        1.09396  -0.00000   0.00000  -0.00004  -0.00004   1.09392
   D26       -1.20058  -0.00000   0.00000  -0.00003  -0.00003  -1.20060
   D27        3.09865  -0.00000   0.00000  -0.00003  -0.00003   3.09863
   D28        3.01157  -0.00000   0.00000  -0.00004  -0.00004   3.01153
   D29        0.71703   0.00000   0.00000  -0.00003  -0.00003   0.71701
   D30       -1.26692  -0.00000   0.00000  -0.00003  -0.00003  -1.26695
   D31        2.75998   0.00000   0.00000   0.00003   0.00003   2.76000
   D32       -1.23699  -0.00000   0.00000   0.00002   0.00002  -1.23697
   D33        0.99469  -0.00000   0.00000   0.00002   0.00002   0.99471
   D34       -1.39175   0.00000   0.00000   0.00003   0.00003  -1.39172
   D35        0.89447  -0.00000   0.00000   0.00003   0.00003   0.89449
   D36        3.12615  -0.00000   0.00000   0.00003   0.00003   3.12617
   D37        0.67169   0.00000   0.00000   0.00004   0.00004   0.67173
   D38        2.95791   0.00000   0.00000   0.00003   0.00003   2.95794
   D39       -1.09360   0.00000   0.00000   0.00003   0.00003  -1.09356
   D40       -0.42755   0.00000   0.00000   0.00003   0.00003  -0.42752
   D41        1.55751   0.00000   0.00000   0.00003   0.00003   1.55754
   D42       -2.45805   0.00000   0.00000   0.00003   0.00003  -2.45802
   D43        3.11993  -0.00000   0.00000  -0.00002  -0.00002   3.11992
   D44       -0.01164  -0.00000   0.00000  -0.00003  -0.00003  -0.01166
   D45       -0.00486  -0.00000   0.00000  -0.00001  -0.00001  -0.00488
   D46       -3.13643   0.00000   0.00000  -0.00002  -0.00002  -3.13646
   D47       -3.10016   0.00000   0.00000   0.00002   0.00002  -3.10015
   D48        0.06649   0.00000   0.00000   0.00001   0.00001   0.06649
   D49        0.02480   0.00000   0.00000   0.00001   0.00001   0.02482
   D50       -3.09173  -0.00000   0.00000   0.00000   0.00000  -3.09172
   D51       -0.01405   0.00000   0.00000   0.00001   0.00001  -0.01405
   D52       -3.13931   0.00000   0.00000   0.00001   0.00001  -3.13930
   D53        3.11751  -0.00000   0.00000   0.00002   0.00002   3.11752
   D54       -0.00775  -0.00000   0.00000   0.00002   0.00002  -0.00773
   D55        0.01328   0.00000   0.00000   0.00000   0.00000   0.01328
   D56       -3.13535   0.00000   0.00000   0.00001   0.00001  -3.13534
   D57        3.13845  -0.00000   0.00000   0.00000   0.00000   3.13846
   D58       -0.01017   0.00000   0.00000   0.00001   0.00001  -0.01017
   D59        0.00645  -0.00000   0.00000  -0.00000  -0.00000   0.00645
   D60        3.12530   0.00000   0.00000  -0.00000  -0.00000   3.12530
   D61       -3.12810  -0.00000   0.00000  -0.00000  -0.00000  -3.12811
   D62       -0.00925  -0.00000   0.00000  -0.00001  -0.00001  -0.00926
   D63       -0.02606  -0.00000   0.00000  -0.00001  -0.00001  -0.02607
   D64        3.09038   0.00000   0.00000   0.00000   0.00000   3.09039
   D65        3.13816  -0.00000   0.00000  -0.00001  -0.00001   3.13815
   D66       -0.02858   0.00000   0.00000   0.00000   0.00000  -0.02858
   D67        0.12755   0.00001   0.00000   0.00147   0.00147   0.12903
   D68        2.21529   0.00001   0.00000   0.00148   0.00148   2.21677
   D69       -1.94710   0.00001   0.00000   0.00148   0.00148  -1.94563
   D70       -3.08839   0.00001   0.00000   0.00106   0.00106  -3.08732
   D71       -1.00065   0.00001   0.00000   0.00107   0.00107  -0.99958
   D72        1.12014   0.00001   0.00000   0.00107   0.00107   1.12121
         Item               Value     Threshold  Converged?
 Maximum Force            0.000015     0.000450     YES
 RMS     Force            0.000004     0.000300     YES
 Maximum Displacement     0.002781     0.001800     NO 
 RMS     Displacement     0.000396     0.001200     YES
 Predicted change in Energy=-4.354804D-08
 GradGradGradGradGradGradGradGradGradGradGradGradGradGradGradGradGradGrad

                          Input orientation:                          
 ---------------------------------------------------------------------
 Center     Atomic      Atomic             Coordinates (Angstroms)
 Number     Number       Type             X           Y           Z
 ---------------------------------------------------------------------
      1          6           0        0.108255    0.096425   -0.095549
      2          6           0       -0.328042    1.500389    0.014852
      3          8           0       -1.338758    1.820414    0.651790
      4          6           0       -0.848917   -0.888239    0.068309
      5          6           0       -0.574718   -0.851918    2.893150
      6          1           0       -0.841944   -0.385030    3.854537
      7          1           0       -0.370451   -1.918943    3.060124
      8          1           0        0.346845   -0.376668    2.522258
      9          7           0       -1.598806   -0.686641    1.883585
     10          1           0       -2.445443   -1.229697    2.041853
     11          1           0       -1.826420    0.306860    1.711771
     12          1           0       -0.513044   -1.925886    0.124685
     13         35           0       -2.563828   -0.842665   -0.845704
     14          6           0        1.536346   -0.288703   -0.171538
     15          6           0        2.538109    0.426528    0.514951
     16          6           0        3.873936    0.039543    0.456238
     17          6           0        4.253737   -1.085276   -0.276705
     18          6           0        3.278813   -1.807242   -0.962741
     19          6           0        1.945054   -1.406154   -0.922992
     20          1           0        2.258583    1.297345    1.113011
     21          1           0        4.625361    0.615152    1.002308
     22          1           0        5.301123   -1.391502   -0.317452
     23          1           0        3.560637   -2.681802   -1.554106
     24          1           0        1.201172   -1.955500   -1.505619
     25          7           0        0.446271    2.440033   -0.594167
     26          6           0        0.173687    3.851912   -0.523745
     27          1           0        1.209792    2.113872   -1.171381
     28          1           0       -0.646029    3.999362    0.190006
     29          1           0        1.057000    4.413413   -0.179987
     30          1           0       -0.140471    4.257590   -1.499354
 ---------------------------------------------------------------------
                    Distance matrix (angstroms):
                    1          2          3          4          5
     1  C    0.000000
     2  C    1.474334   0.000000
     3  O    2.371603   1.236791   0.000000
     4  C    1.382965   2.445346   2.813751   0.000000
     5  C    3.209069   3.725425   3.570547   2.838350   0.000000
     6  H    4.091192   4.308373   3.920255   3.819528   1.101662
     7  H    3.774802   4.579008   4.551975   3.200350   1.099157
     8  H    2.670890   3.204045   3.341718   2.777305   1.101227
     9  N    2.728410   3.144854   2.805400   1.974387   1.447513
    10  H    3.584475   4.005682   3.529901   2.561321   2.089746
    11  H    2.655872   2.559137   1.911078   2.254937   2.074893
    12  H    2.127030   3.433024   3.872261   1.092108   2.970119
    13  Br   2.929957   3.351000   3.291698   1.943814   4.235053
    14  C    1.481061   2.590663   3.659572   2.471124   3.763789
    15  C    2.527028   3.101306   4.122104   3.660608   4.120672
    16  C    3.806318   4.470516   5.511980   4.828728   5.150122
    17  C    4.314424   5.269096   6.370332   5.118099   5.780692
    18  C    3.798475   4.990543   6.090038   4.352676   5.534459
    19  C    2.513212   3.807166   4.865604   3.009517   4.606448
    20  H    2.743490   2.817412   3.664313   3.940145   3.976911
    21  H    4.677458   5.127856   6.094771   5.753282   5.724368
    22  H    5.406389   6.337268   7.439345   6.182644   6.717486
    23  H    4.665284   5.922346   7.009993   5.029241   6.342533
    24  H    2.719037   4.073512   5.036188   2.796276   4.870405
    25  N    2.419789   1.361395   2.263331   3.632325   4.903135
    26  C    3.780386   2.464037   2.792196   4.885211   5.861851
    27  H    2.537891   2.036773   3.147249   3.845489   5.338614
    28  H    3.985399   2.525204   2.332580   4.893324   5.554006
    29  H    4.420818   3.231410   3.627003   5.639298   6.311131
    30  H    4.398617   3.151215   3.464554   5.425773   6.752016
                    6          7          8          9         10
     6  H    0.000000
     7  H    1.790610   0.000000
     8  H    1.785569   1.783935   0.000000
     9  N    2.132712   2.100397   2.071121   0.000000
    10  H    2.563297   2.411955   2.958939   1.018211   0.000000
    11  H    2.457509   2.981962   2.418094   1.033621   1.689127
    12  H    4.048976   2.938908   2.981249   2.410049   2.809694
    13  Br   5.026587   4.607035   4.475750   2.899074   2.915784
    14  C    4.677053   4.091112   2.946046   3.769757   4.651798
    15  C    4.820396   4.520936   3.078318   4.497374   5.469031
    16  C    5.828226   5.350767   4.108776   5.702242   6.637748
    17  C    6.597231   5.763032   4.857995   6.251241   7.090528
    18  C    6.496883   5.432591   4.773698   5.757472   6.490629
    19  C    5.624486   4.635702   3.934954   4.577502   5.300747
    20  H    4.467619   4.587764   2.905691   4.405614   5.420014
    21  H    6.247159   5.967778   4.647542   6.419623   7.381083
    22  H    7.493714   6.622158   5.799889   7.276704   8.099494
    23  H    7.342432   6.109544   5.679687   6.512929   7.149303
    24  H    5.947434   4.828804   4.409805   4.575651   5.138984
    25  N    5.425076   5.746438   4.201880   4.483044   5.364469
    26  C    6.176774   6.814908   5.214308   5.434651   6.266170
    27  H    5.976118   6.055278   4.537669   5.006387   5.904665
    28  H    5.717522   6.583301   5.057157   5.072929   5.831833
    29  H    6.550452   7.254975   5.545387   6.109188   7.003454
    30  H    7.121105   7.680578   6.155257   6.165746   6.925558
                   11         12         13         14         15
    11  H    0.000000
    12  H    3.037919   0.000000
    13  Br   2.899286   2.514108   0.000000
    14  C    3.899967   2.639720   4.191993   0.000000
    15  C    4.527230   3.872428   5.430653   1.409379   0.000000
    16  C    5.843105   4.818551   6.627077   2.442575   1.391991
    17  C    6.546784   4.856947   6.845568   2.833690   2.419845
    18  C    6.138880   3.946486   5.922884   2.442981   2.778839
    19  C    4.909217   2.722131   4.544613   1.407275   2.403771
    20  H    4.245801   4.364393   5.627775   2.165003   1.092764
    21  H    6.497988   5.799164   7.564708   3.425912   2.151677
    22  H    7.602898   5.855390   7.901755   3.925685   3.410627
    23  H    6.972692   4.470417   6.433765   3.425810   3.871470
    24  H    4.963485   2.365863   3.981095   2.161094   3.397670
    25  N    3.877229   4.527503   4.460950   2.968649   3.108075
    26  C    4.643851   5.854487   5.443960   4.373280   4.289830
    27  H    4.560311   4.579039   4.804933   2.622726   2.730435
    28  H    4.164572   5.927100   5.309979   4.825036   4.796818
    29  H    5.362521   6.537934   6.417159   4.726493   4.309510
    30  H    5.363022   6.404037   5.684410   5.024300   5.090113
                   16         17         18         19         20
    16  C    0.000000
    17  C    1.395232   0.000000
    18  C    2.403807   1.393684   0.000000
    19  C    2.777211   2.418815   1.393329   0.000000
    20  H    2.150065   3.404237   3.871443   3.398899   0.000000
    21  H    1.092774   2.159961   3.397440   3.869948   2.465619
    22  H    2.164104   1.091995   2.163094   3.410292   4.305017
    23  H    3.397846   2.158943   1.092700   2.153065   4.964118
    24  H    3.869463   3.403773   2.152508   1.092976   4.307707
    25  N    4.314463   5.198594   5.118446   4.140970   2.739465
    26  C    5.402441   6.409654   6.469973   5.562769   3.681246
    27  H    3.748287   4.505618   4.438413   3.604565   2.642939
    28  H    6.015075   7.076657   7.102807   6.096891   4.073034
    29  H    5.241245   6.361137   6.651745   5.933637   3.581274
    30  H    6.142615   7.024966   6.982954   6.062969   4.619844
                   21         22         23         24         25
    21  H    0.000000
    22  H    2.495011   0.000000
    23  H    4.305670   2.494691   0.000000
    24  H    4.962158   4.305744   2.469198   0.000000
    25  N    4.831533   6.190866   6.070746   4.552069   0.000000
    26  C    5.711641   7.336658   7.431184   5.978782   1.439675
    27  H    4.317082   5.454891   5.354572   4.083084   1.011198
    28  H    6.316665   8.042857   8.085537   6.461244   2.059017
    29  H    5.343950   7.192254   7.648430   6.507007   2.106837
    30  H    6.499139   7.932217   7.864881   6.356298   2.113561
                   26         27         28         29         30
    26  C    0.000000
    27  H    2.124554   0.000000
    28  H    1.096867   2.975318   0.000000
    29  H    1.101678   2.508804   1.791268   0.000000
    30  H    1.102308   2.554663   1.782192   1.788560   0.000000
 Stoichiometry    C11H15BrN2O
 Framework group  C1[X(C11H15BrN2O)]
 Deg. of freedom    84
 Full point group                 C1      NOp   1
 Largest Abelian subgroup         C1      NOp   1
 Largest concise Abelian subgroup C1      NOp   1
                         Standard orientation:                         
 ---------------------------------------------------------------------
 Center     Atomic      Atomic             Coordinates (Angstroms)
 Number     Number       Type             X           Y           Z
 ---------------------------------------------------------------------
      1          6           0        0.108232    0.096387   -0.095539
      2          6           0       -0.328131    1.500331    0.014862
      3          8           0       -1.338862    1.820308    0.651800
      4          6           0       -0.848893   -0.888322    0.068319
      5          6           0       -0.574695   -0.851988    2.893159
      6          1           0       -0.841944   -0.385113    3.854547
      7          1           0       -0.370378   -1.919003    3.060134
      8          1           0        0.346845   -0.376695    2.522268
      9          7           0       -1.598791   -0.686759    1.883595
     10          1           0       -2.445403   -1.229855    2.041863
     11          1           0       -1.826452    0.306731    1.711781
     12          1           0       -0.512971   -1.925954    0.124695
     13         35           0       -2.563806   -0.842830   -0.845694
     14          6           0        1.536342   -0.288673   -0.171528
     15          6           0        2.538071    0.426605    0.514961
     16          6           0        3.873916    0.039683    0.456248
     17          6           0        4.253770   -1.085118   -0.276695
     18          6           0        3.278881   -1.807130   -0.962731
     19          6           0        1.945103   -1.406105   -0.922982
     20          1           0        2.258504    1.297409    1.113020
     21          1           0        4.625313    0.615328    1.002317
     22          1           0        5.301171   -1.391294   -0.317443
     23          1           0        3.560746   -2.681676   -1.554097
     24          1           0        1.201247   -1.955486   -1.505609
     25          7           0        0.446138    2.440011   -0.594157
     26          6           0        0.173487    3.851877   -0.523735
     27          1           0        1.209674    2.113886   -1.171372
     28          1           0       -0.646237    3.999288    0.190016
     29          1           0        1.056773    4.413420   -0.179977
     30          1           0       -0.140691    4.257540   -1.499344
 ---------------------------------------------------------------------
 Rotational constants (GHZ):           0.5735206           0.3056113           0.2601469
 Standard basis: STO-3G (5D, 7F)
 There are   104 symmetry adapted cartesian basis functions of A   symmetry.
 There are   103 symmetry adapted basis functions of A   symmetry.
   103 basis functions,   312 primitive gaussians,   104 cartesian basis functions
    69 alpha electrons       69 beta electrons
       nuclear repulsion energy      1352.7388940084 Hartrees.
 NAtoms=   30 NActive=   30 NUniq=   30 SFac= 1.00D+00 NAtFMM=   60 NAOKFM=F Big=F
 Integral buffers will be    131072 words long.
 Raffenetti 1 integral format.
 Two-electron integral symmetry is turned on.
 External calculation of energy, first and second derivatives.
 Running external command "~/scripts/MiMe -H 'hf def2svp' -EF 'wb97xd def2svp' -c 12 -m 48GB R"
         input file       "/local/jobs/1158198/Gau-3860710.EIn"
         output file      "/local/jobs/1158198/Gau-3860710.EOu"
         message file     "/local/jobs/1158198/Gau-3860710.EMs"
         fchk file        "/local/jobs/1158198/Gau-3860710.EFC"
         mat. el file     "/local/jobs/1158198/Gau-3860710.EUF"
 Read checkpoint file Gau-3860710_H.chk type G16
 Write formatted file Gau-3860710_H.fchk

deriv: 2

spelevel: wb97xd def2svp
gradlevel: wb97xd def2svp
hesslevel: hf def2svp

runspe: False
runforce: True
runfreq: True

Running Gaussian ...

Parsing files ...
SPE file: Gau-3860710_F.out
FORCE file: Gau-3860710_F.out
HESS file: Gau-3860710_H.out

 ExternalExternalExternalExternalExternalExternalExternalExternalExternalExternal
 Output from external command:
 "~/scripts/MiMe -H 'hf def2svp' -EF 'wb97xd def2svp' -c 12 -m 48GB R /local/jobs/1158198/Gau-3860710.EIn /local/jobs/1158198/Gau-3860710.EOu /local/jobs/1158198/Gau-3860710.EMs /local/jobs/1158198/Gau-3860710.EFC /local/jobs/1158198/Gau-3860710.EUF"
  
 --------------------------------------------------
 Force calculation at wb97xd def2svp
 Hessian calculation at hf def2svp
 ExternalExternalExternalExternalExternalExternalExternalExternalExternalExternal

 Recovered energy= -3186.16161538     dipole=      1.245300000000     -0.916900000000      2.148400000000
 Energy=    -3186.16162     NIter=   0.
 Dipole moment=       1.245300      -0.916900       2.148400
 ***** Axes restored to original set *****
 -------------------------------------------------------------------
 Center     Atomic                   Forces (Hartrees/Bohr)
 Number     Number              X              Y              Z
 -------------------------------------------------------------------
      1        6           0.000000230    0.000000766    0.000000136
      2        6           0.000001156   -0.000000918   -0.000002414
      3        8           0.000000327    0.000000534    0.000001837
      4        6           0.000000057    0.000000061   -0.000000121
      5        6          -0.000000737    0.000000586   -0.000000481
      6        1          -0.000000967    0.000000515   -0.000000086
      7        1          -0.000001340    0.000000537   -0.000000499
      8        1          -0.000000626    0.000000454    0.000000666
      9        7          -0.000000702    0.000000102   -0.000001002
     10        1          -0.000001254    0.000001372   -0.000001162
     11        1           0.000000654    0.000001605    0.000000091
     12        1          -0.000000755    0.000000131   -0.000000235
     13       35           0.000000079    0.000000687   -0.000000714
     14        6          -0.000000471   -0.000000874   -0.000000352
     15        6           0.000000556   -0.000000637    0.000000911
     16        6          -0.000000418   -0.000000239    0.000001103
     17        6          -0.000000280   -0.000001445    0.000000472
     18        6           0.000000428   -0.000000580    0.000001119
     19        6          -0.000000073   -0.000000239    0.000000479
     20        1           0.000000043    0.000000082   -0.000000228
     21        1          -0.000000120   -0.000000706    0.000001024
     22        1          -0.000000133   -0.000001163    0.000001793
     23        1          -0.000000037   -0.000000917    0.000001344
     24        1           0.000000057   -0.000000217    0.000000366
     25        7           0.000001673   -0.000000726    0.000001386
     26        6           0.000000550   -0.000000483   -0.000000952
     27        1          -0.000001291    0.000000532   -0.000002728
     28        1           0.000007439    0.000002043    0.000006042
     29        1           0.000003557    0.000001346   -0.000008991
     30        1          -0.000007602   -0.000002208    0.000001194
 -------------------------------------------------------------------
 Cartesian Forces:  Max     0.000008991 RMS     0.000001880
 FormGI is forming the generalized inverse of G from B-inverse, IUseBI=4.

 GradGradGradGradGradGradGradGradGradGradGradGradGradGradGradGradGradGrad
 Berny optimization.
 Internal  Forces:  Max     0.000014062 RMS     0.000003478
 Search for a saddle point.
 Step number   2 out of a maximum of   50
 All quantities printed in internal units (Hartrees-Bohrs-Radians)
 Swapping is turned off.
 Second derivative matrix not updated -- analytic derivatives used.
 ITU=  0  0
     Eigenvalues ---   -0.05365   0.00298   0.00516   0.00568   0.00633
     Eigenvalues ---    0.01373   0.01430   0.01914   0.02272   0.02332
     Eigenvalues ---    0.02394   0.02407   0.02642   0.02869   0.03016
     Eigenvalues ---    0.03129   0.03352   0.03414   0.03602   0.03735
     Eigenvalues ---    0.04086   0.04503   0.05393   0.05542   0.05790
     Eigenvalues ---    0.06028   0.06499   0.06775   0.07347   0.07696
     Eigenvalues ---    0.08459   0.09153   0.11502   0.12930   0.13917
     Eigenvalues ---    0.14251   0.14512   0.14735   0.14940   0.15282
     Eigenvalues ---    0.15674   0.15811   0.16777   0.20159   0.20665
     Eigenvalues ---    0.20977   0.21316   0.21567   0.21612   0.21952
     Eigenvalues ---    0.22266   0.22598   0.23875   0.24455   0.25178
     Eigenvalues ---    0.29593   0.34326   0.34688   0.34843   0.35010
     Eigenvalues ---    0.35486   0.35605   0.36229   0.36809   0.37326
     Eigenvalues ---    0.37412   0.37468   0.37614   0.37693   0.38253
     Eigenvalues ---    0.40867   0.41195   0.43035   0.45602   0.46971
     Eigenvalues ---    0.47172   0.48257   0.49106   0.50212   0.51483
     Eigenvalues ---    0.52127   0.53521   0.55715   0.77108
 Eigenvectors required to have negative eigenvalues:
                          R7        R6        D10       D7        R2
   1                    0.84832   0.21255  -0.18910  -0.18495  -0.12791
                          R9        A22       A12       A7        D1
   1                   -0.11526  -0.10136  -0.09083   0.08754   0.08618
 RFO step:  Lambda0=4.130931708D-13 Lambda=-7.45283874D-08.
 Linear search not attempted -- option 19 set.
 Iteration  1 RMS(Cart)=  0.00036784 RMS(Int)=  0.00000023
 Iteration  2 RMS(Cart)=  0.00000023 RMS(Int)=  0.00000000
 Variable       Old X    -DE/DX   Delta X   Delta X   Delta X     New X
                                 (Linear)    (Quad)   (Total)
    R1        2.78609   0.00000   0.00000   0.00000   0.00000   2.78609
    R2        2.61342   0.00000   0.00000   0.00000   0.00000   2.61342
    R3        2.79880   0.00000   0.00000  -0.00000  -0.00000   2.79880
    R4        2.33720   0.00000   0.00000   0.00000   0.00000   2.33720
    R5        2.57266   0.00000   0.00000  -0.00000  -0.00000   2.57266
    R6        3.61141  -0.00000   0.00000  -0.00003  -0.00003   3.61139
    R7        3.73105   0.00000   0.00000  -0.00000  -0.00000   3.73105
    R8        2.06379  -0.00000   0.00000  -0.00000  -0.00000   2.06378
    R9        3.67328   0.00000   0.00000   0.00000   0.00000   3.67328
   R10        2.08184  -0.00000   0.00000   0.00000   0.00000   2.08184
   R11        2.07711  -0.00000   0.00000  -0.00000  -0.00000   2.07711
   R12        2.08102  -0.00000   0.00000  -0.00000  -0.00000   2.08102
   R13        2.73540  -0.00000   0.00000   0.00000   0.00000   2.73540
   R14        1.92414   0.00000   0.00000   0.00000   0.00000   1.92414
   R15        1.95326  -0.00000   0.00000   0.00000   0.00000   1.95326
   R16        2.66334   0.00000   0.00000   0.00000   0.00000   2.66334
   R17        2.65936   0.00000   0.00000  -0.00000  -0.00000   2.65936
   R18        2.63048  -0.00000   0.00000  -0.00000  -0.00000   2.63048
   R19        2.06502   0.00000   0.00000  -0.00000  -0.00000   2.06502
   R20        2.63661  -0.00000   0.00000   0.00000   0.00000   2.63661
   R21        2.06504   0.00000   0.00000   0.00000   0.00000   2.06504
   R22        2.63368   0.00000   0.00000  -0.00000  -0.00000   2.63368
   R23        2.06357   0.00000   0.00000   0.00000   0.00000   2.06357
   R24        2.63301   0.00000   0.00000   0.00000   0.00000   2.63301
   R25        2.06490  -0.00000   0.00000  -0.00000  -0.00000   2.06490
   R26        2.06542  -0.00000   0.00000  -0.00000  -0.00000   2.06542
   R27        2.72059   0.00000   0.00000   0.00000   0.00000   2.72059
   R28        1.91089  -0.00000   0.00000   0.00000   0.00000   1.91089
   R29        2.07278  -0.00000   0.00000   0.00000   0.00000   2.07278
   R30        2.08187   0.00000   0.00000  -0.00002  -0.00002   2.08185
   R31        2.08306  -0.00000   0.00000   0.00001   0.00001   2.08307
    A1        2.05367  -0.00000   0.00000  -0.00001  -0.00001   2.05366
    A2        2.13745  -0.00000   0.00000  -0.00000  -0.00000   2.13745
    A3        2.08094   0.00000   0.00000   0.00000   0.00000   2.08094
    A4        2.12563  -0.00000   0.00000   0.00001   0.00001   2.12564
    A5        2.04368   0.00000   0.00000   0.00001   0.00001   2.04368
    A6        2.11366  -0.00000   0.00000  -0.00001  -0.00001   2.11364
    A7        1.86423   0.00000   0.00000   0.00000   0.00000   1.86423
    A8        1.87455   0.00000   0.00000   0.00000   0.00000   1.87456
    A9        2.05980   0.00000   0.00000   0.00000   0.00000   2.05981
   A10        2.13910  -0.00000   0.00000  -0.00001  -0.00001   2.13910
   A11        1.73794  -0.00000   0.00000  -0.00001  -0.00001   1.73793
   A12        1.66579   0.00000   0.00000   0.00000   0.00000   1.66579
   A13        1.89429   0.00000   0.00000   0.00000   0.00000   1.89429
   A14        1.90067   0.00000   0.00000   0.00000   0.00000   1.90067
   A15        1.89021   0.00000   0.00000  -0.00000  -0.00000   1.89021
   A16        1.96995  -0.00000   0.00000  -0.00000  -0.00000   1.96995
   A17        1.89082   0.00000   0.00000   0.00000   0.00000   1.89082
   A18        1.92652  -0.00000   0.00000  -0.00000  -0.00000   1.92652
   A19        1.88376   0.00000   0.00000   0.00000   0.00000   1.88376
   A20        1.94000  -0.00000   0.00000  -0.00000  -0.00000   1.94000
   A21        1.98697  -0.00000   0.00000   0.00000   0.00000   1.98697
   A22        1.59975   0.00000   0.00000   0.00000   0.00000   1.59975
   A23        2.00310  -0.00000   0.00000  -0.00000  -0.00000   2.00309
   A24        1.96219  -0.00000   0.00000   0.00000   0.00000   1.96219
   A25        1.93411   0.00000   0.00000   0.00000   0.00000   1.93411
   A26        2.49353  -0.00000   0.00000   0.00002   0.00002   2.49355
   A27        2.12752  -0.00001   0.00000  -0.00000  -0.00000   2.12752
   A28        2.11054   0.00001   0.00000   0.00000   0.00000   2.11054
   A29        2.04500  -0.00000   0.00000  -0.00000  -0.00000   2.04500
   A30        2.11820   0.00000   0.00000  -0.00000  -0.00000   2.11820
   A31        2.08193  -0.00000   0.00000  -0.00000  -0.00000   2.08193
   A32        2.08300  -0.00000   0.00000   0.00000   0.00000   2.08301
   A33        2.10309  -0.00000   0.00000   0.00000   0.00000   2.10309
   A34        2.08561  -0.00000   0.00000  -0.00000  -0.00000   2.08561
   A35        2.09437   0.00000   0.00000  -0.00000  -0.00000   2.09437
   A36        2.07807  -0.00000   0.00000  -0.00000  -0.00000   2.07806
   A37        2.10223  -0.00000   0.00000  -0.00000  -0.00000   2.10223
   A38        2.10286   0.00000   0.00000   0.00000   0.00000   2.10287
   A39        2.10187   0.00000   0.00000   0.00000   0.00000   2.10187
   A40        2.09508  -0.00000   0.00000  -0.00000  -0.00000   2.09508
   A41        2.08601   0.00000   0.00000  -0.00000  -0.00000   2.08601
   A42        2.11978  -0.00000   0.00000   0.00000   0.00000   2.11978
   A43        2.07840   0.00000   0.00000   0.00000   0.00000   2.07840
   A44        2.08474   0.00000   0.00000  -0.00000  -0.00000   2.08474
   A45        2.14994   0.00000   0.00000  -0.00002  -0.00002   2.14992
   A46        2.05125  -0.00000   0.00000   0.00000   0.00000   2.05126
   A47        2.07968  -0.00000   0.00000  -0.00000  -0.00000   2.07968
   A48        1.88090   0.00000   0.00000   0.00003   0.00003   1.88093
   A49        1.94260   0.00000   0.00000  -0.00007  -0.00007   1.94253
   A50        1.95152  -0.00000   0.00000   0.00006   0.00006   1.95157
   A51        1.90460  -0.00000   0.00000   0.00003   0.00003   1.90462
   A52        1.88963  -0.00000   0.00000  -0.00004  -0.00004   1.88959
   A53        1.89347  -0.00000   0.00000   0.00001   0.00001   1.89348
    D1        0.42124   0.00001   0.00000   0.00006   0.00006   0.42130
    D2       -2.74280   0.00001   0.00000   0.00003   0.00003  -2.74276
    D3       -2.55915   0.00001   0.00000   0.00008   0.00008  -2.55907
    D4        0.56000   0.00001   0.00000   0.00006   0.00006   0.56006
    D5       -1.05429  -0.00000   0.00000  -0.00000  -0.00000  -1.05429
    D6       -2.99795  -0.00000   0.00000  -0.00000  -0.00000  -2.99795
    D7        0.84023   0.00000   0.00000  -0.00000  -0.00000   0.84023
    D8        1.93150  -0.00000   0.00000  -0.00003  -0.00003   1.93147
    D9       -0.01216  -0.00000   0.00000  -0.00003  -0.00003  -0.01219
   D10       -2.45716  -0.00000   0.00000  -0.00003  -0.00003  -2.45719
   D11        0.59538   0.00000   0.00000  -0.00006  -0.00006   0.59532
   D12       -2.56363  -0.00000   0.00000  -0.00007  -0.00007  -2.56370
   D13       -2.38259   0.00000   0.00000  -0.00003  -0.00003  -2.38262
   D14        0.74158   0.00000   0.00000  -0.00004  -0.00004   0.74154
   D15        0.24420  -0.00001   0.00000  -0.00005  -0.00005   0.24415
   D16       -2.87405  -0.00001   0.00000  -0.00003  -0.00003  -2.87408
   D17       -3.09581   0.00000   0.00000  -0.00014  -0.00014  -3.09595
   D18        0.11940   0.00001   0.00000   0.00024   0.00024   0.11964
   D19        0.02350   0.00001   0.00000  -0.00016  -0.00016   0.02334
   D20       -3.04448   0.00001   0.00000   0.00021   0.00021  -3.04426
   D21       -0.12035   0.00000   0.00000   0.00000   0.00000  -0.12035
   D22       -1.06179  -0.00000   0.00000  -0.00004  -0.00004  -1.06182
   D23        2.92687  -0.00000   0.00000  -0.00003  -0.00003   2.92684
   D24        0.94292  -0.00000   0.00000  -0.00003  -0.00003   0.94288
   D25        1.09392  -0.00000   0.00000  -0.00003  -0.00003   1.09389
   D26       -1.20060  -0.00000   0.00000  -0.00003  -0.00003  -1.20063
   D27        3.09863  -0.00000   0.00000  -0.00003  -0.00003   3.09860
   D28        3.01153  -0.00000   0.00000  -0.00003  -0.00003   3.01150
   D29        0.71701  -0.00000   0.00000  -0.00003  -0.00003   0.71698
   D30       -1.26695  -0.00000   0.00000  -0.00003  -0.00003  -1.26698
   D31        2.76000   0.00000   0.00000   0.00003   0.00003   2.76003
   D32       -1.23697   0.00000   0.00000   0.00003   0.00003  -1.23694
   D33        0.99471   0.00000   0.00000   0.00003   0.00003   0.99474
   D34       -1.39172   0.00000   0.00000   0.00003   0.00003  -1.39169
   D35        0.89449  -0.00000   0.00000   0.00003   0.00003   0.89452
   D36        3.12617  -0.00000   0.00000   0.00003   0.00003   3.12620
   D37        0.67173   0.00000   0.00000   0.00003   0.00003   0.67176
   D38        2.95794  -0.00000   0.00000   0.00003   0.00003   2.95797
   D39       -1.09356  -0.00000   0.00000   0.00003   0.00003  -1.09354
   D40       -0.42752   0.00000   0.00000   0.00004   0.00004  -0.42748
   D41        1.55754   0.00000   0.00000   0.00004   0.00004   1.55758
   D42       -2.45802   0.00000   0.00000   0.00003   0.00003  -2.45799
   D43        3.11992  -0.00000   0.00000  -0.00002  -0.00002   3.11990
   D44       -0.01166  -0.00000   0.00000  -0.00003  -0.00003  -0.01169
   D45       -0.00488  -0.00000   0.00000  -0.00001  -0.00001  -0.00489
   D46       -3.13646   0.00000   0.00000  -0.00002  -0.00002  -3.13647
   D47       -3.10015   0.00000   0.00000   0.00002   0.00002  -3.10013
   D48        0.06649   0.00000   0.00000   0.00001   0.00001   0.06651
   D49        0.02482   0.00000   0.00000   0.00001   0.00001   0.02483
[...]
 0026976,-0.00001690,-0.00010870,-0.00243725,0.00014555,0.00004769,-0.0
 0008148,0.00002811,-0.00003181,0.00001339,0.00000336,0.00001057,0.0000
 3397,-0.00003822,-0.00002799,-0.00003010,0.00001424,0.00032110,0.00048
 102,-0.00060108,0.00005390,-0.00004735,-0.00011960,-0.00005280,0.00000
 874,0.00011763,0.00070916,0.00033863,-0.00060421,-0.00007622,0.0001515
 0,-0.00010973,-0.01483574,-0.00691795,-0.00366806,0.00177014,-0.005564
 79,0.00335333,0.00022361,0.00070311,-0.00034121,-0.00027069,-0.0035553
 3,0.00526435,0.00363603,0.00013698,0.00534997,-0.10584908,-0.08719177,
 -0.13707367,-0.00068360,-0.00036075,-0.00039751,0.00005871,0.00042441,
 -0.00058060,0.00012077,-0.00001728,0.00007892,0.00044249,0.00270760,-0
 .00269745,0.11295817,0.09769408,0.13360525,0.01735495,-0.00658561,0.00
 008847,-0.17740952,-0.06887509,0.08316672,-0.06448415,-0.03288070,0.06
 469596,0.00041547,0.00551773,-0.00039292,-0.00115002,-0.00014390,-0.00
 086387,0.00011348,0.00008936,0.00007834,0.00019677,-0.00021043,0.00024
 258,-0.00008974,0.00013069,-0.00004876,0.00018252,-0.00252982,0.000802
 25,0.00023745,-0.00040300,0.00022949,0.00120605,0.00519040,-0.00290689
 ,0.00063624,0.00050838,-0.00034036,-0.00016963,-0.00032427,-0.00001655
 ,-0.00523114,0.00100289,0.00188370,-0.00173511,0.00192423,-0.00486823,
 0.00186828,0.00015895,-0.00052568,0.00099969,0.00118000,0.00140165,-0.
 00223970,0.00039377,-0.00007776,0.00207846,-0.00217848,-0.00107752,-0.
 00095115,0.00157778,0.00238260,0.00016834,-0.00002740,-0.00006584,-0.0
 0006688,0.00010399,0.00016115,0.00002120,0.00001679,0.00002112,0.00003
 278,0.00031310,0.00020462,0.61451574,-0.02931173,-0.05292621,0.0214000
 1,-0.05758993,-0.27929115,0.05337593,-0.02046154,0.03111783,0.01680788
 ,0.01999804,-0.00079282,-0.00721242,-0.00195882,0.00031971,-0.00138193
 ,0.00032414,0.00000974,0.00055463,0.00015975,-0.00023241,0.00016123,0.
 00006056,-0.00008130,-0.00042507,-0.00403997,-0.00047065,0.00679439,0.
 00016844,0.00018106,0.00088795,0.00108784,0.00051295,-0.00118657,-0.00
 211012,-0.00147664,-0.00046651,-0.00322001,0.00039664,0.00003072,-0.00
 694773,-0.00081411,0.00239149,0.00414056,-0.00093984,-0.00046818,-0.00
 142981,0.00068135,0.00064677,0.00095185,-0.00112778,-0.00070835,0.0005
 2765,0.00056871,0.00069167,0.00046390,-0.00049813,-0.00026042,0.000638
 60,-0.00057599,0.00086725,0.00031414,-0.00006799,0.00024704,0.00013525
 ,0.00003780,-0.00005545,0.00011678,-0.00011550,-0.00004801,-0.00007106
 ,0.00036111,0.00025582,-0.04820467,0.79674939,0.00342670,0.00590397,0.
 01373882,0.08801638,0.07449131,-0.13244351,0.06064403,0.01954151,-0.02
 229035,-0.00121221,-0.00244372,0.00199904,0.00042918,0.00007881,0.0006
 8385,-0.00006435,-0.00008514,-0.00004579,-0.00010609,0.00017326,-0.000
 14284,0.00004871,-0.00013321,-0.00001977,0.00014413,0.00126273,-0.0006
 4055,-0.00018011,0.00006314,-0.00016374,-0.00067441,-0.00317676,0.0020
 2907,0.00008819,-0.00032777,-0.00083792,0.00001514,0.00037771,0.000283
 84,-0.00066152,0.00033649,-0.00110077,-0.00192554,-0.00025384,-0.00192
 959,0.00073438,0.00054442,-0.00019034,-0.00000948,0.00036589,0.0004972
 2,-0.00063884,0.00020639,-0.00002956,0.00014349,-0.00059919,0.00019656
 ,-0.00045894,0.00126684,0.00112242,-0.00000959,0.00002371,-0.00013052,
 -0.00008192,0.00005587,0.00011402,-0.00002372,0.00008181,-0.00000925,0
 .00010719,0.00014902,-0.00008967,-0.38957368,-0.02457529,0.38713564,-0
 .00125660,-0.00460393,0.00491473,0.01647699,-0.01819842,-0.01404660,-0
 .00413510,0.00117798,0.00107624,0.00289838,0.00012803,-0.00037694,-0.0
 0015970,0.00003850,-0.00015977,0.00004164,-0.00000379,0.00007092,0.000
 01249,-0.00001764,0.00001622,0.00001087,-0.00000379,-0.00005035,-0.000
 66913,-0.00001368,0.00097532,0.00000425,0.00004493,0.00012545,0.000114
 19,-0.00012546,-0.00011158,-0.00017754,-0.00024091,-0.00042134,-0.0007
 0029,0.00006514,-0.00001761,-0.00074158,0.00020538,0.00007945,-0.00014
 320,0.00051057,0.00004679,0.00026641,-0.00021931,-0.00018502,0.0001362
 6,0.00019751,0.00020211,-0.00034695,-0.00003340,-0.00007289,0.00041417
 ,-0.00039890,-0.00037040,-0.00005428,0.00016244,-0.00014989,-0.0000356
 8,0.00001833,-0.00000740,0.00001600,-0.00000403,-0.00000647,0.00000417
 ,-0.00002273,-0.00000658,0.00000042,0.00000427,0.00001950,-0.11882681,
 0.03183979,0.03488586,0.64633464,0.00099473,0.00688817,-0.00043120,-0.
 01477810,-0.03895236,0.01436950,0.01067013,-0.00334661,-0.00872026,-0.
 00476983,-0.00200797,0.00288760,0.00058541,-0.00010076,0.00058259,-0.0
 0008968,-0.00002177,-0.00021809,-0.00006738,0.00010011,-0.00007546,-0.
 00000586,-0.00003863,0.00015248,0.00138218,0.00054106,-0.00248765,-0.0
 0008486,-0.00004076,-0.00026958,-0.00047025,-0.00078968,0.00075459,0.0
 0024371,0.00013180,-0.00004358,0.00083506,0.00005411,-0.00006168,0.000
 98667,0.00034517,-0.00031976,-0.00101495,0.00018023,-0.00078471,0.0010
 1046,-0.00009259,-0.00008363,-0.00017613,0.00055745,0.00047983,-0.0005
 9326,-0.00013539,-0.00017317,0.00014940,-0.00027408,-0.00041310,0.0002
 3348,0.00021582,0.00084615,-0.00014121,0.00001190,-0.00012372,-0.00010
 139,0.00005360,0.00004587,-0.00005892,0.00007091,0.00004060,0.00004502
 ,-0.00006433,-0.00001628,0.03649959,-0.28104701,-0.00654072,0.02111582
 ,0.58245680,0.00499794,0.00057272,0.00334783,-0.01729655,0.01529809,0.
 00597060,0.00178029,-0.00324098,-0.00373662,0.00000957,0.00168482,0.00
 085436,0.00007581,0.00000870,0.00004143,0.00000146,0.00001108,-0.00003
 486,-0.00000529,-0.00000107,-0.00001165,-0.00000161,0.00000292,0.00001
 808,-0.00023327,-0.00017273,0.00009500,-0.00002683,0.00004397,0.000067
 15,-0.00004497,-0.00007977,0.00010088,0.00035456,0.00020055,-0.0005046
 6,-0.00040240,-0.00004668,-0.00007017,0.00048214,-0.00044427,-0.000090
 92,-0.00041714,0.00001876,0.00007851,0.00001277,-0.00010282,-0.0000316
 3,-0.00007960,0.00006091,0.00003904,-0.00003018,-0.00002856,-0.0000480
 0,-0.00006972,0.00009143,0.00000894,-0.00008206,0.00022609,-0.00019596
 ,-0.00004376,0.00003065,-0.00003317,0.00000650,-0.00001226,-0.00000135
 ,-0.00000551,-0.00001280,-0.00000251,0.00000104,-0.00004388,-0.0000289
 4,0.03472348,0.00112365,-0.09446999,-0.02420558,-0.01293475,0.63362161
 ,-0.00002965,0.00321670,-0.00261443,-0.01714460,0.00727421,0.00845916,
 0.00223782,-0.00280321,0.00410435,-0.00198829,-0.00071382,0.00114505,0
 .00032946,-0.00005516,0.00013794,-0.00006858,-0.00000194,-0.00004994,-
 0.00000697,0.00003976,-0.00001847,-0.00001503,-0.00001762,0.00004793,0
 .00043716,-0.00000487,-0.00105784,-0.00000217,-0.00006648,-0.00007443,
 0.00004642,0.00019253,0.00002196,0.00007426,0.00007630,0.00014805,0.00
 022112,-0.00001653,-0.00014526,0.00233539,0.00047861,-0.00036141,-0.00
 062296,0.00034743,-0.00032842,-0.00055709,0.00014213,0.00014664,-0.000
 40472,-0.00015347,-0.00016662,0.00036925,-0.00009287,-0.00002680,-0.00
 034257,0.00042574,0.00023926,0.00001409,0.00019943,-0.00053310,-0.0000
 4855,0.00003337,-0.00005147,0.00001549,-0.00002862,-0.00001789,-0.0000
 0888,-0.00001817,-0.00000791,-0.00002080,-0.00012199,-0.00010592,-0.28
 046723,0.09390006,0.20192943,0.00145004,-0.00133024,-0.00204850,0.2934
 4104,-0.00035964,-0.00212183,-0.00008008,-0.01935881,0.02227728,0.0139
 2889,-0.00657312,-0.00524738,0.00548146,-0.00036707,-0.00003441,0.0001
 0402,-0.00005485,-0.00004218,-0.00009219,0.00001093,0.00001653,-0.0000
 2300,0.00001230,-0.00003397,0.00003600,-0.00003028,0.00005415,0.000016
 75,0.00035944,-0.00030237,-0.00030736,0.00003684,-0.00005802,-0.000047
 49,0.00012796,0.00083999,-0.00043377,-0.00002648,-0.00000895,0.0000741
 5,0.00017416,-0.00002793,-0.00000187,-0.00020797,-0.00150625,0.0014363
 0,0.00081433,-0.00017003,0.00099516,0.00032170,-0.00015755,-0.00009128
 ,-0.00007042,0.00019329,0.00020412,-0.00018104,-0.00018433,-0.00013388
 ,0.00040588,-0.00030674,-0.00060649,0.00006647,-0.00010359,-0.00017190
 ,-0.00008940,-0.00000791,-0.00003501,-0.00003057,0.00002825,-0.0000266
 9,-0.00002654,0.00002694,0.00001979,-0.00001067,-0.00000907,0.00006279
 ,0.09912054,-0.13353458,-0.06929961,0.02615313,-0.00177437,-0.02134428
 ,-0.10011097,0.12815349,-0.00110680,0.00071820,-0.00140356,0.00442647,
 -0.01091762,-0.01015854,0.00451822,0.00268962,0.00402759,0.00029547,-0
 .00039649,0.00008536,0.00012478,0.00002368,0.00003300,-0.00001723,-0.0
 0000067,-0.00000289,-0.00001562,-0.00000004,-0.00001640,0.00000025,-0.
 00000001,0.00000014,-0.00023972,-0.00000708,-0.00005081,-0.00001197,-0
 .00000694,0.00006127,0.00012480,-0.00009529,0.00019394,-0.00012835,-0.
 00002362,0.00012522,-0.00022254,0.00003994,-0.00014127,0.00058052,-0.0
 0007929,-0.00014015,0.00063775,0.00035987,0.00094088,-0.00125048,0.000
 32410,0.00046109,-0.00028592,-0.00087371,-0.00084531,0.00131309,-0.000
 14530,0.00002833,-0.00078019,0.00086667,0.00038544,-0.00013567,-0.0000
 6762,-0.00128736,-0.00000623,0.00002014,0.00004520,0.00005700,-0.00007
 545,-0.00004615,0.00002957,-0.00006560,-0.00000737,-0.00006926,-0.0001
 8390,-0.00006428,0.20565904,-0.06413604,-0.17061279,-0.00473115,0.0013
 5974,0.00144901,-0.20791511,0.06966008,0.17671338,-0.00000124,0.000484
 74,0.00007143,-0.00087491,-0.00145371,0.00199739,-0.00089538,-0.003972
 15,-0.00036178,-0.00029085,-0.00008609,0.00024184,0.00007765,-0.000008
 08,0.00005306,-0.00000056,0.00000290,-0.00002673,-0.00001336,-0.000001
 22,-0.00000799,-0.00001603,0.00001409,0.00001920,0.00006086,0.00000415
 ,-0.00020506,-0.00000273,-0.00001525,-0.00000652,0.00002802,-0.0000283
 9,0.00002527,0.00001215,0.00000766,-0.00001134,0.00001650,-0.00000061,
 -0.00002066,0.00010993,0.00005820,-0.00004000,-0.00004723,0.00007125,-
 0.00000067,0.00004432,-0.00002168,-0.00002660,-0.00000795,0.00002299,0
 .00001595,-0.00001907,-0.00001617,-0.00000406,-0.00001442,0.00000995,-
 0.00003061,-0.00002963,0.00001238,0.00004955,-0.00000851,-0.00000199,0
 .00000259,-0.00000439,-0.00000098,0.00000096,-0.00000422,0.00000258,0.
 00000351,0.00000336,-0.00000754,-0.00000510,-0.00595721,0.00474643,0.0
 0417498,-0.21546821,0.03063765,0.13583733,0.00091451,0.00067062,-0.000
 34697,0.22731007,-0.00037923,0.00026637,0.00044657,0.00586086,0.000630
 44,-0.00443713,-0.00326009,0.00086433,0.00245654,0.00004341,0.00003087
 ,-0.00008590,0.00003548,0.00000897,0.00006797,-0.00000172,-0.00001241,
 -0.00000187,-0.00000851,0.00001884,-0.00001457,0.00001643,-0.00001468,
 -0.00000691,-0.00009781,0.00014884,0.00002146,-0.00002839,0.00002429,0
 .00002159,-0.00010656,-0.00032246,0.00023117,0.00002397,0.00002662,-0.
 00002156,-0.00002353,0.00003809,0.00001710,0.00023978,0.00003236,-0.00
 005823,0.00002316,-0.00015472,0.00006946,-0.00014518,0.00005097,0.0000
 7750,-0.00005641,-0.00009439,-0.00009692,0.00015125,0.00000951,0.00003
 364,-0.00019990,0.00016917,0.00012027,0.00002127,0.00000222,-0.0000797
 5,0.00000201,0.00000161,0.00000198,0.00000190,-0.00000274,-0.00000410,
 -0.00000221,0.00000093,-0.00000009,0.00000320,-0.00000544,-0.00001801,
 0.03439507,-0.01129261,-0.02931692,0.01731312,-0.06385028,-0.01490893,
 -0.00080364,-0.00712554,0.00080916,-0.03268433,0.07479775,-0.00007668,
 -0.00024102,-0.00002493,0.00260604,0.00121779,0.00014169,-0.00068098,0
 .00330068,-0.00113587,0.00025402,0.00005338,-0.00001138,0.00001110,0.0
 0000873,0.00000612,0.00000412,0.00000831,-0.00001515,-0.00000542,-0.00
 001234,-0.00000634,-0.00001127,0.00000842,0.00000490,-0.00004555,-0.00
 000016,0.00001156,0.00000026,0.00000945,0.00001308,-0.00000093,0.00003
 148,0.00005524,-0.00002616,-0.00000806,-0.00000269,-0.00007993,-0.0000
 0139,-0.00003083,-0.00004262,-0.00006736,0.00004687,0.00000729,0.00001
 678,0.00000209,-0.00001772,-0.00000341,-0.00001536,0.00000820,-0.00001
 086,-0.00000571,0.00000791,0.00000837,-0.00000072,0.00000341,0.0000026
 4,0.00001541,-0.00002745,-0.00000584,0.00000791,0.00000422,-0.00000103
 ,0.00000589,0.00000293,-0.00000274,-0.00000015,0.00000225,-0.00000129,
 -0.00000250,-0.00000066,-0.00000085,0.00000156,0.00023037,-0.00276969,
 0.00020842,0.13652408,-0.02682946,-0.18355118,-0.00061811,0.00026826,0
 .00037741,-0.15025793,0.02588337,0.18997913,-0.00033503,-0.00035322,-0
 .00054212,-0.00177735,0.00190907,0.00100361,0.00098304,-0.00208874,0.0
 0016063,0.00021264,0.00009115,-0.00026054,-0.00008819,0.00000729,-0.00
 007872,0.00000507,0.00000205,0.00003166,0.00001453,-0.00000802,0.00001
 320,0.00000597,-0.00000008,-0.00001799,-0.00004587,-0.00006314,0.00023
 598,0.00001702,0.00000779,-0.00000097,0.00002343,0.00011604,-0.0001279
 6,-0.00001455,-0.00000604,0.00004702,0.00003975,-0.00002454,0.00004127
 ,-0.00002809,0.00000481,-0.00001744,0.00014771,-0.00017181,0.00013554,
 -0.00014051,0.00003483,0.00003614,0.00001294,-0.00007079,-0.00006867,0
 .00008434,0.00001271,0.00003023,-0.00001454,0.00005389,0.00005755,0.00
 002566,-0.00007548,-0.00013804,0.00002425,-0.00000447,0.00001603,0.000
 00981,-0.00000233,-0.00000651,0.00000581,-0.00000522,-0.00000216,-0.00
 000641,0.00001377,0.00000805,0.01583470,0.00732503,0.00436420,-0.24101
 925,-0.10390208,-0.06647642,0.00015496,-0.00094389,0.00025219,-0.01669
 572,-0.01104830,-0.01115945,0.24928686,-0.00044017,-0.00260518,0.00171
 333,0.00509946,0.00084969,-0.00892884,-0.00205383,0.00089847,0.0013039
 0,0.00186755,0.00038501,-0.00070526,-0.00022463,0.00003064,-0.00016310
 ,0.00003301,0.00000149,0.00006582,0.00002271,-0.00002305,0.00002209,0.
 00000732,-0.00000148,-0.00005442,-0.00042920,-0.00011769,0.00079985,0.
 00001664,0.00001916,0.00009224,0.00011427,0.00012834,-0.00017418,-0.00
 010584,-0.00010415,-0.00012637,-0.00035131,0.00001422,0.00002929,-0.00
 081672,0.00005357,0.00011386,0.00035138,-0.00001075,-0.00008504,-0.000
 12326,0.00004441,-0.00000060,0.00014513,-0.00007244,-0.00003293,-0.000
 01335,0.00006927,0.00005057,0.00014684,-0.00011696,-0.00000652,-0.0000
 7621,-0.00010656,0.00001410,0.00005879,-0.00001816,0.00003596,0.000014
 58,0.00000163,-0.00000208,0.00001591,-0.00001052,-0.00000416,-0.000002
 46,0.00004972,0.00002631,-0.03221419,-0.03450468,-0.00429188,-0.097385
 81,-0.11506266,-0.03743018,0.00009493,0.00067656,0.00011353,0.00425927
 ,0.00345153,0.00338773,0.11285073,0.13860490,-0.00002815,-0.00022434,0
 .00014859,0.00225812,0.00113633,-0.00162529,-0.00087900,0.00144072,0.0
 0000668,0.00010380,0.00006160,-0.00010692,-0.00000471,0.00000920,0.000
 00255,0.00000754,0.00000129,-0.00000152,-0.00000385,-0.00000681,-0.000
 00187,-0.00000345,0.00001051,0.00000159,-0.00004590,-0.00001000,0.0000
 5465,-0.00000442,0.00000425,0.00001345,0.00000808,-0.00001685,0.000029
 86,-0.00000203,0.00000285,0.00000628,-0.00001722,0.00000355,0.00001344
 ,-0.00002979,0.00000873,0.00001448,0.00004546,0.00005672,0.00007977,-0
 .00002472,-0.00002040,-0.00002618,0.00002649,-0.00001770,-0.00002226,0
 .00001777,0.00000167,0.00000039,-0.00000739,0.00000529,-0.00000573,-0.
 00002035,-0.00000719,-0.00005878,0.00000501,-0.00000462,0.00002357,0.0
 0000562,-0.00000637,-0.00000283,0.00000097,-0.00000338,0.00000024,-0.0
 0000408,-0.00000093,0.00000530,0.00200450,-0.00325944,0.00422848,-0.06
 752452,-0.03799383,-0.08861211,-0.00043551,-0.00041696,-0.00021120,0.0
 1776782,0.01245844,0.01151194,0.07443822,0.04184154,0.08254795,0.00028
 379,0.00047809,0.00011295,-0.00268202,-0.00128684,0.00192999,0.0006310
 5,-0.00080651,-0.00150841,-0.00024525,-0.00003352,0.00020584,0.0000355
 1,-0.00000730,0.00003492,-0.00000725,-0.00000067,-0.00001272,-0.000003
 47,0.00000670,-0.00000501,-0.00000104,-0.00000288,0.00000713,0.0000501
 3,-0.00000823,-0.00013331,-0.00000498,-0.00000731,-0.00000244,-0.00000
 843,-0.00004315,0.00004433,0.00001766,0.00000707,-0.00001561,0.0000095
 3,-0.00000258,-0.00001503,0.00013274,-0.00001775,-0.00003236,-0.000047
 47,-0.00006782,-0.00002165,0.00002667,-0.00000814,-0.00000578,-0.00001
 388,0.00002653,0.00002804,-0.00002610,0.00000077,-0.00000718,-0.000002
 60,0.00001189,0.00001859,-0.00000637,-0.00002414,0.00000812,0.00000552
 ,-0.00000413,-0.00000675,-0.00000644,0.00000588,-0.00000041,-0.0000021
 9,0.00000828,0.00000114,0.00000289,0.00000020,-0.00000251,0.00291617,0
 .00844657,-0.00353157,-0.08444661,0.02219482,-0.06681351,-0.00031289,0
 .00016743,-0.00075595,0.01177427,-0.00928510,0.02338466,-0.00672297,0.
 00913846,-0.02765433,0.07865402,-0.00191087,-0.00190328,-0.00067828,0.
 01021511,0.00172515,-0.00250102,-0.00245729,0.00121542,0.00206153,0.00
 155873,0.00005803,-0.00087152,-0.00015191,0.00002417,-0.00014670,0.000
 02227,0.00000328,0.00005103,0.00001545,-0.00002535,0.00001822,0.000002
 29,0.00000740,-0.00003949,-0.00034766,-0.00007666,0.00057997,0.0000242
 1,0.00000857,0.00007346,0.00012173,0.00017695,-0.00017378,-0.00019097,
 -0.00009381,0.00012495,-0.00021145,0.00002318,-0.00001783,-0.00044388,
 0.00010278,0.00012987,0.00032375,0.00002384,0.00012240,-0.00020232,0.0
 0004018,0.00003250,0.00006094,-0.00013021,-0.00010761,0.00012150,0.000
 02810,0.00003798,0.00002067,0.00002039,0.00004884,-0.00004060,-0.00009
 085,-0.00012807,0.00003314,-0.00000731,0.00002819,0.00001994,-0.000009
 08,-0.00000812,0.00001643,-0.00001829,-0.00000618,-0.00001450,0.000012
 69,0.00001467,0.00645430,-0.03114688,0.03612113,0.02229687,-0.08400789
 ,0.07142962,-0.00008158,0.00049050,0.00008995,-0.00270667,0.00230156,-
 0.00424991,-0.00366101,0.00747567,-0.01505387,-0.02888663,0.10377174,-
 0.00010162,0.00051241,-0.00046004,-0.00038090,-0.00176488,-0.00007584,
 0.00030591,0.00123359,0.00042656,-0.00058187,-0.00027514,0.00008716,0.
 00001916,-0.00001190,0.00003902,-0.00001040,-0.00001004,-0.00000012,0.
 00000005,0.00001971,-0.00000211,0.00001285,-0.00001464,0.00000248,0.00
 015900,0.00011152,-0.00015528,-0.00000924,-0.00000010,-0.00004384,-0.0
 0008542,-0.00011862,0.00006048,0.00002979,0.00001185,0.00004400,0.0001
 8015,0.00000753,0.00004215,0.00009220,0.00006274,-0.00003300,-0.000010
 66,-0.00008549,-0.00005601,0.00005199,0.00001596,0.00001800,-0.0000106
 4,0.00002753,0.00002212,-0.00002223,-0.00000077,0.00000264,-0.00001875
 ,0.00000109,-0.00000623,0.00003637,-0.00003292,0.00006433,0.00000382,-
 0.00000755,-0.00000641,-0.00001222,0.00000948,0.00000204,-0.00000629,0
 .00001264,0.00000557,0.00000672,0.00000509,0.00000207,0.00278203,0.000
 71695,0.01290955,-0.06649259,0.07700166,-0.27426873,0.00019735,0.00082
 409,0.00006081,-0.00890885,0.00633471,-0.01758637,-0.00197455,0.002395
 43,-0.00801456,0.07474886,-0.08698194,0.28691955\\-0.00000014,-0.00000
 031,-0.00000008,-0.00000061,0.00000050,0.00000186,-0.00000040,-0.00000
 037,-0.00000108,0.00000019,-0.00000041,0.00000005,0.00000063,-0.000001
 02,0.00000029,0.00000086,-0.00000053,0.00000008,0.00000118,-0.00000053
 ,0.00000028,0.00000049,-0.00000037,-0.00000039,0.00000075,-0.00000007,
 0.00000055,0.00000097,-0.00000130,0.00000084,-0.00000048,-0.00000144,0
 .,0.00000054,-0.00000010,0.00000015,-0.00000005,-0.00000059,0.00000057
 ,-0.00000011,0.00000031,0.00000001,-0.00000015,0.00000079,-0.00000047,
 0.00000007,0.00000067,-0.00000072,0.00000012,0.00000080,-0.00000092,0.
 00000017,0.00000073,-0.00000074,0.00000009,0.00000040,-0.00000057,0.00
 000012,-0.00000013,0.00000020,0.00000009,0.00000070,-0.00000078,0.0000
 0023,0.00000117,-0.00000141,0.00000019,0.00000095,-0.00000115,0.,0.000
 00037,-0.00000030,-0.00000153,0.00000075,-0.00000092,-0.00000064,0.000
 00015,0.00000080,0.00000073,-0.00000031,0.00000193,-0.00000555,-0.0000
 0160,-0.00000388,-0.00000266,-0.00000081,0.00000642,0.00000491,0.00000
 158,-0.00000063\\\@
 The archive entry for this job was punched.


     ON THE SURVIVAL OF THE FITTEST -
 "STRONG REPRESENTATIVES FROM EACH PAST ERA THRIVE TODAY,
 SUCH AS PROGRAMMING IN THE THIRTY YEAR OLD LANGUAGE KNOWN
 AS FORTRAN, AND EVEN IN THE ANCIENT SCRIPT KNOWN AS DIRECT
 MACHINE CODE. SOME PEOPLE MIGHT LOOK ON SUCH RELICS AS LIVING
 FOSSILS; OTHERS WOULD POINT OUT THAT EVEN A VERY OLD SPECIES
 MIGHT STILL BE FILLING A PARTICULAR ECOLOGICAL NICHE."
     -- ALAN KAY, SCI.AM. SEPTEMBER 1984
 Job cpu time:       0 days  2 hours 35 minutes 18.2 seconds.
 Elapsed time:       0 days  0 hours 26 minutes  0.9 seconds.
 File lengths (MBytes):  RWF=      6 Int=      0 D2E=      0 Chk=      2 Scr=      1
 Normal termination of Gaussian 16 at Thu Jan 18 20:17:31 2024.
