Unloading slurm/anatra/current
  ERROR: No such file or directory on
    '/cm/local/modulefiles/slurm/anatra/current'
environment: line 0: unalias: gv: not found
environment: line 0: unalias: sl: not found
 Entering Gaussian System, Link 0=g16
 Initial command:
 /apps/gaussian/g16/C.01/g16/l1.exe "/local/jobs/1158115/Gau-1289694.inp" -scrdir="/local/jobs/1158115/"
 Entering Link 1 = /apps/gaussian/g16/C.01/g16/l1.exe PID=   1289697.
  
 Copyright (c) 1988-2019, Gaussian, Inc.  All Rights Reserved.
  
 This is part of the Gaussian(R) 16 program.  It is based on
 the Gaussian(R) 09 system (copyright 2009, Gaussian, Inc.),
 the Gaussian(R) 03 system (copyright 2003, Gaussian, Inc.),
 the Gaussian(R) 98 system (copyright 1998, Gaussian, Inc.),
 the Gaussian(R) 94 system (copyright 1995, Gaussian, Inc.),
 the Gaussian 92(TM) system (copyright 1992, Gaussian, Inc.),
 the Gaussian 90(TM) system (copyright 1990, Gaussian, Inc.),
 the Gaussian 88(TM) system (copyright 1988, Gaussian, Inc.),
 the Gaussian 86(TM) system (copyright 1986, Carnegie Mellon
 University), and the Gaussian 82(TM) system (copyright 1983,
 Carnegie Mellon University). Gaussian is a federally registered
 trademark of Gaussian, Inc.
  
 This software contains proprietary and confidential information,
 including trade secrets, belonging to Gaussian, Inc.
  
 This software is provided under written license and may be
 used, copied, transmitted, or stored only in accord with that
 written license.
  
 The following legend is applicable only to US Government
 contracts under FAR:
  
                    RESTRICTED RIGHTS LEGEND
  
 Use, reproduction and disclosure by the US Government is
 subject to restrictions as set forth in subparagraphs (a)
 and (c) of the Commercial Computer Software - Restricted
 Rights clause in FAR 52.227-19.
  
 Gaussian, Inc.
 340 Quinnipiac St., Bldg. 40, Wallingford CT 06492
  
  
 ---------------------------------------------------------------
 Warning -- This program may not be used in any manner that
 competes with the business of Gaussian, Inc. or will provide
 assistance to any competitor of Gaussian, Inc.  The licensee
 of this program is prohibited from giving any competitor of
 Gaussian, Inc. access to this program.  By using this program,
 the user acknowledges that Gaussian, Inc. is engaged in the
 business of creating and licensing software in the field of
 computational chemistry and represents and warrants to the
 licensee that it is not a competitor of Gaussian, Inc. and that
 it will not use this program in any manner prohibited above.
 ---------------------------------------------------------------
  

 Cite this work as:
 Gaussian 16, Revision C.01,
 M. J. Frisch, G. W. Trucks, H. B. Schlegel, G. E. Scuseria, 
 M. A. Robb, J. R. Cheeseman, G. Scalmani, V. Barone, 
 G. A. Petersson, H. Nakatsuji, X. Li, M. Caricato, A. V. Marenich, 
 J. Bloino, B. G. Janesko, R. Gomperts, B. Mennucci, H. P. Hratchian, 
 J. V. Ortiz, A. F. Izmaylov, J. L. Sonnenberg, D. Williams-Young, 
 F. Ding, F. Lipparini, F. Egidi, J. Goings, B. Peng, A. Petrone, 
 T. Henderson, D. Ranasinghe, V. G. Zakrzewski, J. Gao, N. Rega, 
 G. Zheng, W. Liang, M. Hada, M. Ehara, K. Toyota, R. Fukuda, 
 J. Hasegawa, M. Ishida, T. Nakajima, Y. Honda, O. Kitao, H. Nakai, 
 T. Vreven, K. Throssell, J. A. Montgomery, Jr., J. E. Peralta, 
 F. Ogliaro, M. J. Bearpark, J. J. Heyd, E. N. Brothers, K. N. Kudin, 
 V. N. Staroverov, T. A. Keith, R. Kobayashi, J. Normand, 
 K. Raghavachari, A. P. Rendell, J. C. Burant, S. S. Iyengar, 
 J. Tomasi, M. Cossi, J. M. Millam, M. Klene, C. Adamo, R. Cammi, 
 J. W. Ochterski, R. L. Martin, K. Morokuma, O. Farkas, 
 J. B. Foresman, and D. J. Fox, Gaussian, Inc., Wallingford CT, 2019.
 
 ******************************************
 Gaussian 16:  ES64L-G16RevC.01  3-Jul-2019
                17-Jan-2024 
 ******************************************
 %nprocshared=12
 Will use up to   12 processors via shared memory.
 %mem=48GB
 ----------------------------------------------------------------------
 # external="~/scripts/MiMe -H 'wb97xd def2svp' -EF 'wb97xd def2svp' -c
  12 -m 48GB" opt=(calcall,ts,noeigen,maxcycles=50,maxstep=10,nomicro)
 ----------------------------------------------------------------------
 1/5=1,6=50,8=10,10=4,11=1,18=20,26=1,38=1/1,3;
 2/9=110,12=2,17=6,18=5,40=1/2;
 3/11=9,25=1,30=1,41=9900000,43=2,71=2,140=1/1;
 4/20=17,22=2,24=3,113=1,114=1/2;
 6/7=2,8=2,9=2,10=2,18=1/1;
 7/25=1,44=-1/16;
 1/5=1,6=50,8=10,10=4,11=1,18=20,26=1/3(3);
 2/9=110/2;
 7/8=1,9=1,25=1,44=-1/16;
 99//99;
 2/9=110/2;
 3/11=9,25=1,30=1,41=9900000,43=2,71=2,140=1/1;
 4/16=2,20=17,22=2,24=3,113=1,114=1/2;
 7/25=1,44=-1/16;
 1/5=1,6=50,8=10,10=4,11=1,18=20,26=1/3(-4);
 2/9=110/2;
 6/7=2,8=2,9=2,10=2,18=1/1;
 7/8=1,9=1,25=1,44=-1/16;
 99//99;
 -----
 *****
 -----
 Symbolic Z-matrix:
 Charge =  0 Multiplicity = 1
 C                     0.7952   -0.3887   -0.8761 
 C                    -1.5119   -0.557    -0.2726 
 C                     0.2953    1.9111   -0.4892 
 C                    -1.9384    0.8105   -0.17 
 N                     1.1554    0.8132   -0.1629 
 H                    -2.4403    1.2646   -1.0159 
 H                    -0.0681    2.0507   -1.5043 
 H                    -1.7658   -1.191    -1.1121 
 H                     0.1873    2.7498    0.1944 
 H                     0.4382   -0.2881   -1.9022 
 H                    -2.0602    1.2339    0.8204 
 F                    -1.4481   -1.2825    0.863 
 C                     1.3984   -1.7207   -0.5386 
 H                     1.0027   -2.487    -1.2129 
 H                     2.4852   -1.692    -0.6607 
 H                     1.1594   -2.0217    0.4852 
 C                     1.4768    0.6754    1.2476 
 H                     1.7665    1.6392    1.6839 
 H                     0.6339    0.2847    1.8294 
 H                     2.335     0.0097    1.3941 
 
 Add virtual bond connecting atoms C2         and C1         Dist= 4.52D+00.
 Add virtual bond connecting atoms C4         and C3         Dist= 4.74D+00.
 Add virtual bond connecting atoms H6         and H7         Dist= 4.81D+00.
 Add virtual bond connecting atoms H8         and H10        Dist= 4.74D+00.

 GradGradGradGradGradGradGradGradGradGradGradGradGradGradGradGradGradGrad
 Berny optimization.
 Initialization pass.
                           ----------------------------
                           !    Initial Parameters    !
                           ! (Angstroms and Degrees)  !
 --------------------------                            --------------------------
 ! Name  Definition              Value          Derivative Info.                !
 --------------------------------------------------------------------------------
 ! R1    R(1,2)                  2.3907         calculate D2E/DX2 analytically  !
 ! R2    R(1,5)                  1.4432         calculate D2E/DX2 analytically  !
 ! R3    R(1,10)                 1.0911         calculate D2E/DX2 analytically  !
 ! R4    R(1,13)                 1.5007         calculate D2E/DX2 analytically  !
 ! R5    R(2,4)                  1.4361         calculate D2E/DX2 analytically  !
 ! R6    R(2,8)                  1.0822         calculate D2E/DX2 analytically  !
 ! R7    R(2,12)                 1.3491         calculate D2E/DX2 analytically  !
 ! R8    R(3,4)                  2.5105         calculate D2E/DX2 analytically  !
 ! R9    R(3,5)                  1.4324         calculate D2E/DX2 analytically  !
 ! R10   R(3,7)                  1.0872         calculate D2E/DX2 analytically  !
 ! R11   R(3,9)                  1.0874         calculate D2E/DX2 analytically  !
 ! R12   R(4,6)                  1.0834         calculate D2E/DX2 analytically  !
 ! R13   R(4,11)                 1.084          calculate D2E/DX2 analytically  !
 ! R14   R(5,17)                 1.4532         calculate D2E/DX2 analytically  !
 ! R15   R(6,7)                  2.5463         calculate D2E/DX2 analytically  !
 ! R16   R(8,10)                 2.5094         calculate D2E/DX2 analytically  !
 ! R17   R(13,14)                1.0947         calculate D2E/DX2 analytically  !
 ! R18   R(13,15)                1.094          calculate D2E/DX2 analytically  !
 ! R19   R(13,16)                1.0936         calculate D2E/DX2 analytically  !
 ! R20   R(17,18)                1.0969         calculate D2E/DX2 analytically  !
 ! R21   R(17,19)                1.0962         calculate D2E/DX2 analytically  !
 ! R22   R(17,20)                1.096          calculate D2E/DX2 analytically  !
 ! A1    A(2,1,5)              100.0631         calculate D2E/DX2 analytically  !
 ! A2    A(2,1,10)              85.8789         calculate D2E/DX2 analytically  !
 ! A3    A(2,1,13)             105.5837         calculate D2E/DX2 analytically  !
 ! A4    A(5,1,10)             118.0091         calculate D2E/DX2 analytically  !
 ! A5    A(5,1,13)             121.8517         calculate D2E/DX2 analytically  !
 ! A6    A(10,1,13)            115.1422         calculate D2E/DX2 analytically  !
 ! A7    A(1,2,4)              103.7448         calculate D2E/DX2 analytically  !
 ! A8    A(1,2,8)               94.1191         calculate D2E/DX2 analytically  !
 ! A9    A(1,2,12)             101.8128         calculate D2E/DX2 analytically  !
 ! A10   A(4,2,8)              122.9279         calculate D2E/DX2 analytically  !
 ! A11   A(4,2,12)             117.7738         calculate D2E/DX2 analytically  !
 ! A12   A(8,2,12)             110.4275         calculate D2E/DX2 analytically  !
 ! A13   A(4,3,5)               99.7457         calculate D2E/DX2 analytically  !
 ! A14   A(4,3,7)               82.9697         calculate D2E/DX2 analytically  !
 ! A15   A(4,3,9)               99.7783         calculate D2E/DX2 analytically  !
 ! A16   A(5,3,7)              120.7865         calculate D2E/DX2 analytically  !
 ! A17   A(5,3,9)              120.5063         calculate D2E/DX2 analytically  !
 ! A18   A(7,3,9)              117.0486         calculate D2E/DX2 analytically  !
 ! A19   A(2,4,3)               98.2869         calculate D2E/DX2 analytically  !
 ! A20   A(2,4,6)              118.7462         calculate D2E/DX2 analytically  !
 ! A21   A(2,4,11)             118.0718         calculate D2E/DX2 analytically  !
 ! A22   A(3,4,6)               97.4214         calculate D2E/DX2 analytically  !
 ! A23   A(3,4,11)              92.5739         calculate D2E/DX2 analytically  !
 ! A24   A(6,4,11)             119.8434         calculate D2E/DX2 analytically  !
 ! A25   A(1,5,3)              112.079          calculate D2E/DX2 analytically  !
 ! A26   A(1,5,17)             117.1211         calculate D2E/DX2 analytically  !
 ! A27   A(3,5,17)             115.2522         calculate D2E/DX2 analytically  !
 ! A28   A(4,6,7)               81.232          calculate D2E/DX2 analytically  !
 ! A29   A(3,7,6)               95.3172         calculate D2E/DX2 analytically  !
 ! A30   A(2,8,10)              80.0607         calculate D2E/DX2 analytically  !
 ! A31   A(1,10,8)              87.5985         calculate D2E/DX2 analytically  !
 ! A32   A(1,13,14)            109.7242         calculate D2E/DX2 analytically  !
 ! A33   A(1,13,15)            110.5436         calculate D2E/DX2 analytically  !
 ! A34   A(1,13,16)            111.5317         calculate D2E/DX2 analytically  !
 ! A35   A(14,13,15)           107.9802         calculate D2E/DX2 analytically  !
 ! A36   A(14,13,16)           107.7571         calculate D2E/DX2 analytically  !
 ! A37   A(15,13,16)           109.197          calculate D2E/DX2 analytically  !
 ! A38   A(5,17,18)            111.1716         calculate D2E/DX2 analytically  !
 ! A39   A(5,17,19)            112.2648         calculate D2E/DX2 analytically  !
 ! A40   A(5,17,20)            111.1327         calculate D2E/DX2 analytically  !
 ! A41   A(18,17,19)           107.7668         calculate D2E/DX2 analytically  !
 ! A42   A(18,17,20)           105.8861         calculate D2E/DX2 analytically  !
 ! A43   A(19,17,20)           108.3418         calculate D2E/DX2 analytically  !
 ! D1    D(5,1,2,4)             33.7023         calculate D2E/DX2 analytically  !
 ! D2    D(5,1,2,8)            159.0596         calculate D2E/DX2 analytically  !
 ! D3    D(5,1,2,12)           -89.0669         calculate D2E/DX2 analytically  !
 ! D4    D(10,1,2,4)           -84.0338         calculate D2E/DX2 analytically  !
 ! D5    D(10,1,2,8)            41.3235         calculate D2E/DX2 analytically  !
 ! D6    D(10,1,2,12)          153.1971         calculate D2E/DX2 analytically  !
 ! D7    D(13,1,2,4)           160.9971         calculate D2E/DX2 analytically  !
 ! D8    D(13,1,2,8)           -73.6456         calculate D2E/DX2 analytically  !
 ! D9    D(13,1,2,12)           38.2279         calculate D2E/DX2 analytically  !
 ! D10   D(2,1,5,3)            -54.2014         calculate D2E/DX2 analytically  !
 ! D11   D(2,1,5,17)            82.2671         calculate D2E/DX2 analytically  !
 ! D12   D(10,1,5,3)            36.4703         calculate D2E/DX2 analytically  !
 ! D13   D(10,1,5,17)          172.9388         calculate D2E/DX2 analytically  !
 ! D14   D(13,1,5,3)          -169.762          calculate D2E/DX2 analytically  !
 ! D15   D(13,1,5,17)          -33.2935         calculate D2E/DX2 analytically  !
 ! D16   D(2,1,10,8)           -16.5159         calculate D2E/DX2 analytically  !
 ! D17   D(5,1,10,8)          -115.7287         calculate D2E/DX2 analytically  !
 ! D18   D(13,1,10,8)           88.7748         calculate D2E/DX2 analytically  !
 ! D19   D(2,1,13,14)           68.4348         calculate D2E/DX2 analytically  !
 ! D20   D(2,1,13,15)         -172.5816         calculate D2E/DX2 analytically  !
 ! D21   D(2,1,13,16)          -50.8897         calculate D2E/DX2 analytically  !
 ! D22   D(5,1,13,14)         -178.8076         calculate D2E/DX2 analytically  !
 ! D23   D(5,1,13,15)          -59.824          calculate D2E/DX2 analytically  !
 ! D24   D(5,1,13,16)           61.8678         calculate D2E/DX2 analytically  !
 ! D25   D(10,1,13,14)         -24.344          calculate D2E/DX2 analytically  !
 ! D26   D(10,1,13,15)          94.6396         calculate D2E/DX2 analytically  !
 ! D27   D(10,1,13,16)        -143.6685         calculate D2E/DX2 analytically  !
 ! D28   D(1,2,4,3)             -6.061          calculate D2E/DX2 analytically  !
 ! D29   D(1,2,4,6)             97.1637         calculate D2E/DX2 analytically  !
 ! D30   D(1,2,4,11)          -103.4791         calculate D2E/DX2 analytically  !
 ! D31   D(8,2,4,3)           -110.3321         calculate D2E/DX2 analytically  !
 ! D32   D(8,2,4,6)             -7.1074         calculate D2E/DX2 analytically  !
 ! D33   D(8,2,4,11)           152.2498         calculate D2E/DX2 analytically  !
 ! D34   D(12,2,4,3)           105.4705         calculate D2E/DX2 analytically  !
 ! D35   D(12,2,4,6)          -151.3049         calculate D2E/DX2 analytically  !
 ! D36   D(12,2,4,11)            8.0523         calculate D2E/DX2 analytically  !
 ! D37   D(1,2,8,10)           -16.9011         calculate D2E/DX2 analytically  !
 ! D38   D(4,2,8,10)            92.3946         calculate D2E/DX2 analytically  !
 ! D39   D(12,2,8,10)         -121.1326         calculate D2E/DX2 analytically  !
 ! D40   D(5,3,4,2)            -20.024          calculate D2E/DX2 analytically  !
 ! D41   D(5,3,4,6)           -140.6267         calculate D2E/DX2 analytically  !
 ! D42   D(5,3,4,11)            98.8294         calculate D2E/DX2 analytically  !
 ! D43   D(7,3,4,2)            100.1142         calculate D2E/DX2 analytically  !
 ! D44   D(7,3,4,6)            -20.4885         calculate D2E/DX2 analytically  !
 ! D45   D(7,3,4,11)          -141.0324         calculate D2E/DX2 analytically  !
 ! D46   D(9,3,4,2)           -143.5461         calculate D2E/DX2 analytically  !
 ! D47   D(9,3,4,6)             95.8512         calculate D2E/DX2 analytically  !
 ! D48   D(9,3,4,11)           -24.6927         calculate D2E/DX2 analytically  !
 ! D49   D(4,3,5,1)             49.9272         calculate D2E/DX2 analytically  !
 ! D50   D(4,3,5,17)           -87.4015         calculate D2E/DX2 analytically  !
 ! D51   D(7,3,5,1)            -37.6527         calculate D2E/DX2 analytically  !
 ! D52   D(7,3,5,17)          -174.9813         calculate D2E/DX2 analytically  !
 ! D53   D(9,3,5,1)            157.4572         calculate D2E/DX2 analytically  !
 ! D54   D(9,3,5,17)            20.1285         calculate D2E/DX2 analytically  !
 ! D55   D(4,3,7,6)              8.5289         calculate D2E/DX2 analytically  !
 ! D56   D(5,3,7,6)            105.7132         calculate D2E/DX2 analytically  !
 ! D57   D(9,3,7,6)            -88.8927         calculate D2E/DX2 analytically  !
 ! D58   D(2,4,6,7)            -95.0917         calculate D2E/DX2 analytically  !
 ! D59   D(3,4,6,7)              8.6313         calculate D2E/DX2 analytically  !
 ! D60   D(11,4,6,7)           105.9241         calculate D2E/DX2 analytically  !
 ! D61   D(1,5,17,18)          178.1796         calculate D2E/DX2 analytically  !
 ! D62   D(1,5,17,19)          -61.0126         calculate D2E/DX2 analytically  !
 ! D63   D(1,5,17,20)           60.5078         calculate D2E/DX2 analytically  !
 ! D64   D(3,5,17,18)          -46.7049         calculate D2E/DX2 analytically  !
 ! D65   D(3,5,17,19)           74.1029         calculate D2E/DX2 analytically  !
 ! D66   D(3,5,17,20)         -164.3767         calculate D2E/DX2 analytically  !
 ! D67   D(4,6,7,3)            -20.1898         calculate D2E/DX2 analytically  !
 ! D68   D(2,8,10,1)            39.4876         calculate D2E/DX2 analytically  !
 --------------------------------------------------------------------------------
 Trust Radius=1.00D-01 FncErr=1.00D-07 GrdErr=1.00D-07 EigMax=2.50D+02 EigMin=1.00D-04
 Number of steps in this run=     50 maximum allowed number of steps=    120.
 Search for a saddle point of order  1.
 GradGradGradGradGradGradGradGradGradGradGradGradGradGradGradGradGradGrad

                          Input orientation:                          
 ---------------------------------------------------------------------
 Center     Atomic      Atomic             Coordinates (Angstroms)
 Number     Number       Type             X           Y           Z
 ---------------------------------------------------------------------
      1          6           0        0.795200   -0.388700   -0.876100
      2          6           0       -1.511900   -0.557000   -0.272600
      3          6           0        0.295300    1.911100   -0.489200
      4          6           0       -1.938400    0.810500   -0.170000
      5          7           0        1.155400    0.813200   -0.162900
      6          1           0       -2.440300    1.264600   -1.015900
      7          1           0       -0.068100    2.050700   -1.504300
      8          1           0       -1.765800   -1.191000   -1.112100
      9          1           0        0.187300    2.749800    0.194400
     10          1           0        0.438200   -0.288100   -1.902200
     11          1           0       -2.060200    1.233900    0.820400
     12          9           0       -1.448100   -1.282500    0.863000
     13          6           0        1.398400   -1.720700   -0.538600
     14          1           0        1.002700   -2.487000   -1.212900
     15          1           0        2.485200   -1.692000   -0.660700
     16          1           0        1.159400   -2.021700    0.485200
     17          6           0        1.476800    0.675400    1.247600
     18          1           0        1.766500    1.639200    1.683900
     19          1           0        0.633900    0.284700    1.829400
     20          1           0        2.335000    0.009700    1.394100
 ---------------------------------------------------------------------
                    Distance matrix (angstroms):
                    1          2          3          4          5
     1  C    0.000000
     2  C    2.390658   0.000000
     3  C    2.385094   3.066660   0.000000
     4  C    3.067446   1.436136   2.510503   0.000000
     5  N    1.443247   3.000662   1.432351   3.093809   0.000000
     6  H    3.636125   2.175465   2.859875   1.083355   3.722960
     7  H    2.662817   3.225173   1.087187   2.610838   2.197206
     8  H    2.694087   1.082211   3.776131   2.218861   3.667589
     9  H    3.371305   3.747038   1.087378   2.900392   2.194379
    10  H    1.091078   2.555542   2.617913   3.139374   2.180000
    11  H    3.696519   2.168549   2.778854   1.083972   3.388798
    12  F    2.975860   1.349077   3.881619   2.384981   3.496089
    13  C    1.500660   3.145600   3.795951   4.204411   2.573101
    14  H    2.135264   3.306399   4.513030   4.539958   3.466574
    15  H    2.145015   4.173207   4.219882   5.106029   2.879618
    16  H    2.156958   3.139339   4.142830   4.248177   2.908042
    17  C    2.471232   3.572415   2.437082   3.700194   1.453202
    18  H    3.407257   4.404440   2.638318   4.224923   2.113383
    19  H    2.792708   3.119506   2.852321   3.300120   2.126155
    20  H    2.771915   4.230565   3.364895   4.620567   2.112183
                    6          7          8          9         10
     6  H    0.000000
     7  H    2.546335   0.000000
     8  H    2.548367   3.680302   0.000000
     9  H    3.251911   1.854603   4.588186   0.000000
    10  H    3.388535   2.425830   2.509403   3.699665   0.000000
    11  H    1.875478   3.168573   3.114702   2.782281   3.996378
    12  F    3.316993   4.314943   2.002580   4.402386   3.491889
    13  C    4.886251   4.160127   3.259087   4.689288   2.198575
    14  H    5.095838   4.671429   3.058491   5.483561   2.372542
    15  H    5.755710   4.608558   4.304157   5.073571   2.775332
    16  H    5.100089   4.695669   3.434854   4.878192   3.037298
    17  C    4.562265   3.442546   4.423357   2.659920   3.453732
    18  H    5.012625   3.701312   5.320225   2.438425   4.282403
    19  H    4.301935   3.837332   4.072919   2.991554   3.780375
    20  H    5.494212   4.282674   4.953714   3.682396   3.814725
                   11         12         13         14         15
    11  H    0.000000
    12  F    2.590126   0.000000
    13  C    4.747468   3.202977   0.000000
    14  H    5.230752   3.430248   1.094749   0.000000
    15  H    5.604927   4.237948   1.094014   1.770524   0.000000
    16  H    4.590982   2.736459   1.093567   1.767655   1.783125
    17  C    3.606216   3.540668   2.989641   4.034799   3.203601
    18  H    3.943797   4.420844   4.045236   5.099056   4.136493
    19  H    3.029395   2.779347   3.195859   4.132060   3.679029
    20  H    4.598432   4.032827   2.758049   3.847724   2.672180
                   16         17         18         19         20
    16  H    0.000000
    17  C    2.820699   0.000000
    18  H    3.899698   1.096902   0.000000
    19  H    2.720754   1.096183   1.771616   0.000000
    20  H    2.516887   1.095959   1.749985   1.777316   0.000000
 Stoichiometry    C6H12FN
 Framework group  C1[X(C6H12FN)]
 Deg. of freedom    54
 Full point group                 C1      NOp   1
 Largest Abelian subgroup         C1      NOp   1
 Largest concise Abelian subgroup C1      NOp   1
                         Standard orientation:                         
 ---------------------------------------------------------------------
 Center     Atomic      Atomic             Coordinates (Angstroms)
 Number     Number       Type             X           Y           Z
 ---------------------------------------------------------------------
      1          6           0       -0.708768    0.500977   -0.853229
      2          6           0        1.596693    0.384316   -0.231550
      3          6           0       -0.480472   -1.851490   -0.533147
      4          6           0        1.862007   -1.025662   -0.167871
      5          7           0       -1.211478   -0.671790   -0.178794
      6          1           0        2.316107   -1.509572   -1.024189
      7          1           0       -0.126185   -2.002195   -1.549879
      8          1           0        1.929622    1.009185   -1.050011
      9          1           0       -0.476039   -2.716759    0.125398
     10          1           0       -0.356249    0.390055   -1.879815
     11          1           0        1.925108   -1.489182    0.809965
     12          9           0        1.606321    1.078672    0.925077
     13          6           0       -1.157754    1.883160   -0.479115
     14          1           0       -0.670274    2.618186   -1.127632
     15          1           0       -2.239460    1.983574   -0.608326
     16          1           0       -0.895174    2.124398    0.554686
     17          6           0       -1.527907   -0.539326    1.233340
     18          1           0       -1.930627   -1.475683    1.638613
     19          1           0       -0.651057   -0.265685    1.831564
     20          1           0       -2.305107    0.216305    1.394921
 ---------------------------------------------------------------------
 Rotational constants (GHZ):           2.1495626           1.7137595           1.2884224
 Standard basis: STO-3G (5D, 7F)
 There are    52 symmetry adapted cartesian basis functions of A   symmetry.
 There are    52 symmetry adapted basis functions of A   symmetry.
    52 basis functions,   156 primitive gaussians,    52 cartesian basis functions
    32 alpha electrons       32 beta electrons
       nuclear repulsion energy       395.3818641918 Hartrees.
 NAtoms=   20 NActive=   20 NUniq=   20 SFac= 1.00D+00 NAtFMM=   60 NAOKFM=F Big=F
 Integral buffers will be    131072 words long.
 Raffenetti 1 integral format.
 Two-electron integral symmetry is turned on.
 External calculation of energy, first and second derivatives.
 Running external command "~/scripts/MiMe -H 'wb97xd def2svp' -EF 'wb97xd def2svp' -c 12 -m 48GB R"
         input file       "/local/jobs/1158115/Gau-1289697.EIn"
         output file      "/local/jobs/1158115/Gau-1289697.EOu"
         message file     "/local/jobs/1158115/Gau-1289697.EMs"
         fchk file        "/local/jobs/1158115/Gau-1289697.EFC"
         mat. el file     "/local/jobs/1158115/Gau-1289697.EUF"
 Read checkpoint file Gau-1289697_H.chk type G16
 Write formatted file Gau-1289697_H.fchk

deriv: 2

spelevel: wb97xd def2svp
gradlevel: wb97xd def2svp
hesslevel: wb97xd def2svp

runspe: False
runforce: False
runfreq: True

Running Gaussian ...

Parsing files ...
SPE file: Gau-1289697_H.out
FORCE file: Gau-1289697_H.out
HESS file: Gau-1289697_H.out

 ExternalExternalExternalExternalExternalExternalExternalExternalExternalExternal
 Output from external command:
 "~/scripts/MiMe -H 'wb97xd def2svp' -EF 'wb97xd def2svp' -c 12 -m 48GB R /local/jobs/1158115/Gau-1289697.EIn /local/jobs/1158115/Gau-1289697.EOu /local/jobs/1158115/Gau-1289697.EMs /local/jobs/1158115/Gau-1289697.EFC /local/jobs/1158115/Gau-1289697.EUF"
  
 --------------------------------------------------
 Hessian calculation at wb97xd def2svp
 ExternalExternalExternalExternalExternalExternalExternalExternalExternalExternal

 Recovered energy= -389.898671614     dipole=     -1.460200000000     -0.441500000000     -0.351600000000
 Energy=    -389.898672     NIter=   0.
 Dipole moment=      -1.460200      -0.441500      -0.351600
 ***** Axes restored to original set *****
 -------------------------------------------------------------------
 Center     Atomic                   Forces (Hartrees/Bohr)
 Number     Number              X              Y              Z
 -------------------------------------------------------------------
      1        6          -0.007705034    0.017772796    0.031531870
      2        6           0.001526143    0.047411992    0.004826981
      3        6           0.012548850   -0.038148715    0.018144280
      4        6           0.038288521   -0.041952067   -0.004743163
      5        7          -0.083321878   -0.000126937   -0.045315267
      6        1          -0.000051173    0.004185501   -0.003614751
      7        1           0.009029800   -0.003967241   -0.002997930
      8        1          -0.001538034   -0.002350445   -0.008870294
      9        1           0.010320365    0.000980586    0.002629191
     10        1           0.006429800    0.011925723   -0.000091129
     11        1          -0.003874826    0.001763602    0.003903493
     12        9           0.006676083   -0.001790772    0.005967221
     13        6           0.001768033    0.013306476   -0.000526167
     14        1          -0.001358546   -0.000569731   -0.001641754
     15        1           0.007908760   -0.004682140    0.000679219
     16        1          -0.000245767   -0.002434596    0.004945284
     17        6           0.008879503    0.000722686    0.004181989
     18        1          -0.000999534    0.003180443   -0.004273414
     19        1          -0.004937397   -0.002506046   -0.001991982
     20        1           0.000656332   -0.002721117   -0.002743676
 -------------------------------------------------------------------
 Cartesian Forces:  Max     0.083321878 RMS     0.017769170
 FormGI is forming the generalized inverse of G from B-inverse, IUseBI=4.

 GradGradGradGradGradGradGradGradGradGradGradGradGradGradGradGradGradGrad
 Berny optimization.
 Internal  Forces:  Max     0.061263096 RMS     0.009196453
 Search for a saddle point.
 Step number   1 out of a maximum of   50
 All quantities printed in internal units (Hartrees-Bohrs-Radians)
 Swapping is turned off.
 Second derivative matrix not updated -- analytic derivatives used.
 ITU=  0
     Eigenvalues ---   -0.03016  -0.00088   0.00097   0.00200   0.00304
     Eigenvalues ---    0.00457   0.00521   0.00819   0.00938   0.01138
     Eigenvalues ---    0.01261   0.01486   0.01628   0.02054   0.02957
     Eigenvalues ---    0.03403   0.03898   0.04357   0.04477   0.04546
     Eigenvalues ---    0.04949   0.05023   0.05591   0.06066   0.06098
     Eigenvalues ---    0.06220   0.07604   0.10096   0.12243   0.12302
     Eigenvalues ---    0.12848   0.14450   0.14749   0.15503   0.17039
     Eigenvalues ---    0.17480   0.26650   0.28049   0.32302   0.32650
     Eigenvalues ---    0.33669   0.34475   0.35182   0.35283   0.35369
     Eigenvalues ---    0.35628   0.35758   0.36038   0.36385   0.37842
     Eigenvalues ---    0.37920   0.38066   0.38612   0.42163
 Eigenvectors required to have negative eigenvalues:
                          R1        R8        D51       D33       R16
   1                   -0.57756  -0.50648  -0.16819  -0.16439  -0.15023
                          D35       D12       D31       A29       A14
   1                    0.14402   0.14318  -0.12666  -0.12297   0.11244
 RFO step:  Lambda0=2.869775912D-03 Lambda=-4.53742350D-02.
 Linear search not attempted -- option 19 set.
 Maximum step size (   0.100) exceeded in Quadratic search.
    -- Step size scaled by   0.217
 Iteration  1 RMS(Cart)=  0.01396887 RMS(Int)=  0.00019315
 Iteration  2 RMS(Cart)=  0.00024219 RMS(Int)=  0.00009704
 Iteration  3 RMS(Cart)=  0.00000005 RMS(Int)=  0.00009704
 Variable       Old X    -DE/DX   Delta X   Delta X   Delta X     New X
                                 (Linear)    (Quad)   (Total)
    R1        4.51769  -0.02000   0.00000  -0.00947  -0.00943   4.50826
    R2        2.72734  -0.05416   0.00000  -0.04089  -0.04070   2.68664
    R3        2.06184  -0.00138   0.00000  -0.00032  -0.00031   2.06153
    R4        2.83584  -0.00097   0.00000  -0.00056  -0.00056   2.83527
    R5        2.71390  -0.04482   0.00000  -0.03429  -0.03448   2.67942
    R6        2.04508   0.00852   0.00000   0.00408   0.00403   2.04911
    R7        2.54939   0.00630   0.00000   0.00440   0.00440   2.55378
    R8        4.74416  -0.01701   0.00000   0.03524   0.03518   4.77934
    R9        2.70675  -0.06126   0.00000  -0.04538  -0.04523   2.66152
   R10        2.05449  -0.00211   0.00000  -0.00085  -0.00085   2.05363
   R11        2.05485   0.00138   0.00000  -0.00021  -0.00021   2.05463
   R12        2.04724   0.00604   0.00000   0.00251   0.00248   2.04973
   R13        2.04841   0.00469   0.00000   0.00239   0.00239   2.05080
   R14        2.74615  -0.00376   0.00000   0.00308   0.00308   2.74923
   R15        4.81188  -0.00135   0.00000   0.01573   0.01571   4.82758
   R16        4.74208  -0.00273   0.00000  -0.00357  -0.00357   4.73852
   R17        2.06878   0.00190   0.00000   0.00125   0.00125   2.07003
   R18        2.06739   0.00766   0.00000   0.00418   0.00418   2.07156
   R19        2.06654   0.00535   0.00000   0.00290   0.00290   2.06944
   R20        2.07284   0.00083   0.00000  -0.00019  -0.00019   2.07266
   R21        2.07149   0.00363   0.00000   0.00113   0.00113   2.07262
   R22        2.07106   0.00180   0.00000   0.00022   0.00022   2.07128
    A1        1.74643  -0.00320   0.00000  -0.01172  -0.01152   1.73491
    A2        1.49887   0.00476   0.00000   0.00757   0.00754   1.50641
    A3        1.84278   0.00079   0.00000   0.00573   0.00555   1.84833
    A4        2.05965  -0.00690   0.00000  -0.01045  -0.01050   2.04915
    A5        2.12671   0.00153   0.00000   0.00458   0.00462   2.13133
    A6        2.00961   0.00425   0.00000   0.00500   0.00499   2.01460
    A7        1.81069  -0.00324   0.00000   0.00327   0.00322   1.81391
    A8        1.64269   0.00229   0.00000  -0.00838  -0.00836   1.63433
    A9        1.77697  -0.00234   0.00000  -0.01641  -0.01637   1.76060
   A10        2.14550   0.00026   0.00000   0.00366   0.00372   2.14922
   A11        2.05554   0.00024   0.00000   0.00515   0.00503   2.06057
   A12        1.92732   0.00155   0.00000   0.00283   0.00268   1.93001
   A13        1.74089  -0.00629   0.00000  -0.02594  -0.02587   1.71502
   A14        1.44809   0.00679   0.00000  -0.00206  -0.00211   1.44598
   A15        1.74146   0.00397   0.00000   0.01055   0.01042   1.75188
   A16        2.10812  -0.00537   0.00000  -0.00582  -0.00607   2.10205
   A17        2.10323   0.00013   0.00000   0.00048   0.00056   2.10379
   A18        2.04288   0.00418   0.00000   0.01015   0.01010   2.05298
   A19        1.71543  -0.00137   0.00000  -0.00329  -0.00343   1.71200
   A20        2.07251   0.00243   0.00000   0.00489   0.00494   2.07746
   A21        2.06074  -0.00131   0.00000   0.00409   0.00394   2.06469
   A22        1.70032  -0.00010   0.00000  -0.00803  -0.00794   1.69239
   A23        1.61572   0.00077   0.00000  -0.00696  -0.00693   1.60879
   A24        2.09166  -0.00092   0.00000  -0.00240  -0.00250   2.08916
   A25        1.95615   0.01519   0.00000   0.02863   0.02863   1.98478
   A26        2.04415  -0.00726   0.00000  -0.00337  -0.00369   2.04046
   A27        2.01153  -0.00355   0.00000   0.00040   0.00015   2.01168
   A28        1.41777  -0.00162   0.00000   0.00648   0.00642   1.42418
   A29        1.66360  -0.00590   0.00000   0.00297   0.00301   1.66661
   A30        1.39732  -0.00462   0.00000   0.00409   0.00407   1.40139
   A31        1.52888  -0.00376   0.00000  -0.00968  -0.00966   1.51922
   A32        1.91505  -0.00323   0.00000  -0.00383  -0.00383   1.91122
   A33        1.92935   0.00761   0.00000   0.01039   0.01038   1.93973
   A34        1.94660   0.00080   0.00000   0.00193   0.00192   1.94851
   A35        1.88461  -0.00197   0.00000  -0.00309  -0.00308   1.88153
   A36        1.88072   0.00015   0.00000  -0.00225  -0.00225   1.87847
   A37        1.90585  -0.00366   0.00000  -0.00365  -0.00367   1.90217
   A38        1.94031  -0.00556   0.00000  -0.00524  -0.00526   1.93505
   A39        1.95939  -0.00474   0.00000  -0.01094  -0.01097   1.94842
   A40        1.93963  -0.00217   0.00000  -0.00171  -0.00173   1.93790
   A41        1.88088   0.00532   0.00000   0.00791   0.00788   1.88876
   A42        1.84806   0.00499   0.00000   0.00731   0.00731   1.85538
   A43        1.89092   0.00311   0.00000   0.00419   0.00417   1.89509
    D1        0.58822  -0.00463   0.00000  -0.00112  -0.00129   0.58693
    D2        2.77611  -0.00440   0.00000   0.00068   0.00057   2.77668
    D3       -1.55451  -0.00259   0.00000  -0.00117  -0.00121  -1.55572
    D4       -1.46667   0.00165   0.00000   0.00840   0.00831  -1.45835
    D5        0.72123   0.00188   0.00000   0.01020   0.01017   0.73140
    D6        2.67379   0.00369   0.00000   0.00835   0.00839   2.68218
    D7        2.80993  -0.00411   0.00000   0.00083   0.00070   2.81063
    D8       -1.28536  -0.00388   0.00000   0.00264   0.00255  -1.28280
    D9        0.66720  -0.00207   0.00000   0.00079   0.00078   0.66798
   D10       -0.94599  -0.00496   0.00000  -0.02178  -0.02207  -0.96807
   D11        1.43583  -0.00103   0.00000   0.00856   0.00849   1.44433
   D12        0.63653  -0.00248   0.00000  -0.02127  -0.02139   0.61513
   D13        3.01835   0.00145   0.00000   0.00907   0.00917   3.02753
   D14       -2.96291  -0.00425   0.00000  -0.02229  -0.02249  -2.98540
   D15       -0.58108  -0.00032   0.00000   0.00805   0.00808  -0.57300
   D16       -0.28826  -0.00204   0.00000  -0.00455  -0.00454  -0.29280
   D17       -2.01985  -0.00083   0.00000   0.00487   0.00469  -2.01515
   D18        1.54941   0.00129   0.00000   0.00559   0.00546   1.55488
   D19        1.19441   0.00265   0.00000   0.00208   0.00202   1.19643
   D20       -3.01212   0.00290   0.00000   0.00228   0.00221  -3.00991
   D21       -0.88819   0.00407   0.00000   0.00617   0.00612  -0.88208
   D22       -3.12078  -0.00003   0.00000  -0.00611  -0.00604  -3.12682
   D23       -1.04413   0.00021   0.00000  -0.00591  -0.00585  -1.04997
   D24        1.07980   0.00138   0.00000  -0.00202  -0.00194   1.07786
   D25       -0.42488  -0.00446   0.00000  -0.01088  -0.01089  -0.43577
   D26        1.65177  -0.00421   0.00000  -0.01068  -0.01070   1.64107
   D27       -2.50749  -0.00304   0.00000  -0.00679  -0.00679  -2.51428
   D28       -0.10578   0.00083   0.00000  -0.00143  -0.00145  -0.10723
   D29        1.69583   0.00057   0.00000  -0.01146  -0.01146   1.68436
   D30       -1.80605   0.00099   0.00000   0.00755   0.00763  -1.79842
   D31       -1.92566   0.00019   0.00000   0.00524   0.00521  -1.92045
   D32       -0.12405  -0.00007   0.00000  -0.00480  -0.00481  -0.12886
   D33        2.65726   0.00035   0.00000   0.01422   0.01428   2.67154
   D34        1.84081  -0.00406   0.00000  -0.01693  -0.01700   1.82380
   D35       -2.64077  -0.00433   0.00000  -0.02696  -0.02702  -2.66779
   D36        0.14054  -0.00390   0.00000  -0.00795  -0.00793   0.13261
   D37       -0.29498  -0.00097   0.00000  -0.00366  -0.00363  -0.29861
   D38        1.61259  -0.00324   0.00000  -0.00449  -0.00451   1.60808
   D39       -2.11416   0.00037   0.00000   0.01697   0.01697  -2.09719
   D40       -0.34948   0.00377   0.00000   0.00518   0.00532  -0.34416
   D41       -2.45440   0.00159   0.00000   0.00286   0.00292  -2.45148
   D42        1.72490   0.00240   0.00000   0.00758   0.00761   1.73251
   D43        1.74732  -0.00056   0.00000   0.00012   0.00028   1.74760
   D44       -0.35759  -0.00273   0.00000  -0.00220  -0.00213  -0.35972
   D45       -2.46148  -0.00192   0.00000   0.00252   0.00256  -2.45892
   D46       -2.50535   0.00437   0.00000   0.00960   0.00974  -2.49561
   D47        1.67292   0.00219   0.00000   0.00729   0.00733   1.68025
   D48       -0.43097   0.00301   0.00000   0.01200   0.01202  -0.41895
   D49        0.87139   0.00386   0.00000   0.01423   0.01453   0.88592
   D50       -1.52544   0.00193   0.00000  -0.01345  -0.01346  -1.53890
   D51       -0.65716   0.00039   0.00000   0.03278   0.03289  -0.62427
   D52       -3.05400  -0.00154   0.00000   0.00510   0.00490  -3.04910
   D53        2.74815   0.00452   0.00000   0.00981   0.01009   2.75823
   D54        0.35131   0.00258   0.00000  -0.01787  -0.01790   0.33341
   D55        0.14886   0.00150   0.00000   0.00077   0.00074   0.14960
   D56        1.84504  -0.00159   0.00000  -0.03037  -0.03022   1.81482
   D57       -1.55147  -0.00611   0.00000  -0.00947  -0.00937  -1.56085
   D58       -1.65966   0.00218   0.00000   0.00748   0.00758  -1.65209
   D59        0.15064   0.00116   0.00000   0.00014   0.00012   0.15076
   D60        1.84872   0.00181   0.00000  -0.01328  -0.01317   1.83555
   D61        3.10982  -0.00538   0.00000  -0.01722  -0.01719   3.09263
   D62       -1.06487  -0.00578   0.00000  -0.01838  -0.01833  -1.08320
   D63        1.05606  -0.00667   0.00000  -0.02191  -0.02186   1.03420
   D64       -0.81515   0.00654   0.00000   0.02597   0.02592  -0.78924
   D65        1.29334   0.00614   0.00000   0.02481   0.02478   1.31812
   D66       -2.86891   0.00526   0.00000   0.02128   0.02125  -2.84766
   D67       -0.35238  -0.00168   0.00000  -0.00372  -0.00365  -0.35602
   D68        0.68919  -0.00047   0.00000   0.00914   0.00910   0.69829
         Item               Value     Threshold  Converged?
 Maximum Force            0.061263     0.000450     NO 
 RMS     Force            0.009196     0.000300     NO 
 Maximum Displacement     0.058566     0.001800     NO 
 RMS     Displacement     0.014050     0.001200     NO 
 Predicted change in Energy=-8.521229D-03
 GradGradGradGradGradGradGradGradGradGradGradGradGradGradGradGradGradGrad

                          Input orientation:                          
 ---------------------------------------------------------------------
 Center     Atomic      Atomic             Coordinates (Angstroms)
 Number     Number       Type             X           Y           Z
 ---------------------------------------------------------------------
      1          6           0        0.788953   -0.381593   -0.872471
      2          6           0       -1.511592   -0.549701   -0.263671
      3          6           0        0.311407    1.908122   -0.491722
      4          6           0       -1.937827    0.798956   -0.164409
      5          7           0        1.128750    0.807060   -0.170403
      6          1           0       -2.435262    1.257508   -1.012225
      7          1           0       -0.055370    2.044216   -1.505600
      8          1           0       -1.758587   -1.189172   -1.103833
      9          1           0        0.218292    2.746032    0.194850
     10          1           0        0.436615   -0.274953   -1.899398
     11          1           0       -2.053108    1.230599    0.824594
     12          9           0       -1.422023   -1.273500    0.874039
     13          6           0        1.401287   -1.709364   -0.536084
     14          1           0        1.005975   -2.476018   -1.211286
     15          1           0        2.490430   -1.684671   -0.658005
     16          1           0        1.164299   -2.015501    0.488299
     17          6           0        1.456362    0.667772    1.240201
     18          1           0        1.749980    1.633054    1.670315
     19          1           0        0.607426    0.279764    1.816128
     20          1           0        2.310492   -0.004510    1.381181
 ---------------------------------------------------------------------
                    Distance matrix (angstroms):
                    1          2          3          4          5
     1  C    0.000000
     2  C    2.385667   0.000000
     3  C    2.369771   3.068586   0.000000
     4  C    3.054567   1.417887   2.529118   0.000000
     5  N    1.421710   2.970001   1.408415   3.066594   0.000000
     6  H    3.619634   2.163216   2.870263   1.084668   3.689682
     7  H    2.645427   3.223565   1.086736   2.625473   2.171508
     8  H    2.682475   1.084344   3.775286   2.206196   3.632210
     9  H    3.353635   3.750279   1.087265   2.927289   2.173006
    10  H    1.090914   2.558632   2.600585   3.130726   2.153887
    11  H    3.681916   2.155697   2.789741   1.085234   3.360599
    12  F    2.955371   1.351404   3.872054   2.374763   3.453409
    13  C    1.500362   3.147045   3.778361   4.192791   2.557419
    14  H    2.132723   3.308597   4.496763   4.526298   3.446319
    15  H    2.153841   4.178497   4.205229   5.101128   2.881085
    16  H    2.159221   3.142359   4.133120   4.239149   2.898621
    17  C    2.451527   3.542968   2.418460   3.675684   1.454831
    18  H    3.383510   4.375222   2.611429   4.202600   2.111027
    19  H    2.774692   3.082826   2.839956   3.266558   2.120407
    20  H    2.745218   4.196557   3.340998   4.591581   2.112480
                    6          7          8          9         10
     6  H    0.000000
     7  H    2.554646   0.000000
     8  H    2.540182   3.676569   0.000000
     9  H    3.273237   1.859830   4.591346   0.000000
    10  H    3.373898   2.403263   2.507515   3.682376   0.000000
    11  H    1.876346   3.175332   3.108194   2.802208   3.985667
    12  F    3.315214   4.305539   2.008076   4.394151   3.484765
    13  C    4.873208   4.141398   3.252345   4.667366   2.201535
    14  H    5.081432   4.652482   3.051282   5.465114   2.375364
    15  H    5.748420   4.593921   4.300980   5.051842   2.783256
    16  H    5.091267   4.684499   3.429427   4.863459   3.043046
    17  C    4.534970   3.423354   4.390744   2.635288   3.433030
    18  H    4.985309   3.676246   5.288752   2.400372   4.255381
    19  H    4.267730   3.819224   4.035092   2.976986   3.760588
    20  H    5.462898   4.257709   4.912853   3.653787   3.787711
                   11         12         13         14         15
    11  H    0.000000
    12  F    2.582871   0.000000
    13  C    4.735787   3.185830   0.000000
    14  H    5.219368   3.419036   1.095412   0.000000
    15  H    5.598271   4.221791   1.096224   1.770863   0.000000
    16  H    4.582790   2.718166   1.095100   1.767974   1.783840
    17  C    3.578530   3.491090   2.967996   4.011989   3.194757
    18  H    3.916719   4.375353   4.020142   5.073622   4.120272
    19  H    2.994273   2.723752   3.181155   4.113200   3.677777
    20  H    4.569057   3.974820   2.721964   3.811955   2.648320
                   16         17         18         19         20
    16  H    0.000000
    17  C    2.801894   0.000000
    18  H    3.879708   1.096804   0.000000
    19  H    2.709516   1.096784   1.777100   0.000000
    20  H    2.480943   1.096073   1.754818   1.780568   0.000000
 Stoichiometry    C6H12FN
 Framework group  C1[X(C6H12FN)]
 Deg. of freedom    54
 Full point group                 C1      NOp   1
 Largest Abelian subgroup         C1      NOp   1
 Largest concise Abelian subgroup C1      NOp   1
                         Standard orientation:                         
 ---------------------------------------------------------------------
 Center     Atomic      Atomic             Coordinates (Angstroms)
 Number     Number       Type             X           Y           Z
 ---------------------------------------------------------------------
      1          6           0       -0.714622    0.480797   -0.849176
      2          6           0        1.589765    0.394518   -0.237818
      3          6           0       -0.478349   -1.854466   -0.522774
      4          6           0        1.873344   -0.993096   -0.170609
      5          7           0       -1.177454   -0.682271   -0.175145
      6          1           0        2.322054   -1.480812   -1.029268
      7          1           0       -0.125759   -2.004077   -1.539776
      8          1           0        1.903489    1.024423   -1.062802
      9          1           0       -0.474133   -2.713421    0.143802
     10          1           0       -0.373307    0.362280   -1.878521
     11          1           0        1.941246   -1.457510    0.807881
     12          9           0        1.573722    1.096763    0.916690
     13          6           0       -1.186297    1.856747   -0.481249
     14          1           0       -0.712157    2.593816   -1.138400
     15          1           0       -2.271872    1.948266   -0.603133
     16          1           0       -0.920740    2.112429    0.549940
     17          6           0       -1.491519   -0.542881    1.238526
     18          1           0       -1.884687   -1.482257    1.645920
     19          1           0       -0.607962   -0.258858    1.822985
     20          1           0       -2.271426    0.211038    1.395776
 ---------------------------------------------------------------------
 Rotational constants (GHZ):           2.1664651           1.7351952           1.3048310
 Standard basis: STO-3G (5D, 7F)
 There are    52 symmetry adapted cartesian basis functions of A   symmetry.
 There are    52 symmetry adapted basis functions of A   symmetry.
    52 basis functions,   156 primitive gaussians,    52 cartesian basis functions
    32 alpha electrons       32 beta electrons
       nuclear repulsion energy       397.3361454754 Hartrees.
 NAtoms=   20 NActive=   20 NUniq=   20 SFac= 1.00D+00 NAtFMM=   60 NAOKFM=F Big=F
 Integral buffers will be    131072 words long.
 Raffenetti 1 integral format.
 Two-electron integral symmetry is turned on.
 External calculation of energy, first and second derivatives.
 Running external command "~/scripts/MiMe -H 'wb97xd def2svp' -EF 'wb97xd def2svp' -c 12 -m 48GB R"
         input file       "/local/jobs/1158115/Gau-1289697.EIn"
         output file      "/local/jobs/1158115/Gau-1289697.EOu"
         message file     "/local/jobs/1158115/Gau-1289697.EMs"
         fchk file        "/local/jobs/1158115/Gau-1289697.EFC"
         mat. el file     "/local/jobs/1158115/Gau-1289697.EUF"
 Read checkpoint file Gau-1289697_H.chk type G16
 Write formatted file Gau-1289697_H.fchk

deriv: 2

spelevel: wb97xd def2svp
gradlevel: wb97xd def2svp
hesslevel: wb97xd def2svp

runspe: False
runforce: False
runfreq: True

Running Gaussian ...

Parsing files ...
SPE file: Gau-1289697_H.out
FORCE file: Gau-1289697_H.out
HESS file: Gau-1289697_H.out

 ExternalExternalExternalExternalExternalExternalExternalExternalExternalExternal
 Output from external command:
 "~/scripts/MiMe -H 'wb97xd def2svp' -EF 'wb97xd def2svp' -c 12 -m 48GB R /local/jobs/1158115/Gau-1289697.EIn /local/jobs/1158115/Gau-1289697.EOu /local/jobs/1158115/Gau-1289697.EMs /local/jobs/1158115/Gau-1289697.EFC /local/jobs/1158115/Gau-1289697.EUF"
  
 --------------------------------------------------
 Hessian calculation at wb97xd def2svp
 ExternalExternalExternalExternalExternalExternalExternalExternalExternalExternal

 Recovered energy= -389.907147123     dipole=     -1.528200000000     -0.465900000000     -0.313100000000
 Energy=    -389.907147     NIter=   0.
 Dipole moment=      -1.528200      -0.465900      -0.313100
 ***** Axes restored to original set *****
 -------------------------------------------------------------------
 Center     Atomic                   Forces (Hartrees/Bohr)
 Number     Number              X              Y              Z
 -------------------------------------------------------------------
      1        6          -0.005664072    0.012658390    0.024088738
      2        6           0.000163051    0.037791207    0.004007558
      3        6           0.009045725   -0.029460762    0.014107989
      4        6           0.031695285   -0.034010249   -0.003664006
      5        7          -0.071935214   -0.001125405   -0.034539366
      6        1           0.000503193    0.003632332   -0.002839695
      7        1           0.007519244   -0.003215072   -0.002702135
      8        1          -0.000728777   -0.001808116   -0.007233000
      9        1           0.009390825    0.000805182    0.002023392
     10        1           0.005492387    0.010214151   -0.000116526
     11        1          -0.003279511    0.001786358    0.003005442
     12        9           0.006470468   -0.001321814    0.004798295
     13        6           0.001864848    0.011362786   -0.000209645
     14        1          -0.001151042   -0.000492301   -0.001279419
     15        1           0.006393906   -0.003971741    0.000544315
     16        1          -0.000277251   -0.002121092    0.003915753
     17        6           0.008991506    0.000983082    0.003718128
     18        1          -0.000924952    0.002603842   -0.003558364
     19        1          -0.003987715   -0.002064627   -0.001799101
     20        1           0.000418095   -0.002246149   -0.002268352
 -------------------------------------------------------------------
 Cartesian Forces:  Max     0.071935214 RMS     0.014571965
 FormGI is forming the generalized inverse of G from B-inverse, IUseBI=4.

 GradGradGradGradGradGradGradGradGradGradGradGradGradGradGradGradGradGrad
 Berny optimization.
 Internal  Forces:  Max     0.048607620 RMS     0.007441732
 Search for a saddle point.
 Step number   2 out of a maximum of   50
 All quantities printed in internal units (Hartrees-Bohrs-Radians)
 Swapping is turned off.
 Second derivative matrix not updated -- analytic derivatives used.
 ITU=  0  0
     Eigenvalues ---   -0.02724  -0.00007   0.00111   0.00229   0.00331
     Eigenvalues ---    0.00474   0.00555   0.00856   0.01018   0.01158
     Eigenvalues ---    0.01275   0.01516   0.01696   0.02082   0.02987
     Eigenvalues ---    0.03586   0.03940   0.04385   0.04465   0.04560
     Eigenvalues ---    0.04988   0.05049   0.05692   0.06080   0.06115
     Eigenvalues ---    0.06279   0.07736   0.10258   0.12221   0.12531
     Eigenvalues ---    0.13187   0.14519   0.15287   0.16302   0.17243
     Eigenvalues ---    0.17944   0.30002   0.31090   0.32462   0.33244
     Eigenvalues ---    0.33733   0.34904   0.35022   0.35312   0.35491
     Eigenvalues ---    0.35606   0.35712   0.36292   0.37474   0.37834
     Eigenvalues ---    0.37954   0.38326   0.38823   0.42582
 Eigenvectors required to have negative eigenvalues:
                          R1        R8        D51       D33       R16
   1                   -0.57490  -0.50347  -0.17255  -0.16922  -0.15161
                          D35       D12       D31       A29       D39
   1                    0.15044   0.14689  -0.12777  -0.11977  -0.11446
 RFO step:  Lambda0=2.566675083D-03 Lambda=-3.21595936D-02.
 Linear search not attempted -- option 19 set.
 Maximum step size (   0.100) exceeded in Quadratic search.
    -- Step size scaled by   0.271
 Iteration  1 RMS(Cart)=  0.01382792 RMS(Int)=  0.00024056
 Iteration  2 RMS(Cart)=  0.00029491 RMS(Int)=  0.00013890
 Iteration  3 RMS(Cart)=  0.00000008 RMS(Int)=  0.00013890
 Variable       Old X    -DE/DX   Delta X   Delta X   Delta X     New X
                                 (Linear)    (Quad)   (Total)
    R1        4.50826  -0.01683   0.00000   0.01488   0.01486   4.52312
    R2        2.68664  -0.04309   0.00000  -0.04092  -0.04070   2.64594
    R3        2.06153  -0.00106   0.00000  -0.00046  -0.00045   2.06108
    R4        2.83527  -0.00077   0.00000  -0.00153  -0.00153   2.83374
    R5        2.67942  -0.03565   0.00000  -0.03377  -0.03401   2.64540
    R6        2.04911   0.00686   0.00000   0.00384   0.00379   2.05291
    R7        2.55378   0.00518   0.00000   0.00379   0.00379   2.55758
    R8        4.77934  -0.01436   0.00000   0.01643   0.01644   4.79578
    R9        2.66152  -0.04861   0.00000  -0.03986  -0.03965   2.62187
   R10        2.05363  -0.00166   0.00000  -0.00049  -0.00049   2.05314
   R11        2.05463   0.00109   0.00000  -0.00010  -0.00010   2.05453
   R12        2.04973   0.00488   0.00000   0.00257   0.00253   2.05226
   R13        2.05080   0.00380   0.00000   0.00254   0.00254   2.05333
   R14        2.74923  -0.00271   0.00000   0.00330   0.00330   2.75254
   R15        4.82758  -0.00119   0.00000   0.00647   0.00643   4.83401
   R16        4.73852  -0.00233   0.00000   0.00831   0.00829   4.74681
   R17        2.07003   0.00155   0.00000   0.00137   0.00137   2.07139
   R18        2.07156   0.00620   0.00000   0.00453   0.00453   2.07610
   R19        2.06944   0.00432   0.00000   0.00315   0.00315   2.07258
   R20        2.07266   0.00065   0.00000  -0.00027  -0.00027   2.07239
   R21        2.07262   0.00287   0.00000   0.00110   0.00110   2.07372
   R22        2.07128   0.00141   0.00000   0.00017   0.00017   2.07144
    A1        1.73491  -0.00294   0.00000  -0.01970  -0.01951   1.71539
    A2        1.50641   0.00416   0.00000   0.00510   0.00504   1.51145
    A3        1.84833   0.00064   0.00000   0.00530   0.00511   1.85345
    A4        2.04915  -0.00590   0.00000  -0.01114  -0.01127   2.03788
    A5        2.13133   0.00144   0.00000   0.00626   0.00631   2.13764
    A6        2.01460   0.00355   0.00000   0.00887   0.00886   2.02346
    A7        1.81391  -0.00256   0.00000  -0.00293  -0.00300   1.81091
    A8        1.63433   0.00174   0.00000  -0.01092  -0.01083   1.62350
    A9        1.76060  -0.00235   0.00000  -0.01999  -0.01991   1.74069
   A10        2.14922   0.00030   0.00000   0.00643   0.00642   2.15564
   A11        2.06057   0.00025   0.00000   0.00716   0.00686   2.06743
   A12        1.93001   0.00132   0.00000   0.00468   0.00439   1.93440
   A13        1.71502  -0.00583   0.00000  -0.02650  -0.02629   1.68873
   A14        1.44598   0.00584   0.00000   0.00671   0.00664   1.45262
   A15        1.75188   0.00368   0.00000   0.01972   0.01946   1.77134
   A16        2.10205  -0.00450   0.00000  -0.00784  -0.00795   2.09410
   A17        2.10379   0.00012   0.00000  -0.00253  -0.00229   2.10150
   A18        2.05298   0.00355   0.00000   0.01068   0.01052   2.06350
   A19        1.71200  -0.00104   0.00000   0.00444   0.00432   1.71632
   A20        2.07746   0.00208   0.00000   0.00423   0.00435   2.08180
   A21        2.06469  -0.00094   0.00000   0.00528   0.00514   2.06983
   A22        1.69239  -0.00020   0.00000  -0.01284  -0.01276   1.67962
   A23        1.60879   0.00052   0.00000  -0.00647  -0.00648   1.60231
   A24        2.08916  -0.00093   0.00000  -0.00445  -0.00455   2.08461
   A25        1.98478   0.01298   0.00000   0.03216   0.03203   2.01681
   A26        2.04046  -0.00588   0.00000  -0.00067  -0.00117   2.03929
   A27        2.01168  -0.00288   0.00000   0.00123   0.00075   2.01243
   A28        1.42418  -0.00119   0.00000   0.01085   0.01080   1.43499
   A29        1.66661  -0.00518   0.00000  -0.00676  -0.00672   1.65989
   A30        1.40139  -0.00369   0.00000   0.00735   0.00729   1.40868
   A31        1.51922  -0.00342   0.00000  -0.00619  -0.00615   1.51307
   A32        1.91122  -0.00268   0.00000  -0.00413  -0.00412   1.90710
   A33        1.93973   0.00639   0.00000   0.01172   0.01171   1.95144
   A34        1.94851   0.00068   0.00000   0.00231   0.00229   1.95081
   A35        1.88153  -0.00166   0.00000  -0.00350  -0.00349   1.87804
   A36        1.87847   0.00003   0.00000  -0.00296  -0.00296   1.87551
   A37        1.90217  -0.00305   0.00000  -0.00412  -0.00415   1.89802
   A38        1.93505  -0.00464   0.00000  -0.00602  -0.00604   1.92901
   A39        1.94842  -0.00407   0.00000  -0.01117  -0.01120   1.93722
   A40        1.93790  -0.00178   0.00000  -0.00194  -0.00195   1.93595
   A41        1.88876   0.00442   0.00000   0.00810   0.00807   1.89683
   A42        1.85538   0.00420   0.00000   0.00831   0.00831   1.86369
   A43        1.89509   0.00255   0.00000   0.00408   0.00405   1.89914
    D1        0.58693  -0.00393   0.00000  -0.00531  -0.00554   0.58139
    D2        2.77668  -0.00366   0.00000  -0.00306  -0.00321   2.77347
    D3       -1.55572  -0.00224   0.00000  -0.00369  -0.00378  -1.55950
    D4       -1.45835   0.00145   0.00000   0.00545   0.00533  -1.45302
    D5        0.73140   0.00172   0.00000   0.00770   0.00766   0.73906
    D6        2.68218   0.00315   0.00000   0.00708   0.00709   2.68928
    D7        2.81063  -0.00348   0.00000  -0.00558  -0.00572   2.80491
    D8       -1.28280  -0.00320   0.00000  -0.00333  -0.00340  -1.28620
    D9        0.66798  -0.00178   0.00000  -0.00395  -0.00396   0.66402
   D10       -0.96807  -0.00484   0.00000  -0.02452  -0.02493  -0.99300
   D11        1.44433  -0.00059   0.00000   0.01701   0.01696   1.46129
   D12        0.61513  -0.00265   0.00000  -0.03088  -0.03102   0.58411
   D13        3.02753   0.00160   0.00000   0.01065   0.01087   3.03839
   D14       -2.98540  -0.00406   0.00000  -0.01904  -0.01933  -3.00473
   D15       -0.57300   0.00019   0.00000   0.02249   0.02256  -0.55044
   D16       -0.29280  -0.00176   0.00000  -0.00293  -0.00289  -0.29569
   D17       -2.01515  -0.00050   0.00000   0.01680   0.01658  -1.99857
   D18        1.55488   0.00117   0.00000   0.00598   0.00589   1.56077
   D19        1.19643   0.00238   0.00000   0.00863   0.00858   1.20501
   D20       -3.00991   0.00258   0.00000   0.00891   0.00885  -3.00106
   D21       -0.88208   0.00367   0.00000   0.01355   0.01351  -0.86857
   D22       -3.12682  -0.00015   0.00000  -0.00941  -0.00936  -3.13618
   D23       -1.04997   0.00005   0.00000  -0.00912  -0.00909  -1.05906
   D24        1.07786   0.00113   0.00000  -0.00449  -0.00443   1.07343
   D25       -0.43577  -0.00384   0.00000  -0.00265  -0.00265  -0.43842
   D26        1.64107  -0.00364   0.00000  -0.00237  -0.00238   1.63870
   D27       -2.51428  -0.00255   0.00000   0.00227   0.00228  -2.51200
   D28       -0.10723   0.00071   0.00000   0.00188   0.00188  -0.10535
   D29        1.68436   0.00042   0.00000  -0.00940  -0.00936   1.67500
   D30       -1.79842   0.00089   0.00000   0.00576   0.00586  -1.79256
   D31       -1.92045   0.00027   0.00000   0.01517   0.01515  -1.90530
   D32       -0.12886  -0.00003   0.00000   0.00389   0.00391  -0.12494
   D33        2.67154   0.00044   0.00000   0.01905   0.01914   2.69068
   D34        1.82380  -0.00374   0.00000  -0.02122  -0.02134   1.80246
   D35       -2.66779  -0.00404   0.00000  -0.03250  -0.03258  -2.70037
   D36        0.13261  -0.00357   0.00000  -0.01734  -0.01736   0.11525
   D37       -0.29861  -0.00086   0.00000  -0.00175  -0.00173  -0.30033
   D38        1.60808  -0.00268   0.00000  -0.01126  -0.01133   1.59676
   D39       -2.09719   0.00078   0.00000   0.02348   0.02345  -2.07374
   D40       -0.34416   0.00309   0.00000   0.00146   0.00170  -0.34246
   D41       -2.45148   0.00123   0.00000  -0.00086  -0.00072  -2.45221
   D42        1.73251   0.00210   0.00000   0.00619   0.00625   1.73876
   D43        1.74760  -0.00055   0.00000  -0.00421  -0.00408   1.74353
   D44       -0.35972  -0.00241   0.00000  -0.00653  -0.00650  -0.36622
   D45       -2.45892  -0.00154   0.00000   0.00052   0.00048  -2.45844
   D46       -2.49561   0.00371   0.00000   0.00667   0.00693  -2.48868
   D47        1.68025   0.00185   0.00000   0.00435   0.00451   1.68476
   D48       -0.41895   0.00272   0.00000   0.01140   0.01148  -0.40746
   D49        0.88592   0.00388   0.00000   0.02342   0.02383   0.90975
   D50       -1.53890   0.00115   0.00000  -0.01628  -0.01630  -1.55520
   D51       -0.62427   0.00095   0.00000   0.03182   0.03200  -0.59228
   D52       -3.04910  -0.00178   0.00000  -0.00788  -0.00813  -3.05723
   D53        2.75823   0.00451   0.00000   0.02884   0.02924   2.78747
   D54        0.33341   0.00178   0.00000  -0.01087  -0.01089   0.32252
   D55        0.14960   0.00129   0.00000   0.00274   0.00272   0.15231
   D56        1.81482  -0.00179   0.00000  -0.02361  -0.02336   1.79146
   D57       -1.56085  -0.00567   0.00000  -0.02240  -0.02232  -1.58316
   D58       -1.65209   0.00183   0.00000   0.00369   0.00378  -1.64830
   D59        0.15076   0.00103   0.00000   0.00228   0.00227   0.15303
   D60        1.83555   0.00135   0.00000  -0.01365  -0.01351   1.82204
   D61        3.09263  -0.00486   0.00000  -0.02341  -0.02334   3.06929
   D62       -1.08320  -0.00520   0.00000  -0.02483  -0.02474  -1.10795
   D63        1.03420  -0.00600   0.00000  -0.02870  -0.02860   1.00560
   D64       -0.78924   0.00594   0.00000   0.03143   0.03133  -0.75791
   D65        1.31812   0.00560   0.00000   0.03001   0.02993   1.34804
   D66       -2.84766   0.00480   0.00000   0.02615   0.02607  -2.82159
   D67       -0.35602  -0.00152   0.00000  -0.00730  -0.00727  -0.36330
   D68        0.69829  -0.00030   0.00000   0.00858   0.00853   0.70681
         Item               Value     Threshold  Converged?
 Maximum Force            0.048608     0.000450     NO 
 RMS     Force            0.007442     0.000300     NO 
 Maximum Displacement     0.061868     0.001800     NO 
 RMS     Displacement     0.013928     0.001200     NO 
 Predicted change in Energy=-7.240625D-03
 GradGradGradGradGradGradGradGradGradGradGradGradGradGradGradGradGradGrad

                          Input orientation:                          
 ---------------------------------------------------------------------
 Center     Atomic      Atomic             Coordinates (Angstroms)
 Number     Number       Type             X           Y           Z
 ---------------------------------------------------------------------
      1          6           0        0.787031   -0.376627   -0.871478
      2          6           0       -1.519653   -0.543815   -0.254829
      3          6           0        0.319499    1.903810   -0.494016
      4          6           0       -1.935291    0.789286   -0.155973
      5          7           0        1.096795    0.799116   -0.177104
      6          1           0       -2.426337    1.256820   -1.004324
      7          1           0       -0.043678    2.039004   -1.509031
      8          1           0       -1.758062   -1.185371   -1.098466
      9          1           0        0.251031    2.743800    0.192831
     10          1           0        0.437182   -0.262923   -1.898245
     11          1           0       -2.042829    1.228553    0.832020
     12          9           0       -1.400629   -1.268190    0.882202
     13          6           0        1.407436   -1.699106   -0.532654
     14          1           0        1.017410   -2.466180   -1.211615
     15          1           0        2.499911   -1.678675   -0.646897
     16          1           0        1.165773   -2.011636    0.490486
     17          6           0        1.436191    0.660415    1.232576
     18          1           0        1.730486    1.629020    1.654308
     19          1           0        0.584834    0.271677    1.805541
     20          1           0        2.289401   -0.014877    1.365168
 ---------------------------------------------------------------------
                    Distance matrix (angstroms):
                    1          2          3          4          5
     1  C    0.000000
     2  C    2.393533   0.000000
     3  C    2.358274   3.070921   0.000000
     4  C    3.046693   1.399888   2.537817   0.000000
     5  N    1.400171   2.941990   1.387434   3.032176   0.000000
     6  H    3.607150   2.150838   2.866814   1.086007   3.647772
     7  H    2.632836   3.228386   1.086476   2.640220   2.147564
     8  H    2.680129   1.086351   3.771559   2.195216   3.596847
     9  H    3.340226   3.760869   1.087212   2.953268   2.152665
    10  H    1.090676   2.570782   2.584655   3.125905   2.127285
    11  H    3.672413   2.143885   2.791941   1.086577   3.325656
    12  F    2.942130   1.353412   3.861916   2.365772   3.410719
    13  C    1.499551   3.159071   3.763788   4.184233   2.542444
    14  H    2.129554   3.323795   4.483173   4.520053   3.426174
    15  H    2.163267   4.195059   4.196638   5.099300   2.885981
    16  H    2.161398   3.149842   4.125062   4.228436   2.889768
    17  C    2.433907   3.521300   2.402946   3.648503   1.456579
    18  H    3.360405   4.350795   2.584897   4.173751   2.108169
    19  H    2.761813   3.055981   2.832353   3.235196   2.114516
    20  H    2.718559   4.172896   3.319404   4.561642   2.112699
                    6          7          8          9         10
     6  H    0.000000
     7  H    2.558047   0.000000
     8  H    2.533723   3.674816   0.000000
     9  H    3.288249   1.865455   4.598074   0.000000
    10  H    3.362804   2.383607   2.511902   3.667101   0.000000
    11  H    1.876175   3.183387   3.104013   2.822468   3.978605
    12  F    3.314624   4.300795   2.014365   4.393094   3.481234
    13  C    4.863926   4.127046   3.256447   4.647904   2.206547
    14  H    5.075735   4.638000   3.058843   5.450109   2.379593
    15  H    5.745677   4.586312   4.310174   5.031987   2.797334
    16  H    5.081389   4.676379   3.428745   4.851754   3.048750
    17  C    4.503170   3.406894   4.363936   2.612694   3.413592
    18  H    4.948336   3.649994   5.260089   2.359542   4.227614
    19  H    4.234737   3.808525   4.005673   2.970463   3.745081
    20  H    5.428618   4.233522   4.880729   3.624863   3.760599
                   11         12         13         14         15
    11  H    0.000000
    12  F    2.578500   0.000000
    13  C    4.726293   3.173757   0.000000
    14  H    5.214648   3.415576   1.096135   0.000000
    15  H    5.592465   4.209615   1.098623   1.771124   0.000000
    16  H    4.572811   2.700476   1.096764   1.767985   1.784497
    17  C    3.547789   3.448162   2.946896   3.990619   3.183592
    18  H    3.882581   4.335188   3.995446   5.049025   4.102244
    19  H    2.961076   2.676903   3.166673   4.097098   3.672308
    20  H    4.538567   3.926878   2.686302   3.777123   2.619341
                   16         17         18         19         20
    16  H    0.000000
    17  C    2.786337   0.000000
    18  H    3.863646   1.096660   0.000000
    19  H    2.698218   1.097367   1.782630   0.000000
    20  H    2.452479   1.096160   1.760223   1.783701   0.000000
 Stoichiometry    C6H12FN
 Framework group  C1[X(C6H12FN)]
 Deg. of freedom    54
 Full point group                 C1      NOp   1
 Largest Abelian subgroup         C1      NOp   1
 Largest concise Abelian subgroup C1      NOp   1
                         Standard orientation:                         
 ---------------------------------------------------------------------
 Center     Atomic      Atomic             Coordinates (Angstroms)
 Number     Number       Type             X           Y           Z
 ---------------------------------------------------------------------
      1          6           0       -0.728384    0.459371   -0.846893
      2          6           0        1.587634    0.411763   -0.244568
      3          6           0       -0.461568   -1.859734   -0.512205
      4          6           0        1.884666   -0.954310   -0.171751
      5          7           0       -1.136546   -0.696692   -0.170578
      6          1           0        2.327585   -1.448103   -1.031637
      7          1           0       -0.117687   -2.008304   -1.532060
      8          1           0        1.876738    1.044740   -1.078784
      9          1           0       -0.463414   -2.714579    0.159558
     10          1           0       -0.395952    0.333587   -1.878029
     11          1           0        1.958840   -1.418853    0.807712
     12          9           0        1.539623    1.123457    0.905610
     13          6           0       -1.227751    1.825110   -0.480773
     14          1           0       -0.775588    2.566814   -1.149305
     15          1           0       -2.318423    1.903008   -0.587253
     16          1           0       -0.953472    2.096886    0.545774
     17          6           0       -1.454115   -0.553747    1.243755
     18          1           0       -1.830202   -1.500021    1.650926
     19          1           0       -0.568449   -0.251755    1.817001
     20          1           0       -2.243658    0.191596    1.394268
 ---------------------------------------------------------------------
 Rotational constants (GHZ):           2.1810512           1.7548985           1.3188478
 Standard basis: STO-3G (5D, 7F)
 There are    52 symmetry adapted cartesian basis functions of A   symmetry.
 There are    52 symmetry adapted basis functions of A   symmetry.
    52 basis functions,   156 primitive gaussians,    52 cartesian basis functions
    32 alpha electrons       32 beta electrons
       nuclear repulsion energy       399.0974183000 Hartrees.
 NAtoms=   20 NActive=   20 NUniq=   20 SFac= 1.00D+00 NAtFMM=   60 NAOKFM=F Big=F
 Integral buffers will be    131072 words long.
 Raffenetti 1 integral format.
 Two-electron integral symmetry is turned on.
 External calculation of energy, first and second derivatives.
 Running external command "~/scripts/MiMe -H 'wb97xd def2svp' -EF 'wb97xd def2svp' -c 12 -m 48GB R"
         input file       "/local/jobs/1158115/Gau-1289697.EIn"
         output file      "/local/jobs/1158115/Gau-1289697.EOu"
         message file     "/local/jobs/1158115/Gau-1289697.EMs"
         fchk file        "/local/jobs/1158115/Gau-1289697.EFC"
         mat. el file     "/local/jobs/1158115/Gau-1289697.EUF"
 Read checkpoint file Gau-1289697_H.chk type G16
 Write formatted file Gau-1289697_H.fchk

deriv: 2

spelevel: wb97xd def2svp
gradlevel: wb97xd def2svp
hesslevel: wb97xd def2svp

runspe: False
runforce: False
runfreq: True

Running Gaussian ...

Parsing files ...
SPE file: Gau-1289697_H.out
FORCE file: Gau-1289697_H.out
HESS file: Gau-1289697_H.out

 ExternalExternalExternalExternalExternalExternalExternalExternalExternalExternal
 Output from external command:
 "~/scripts/MiMe -H 'wb97xd def2svp' -EF 'wb97xd def2svp' -c 12 -m 48GB R /local/jobs/1158115/Gau-1289697.EIn /local/jobs/1158115/Gau-1289697.EOu /local/jobs/1158115/Gau-1289697.EMs /local/jobs/1158115/Gau-1289697.EFC /local/jobs/1158115/Gau-1289697.EUF"
  
 --------------------------------------------------
 Hessian calculation at wb97xd def2svp
 ExternalExternalExternalExternalExternalExternalExternalExternalExternalExternal

 Recovered energy= -389.914348818     dipole=     -1.580400000000     -0.501700000000     -0.270600000000
 Energy=    -389.914349     NIter=   0.
 Dipole moment=      -1.580400      -0.501700      -0.270600
 ***** Axes restored to original set *****
 -------------------------------------------------------------------
 Center     Atomic                   Forces (Hartrees/Bohr)
 Number     Number              X              Y              Z
 -------------------------------------------------------------------
      1        6          -0.003958671    0.007819988    0.016463288
      2        6          -0.000624974    0.027679854    0.003292914
      3        6           0.005563681   -0.020629322    0.010009672
      4        6           0.024315156   -0.025485611   -0.002654488
      5        7          -0.058666558   -0.002015890   -0.023487802
      6        1           0.000954295    0.002951868   -0.002062302
      7        1           0.005994084   -0.002385112   -0.002304202
      8        1          -0.000042844   -0.001235480   -0.005527472
      9        1           0.008190253    0.000591107    0.001359801
     10        1           0.004532878    0.008234658   -0.000203808
     11        1          -0.002591618    0.001681487    0.002115747
     12        9           0.005886776   -0.000878884    0.003550014
     13        6           0.001815054    0.009117541    0.000114806
     14        1          -0.000900656   -0.000402447   -0.000928360
     15        1           0.004808405   -0.003131880    0.000434180
     16        1          -0.000317871   -0.001744745    0.002864979
     17        6           0.008630078    0.001197023    0.002935631
     18        1          -0.000829941    0.001978608   -0.002749945
     19        1          -0.002986745   -0.001619440   -0.001471603
     20        1           0.000229220   -0.001723324   -0.001751049
 -------------------------------------------------------------------
 Cartesian Forces:  Max     0.058666558 RMS     0.011172236
 FormGI is forming the generalized inverse of G from B-inverse, IUseBI=4.

 GradGradGradGradGradGradGradGradGradGradGradGradGradGradGradGradGradGrad
 Berny optimization.
 Internal  Forces:  Max     0.035523448 RMS     0.005590644
 Search for a saddle point.
 Step number   3 out of a maximum of   50
 All quantities printed in internal units (Hartrees-Bohrs-Radians)
 Swapping is turned off.
 Second derivative matrix not updated -- analytic derivatives used.
 ITU=  0  0  0
     Eigenvalues ---   -0.02360   0.00062   0.00144   0.00273   0.00332
     Eigenvalues ---    0.00473   0.00573   0.00890   0.01068   0.01191
     Eigenvalues ---    0.01283   0.01503   0.01718   0.02091   0.02996
     Eigenvalues ---    0.03608   0.03973   0.04425   0.04448   0.04555
     Eigenvalues ---    0.05007   0.05075   0.05780   0.06067   0.06127
     Eigenvalues ---    0.06324   0.07839   0.10393   0.12175   0.12667
     Eigenvalues ---    0.13398   0.14587   0.15375   0.17135   0.17329
     Eigenvalues ---    0.18983   0.31501   0.32478   0.33103   0.34108
     Eigenvalues ---    0.34446   0.34979   0.35188   0.35330   0.35409
     Eigenvalues ---    0.35493   0.36018   0.36639   0.37685   0.37848
     Eigenvalues ---    0.38014   0.38473   0.40325   0.45114
 Eigenvectors required to have negative eigenvalues:
                          R1        R8        D51       D33       D35
   1                   -0.56797  -0.50285  -0.17751  -0.17594   0.15497
                          D12       R16       D31       D39       A29
   1                    0.15046  -0.14923  -0.13052  -0.11800  -0.11723
 RFO step:  Lambda0=2.058027035D-03 Lambda=-2.13675900D-02.
 Linear search not attempted -- option 19 set.
 Maximum step size (   0.100) exceeded in Quadratic search.
    -- Step size scaled by   0.316
 Iteration  1 RMS(Cart)=  0.01338738 RMS(Int)=  0.00028672
 Iteration  2 RMS(Cart)=  0.00033838 RMS(Int)=  0.00017692
 Iteration  3 RMS(Cart)=  0.00000010 RMS(Int)=  0.00017692
 Variable       Old X    -DE/DX   Delta X   Delta X   Delta X     New X
                                 (Linear)    (Quad)   (Total)
    R1        4.52312  -0.01339   0.00000   0.01677   0.01675   4.53987
    R2        2.64594  -0.03148   0.00000  -0.03383  -0.03357   2.61237
    R3        2.06108  -0.00074   0.00000  -0.00025  -0.00024   2.06084
    R4        2.83374  -0.00059   0.00000  -0.00192  -0.00192   2.83182
    R5        2.64540  -0.02600   0.00000  -0.02874  -0.02902   2.61638
    R6        2.05291   0.00516   0.00000   0.00317   0.00311   2.05601
    R7        2.55758   0.00397   0.00000   0.00298   0.00298   2.56056
    R8        4.79578  -0.01137   0.00000   0.01800   0.01802   4.81380
    R9        2.62187  -0.03552   0.00000  -0.03185  -0.03161   2.59025
   R10        2.05314  -0.00119   0.00000  -0.00018  -0.00018   2.05296
   R11        2.05453   0.00080   0.00000  -0.00014  -0.00014   2.05439
   R12        2.05226   0.00366   0.00000   0.00211   0.00207   2.05432
   R13        2.05333   0.00286   0.00000   0.00222   0.00222   2.05556
   R14        2.75254  -0.00175   0.00000   0.00293   0.00293   2.75547
   R15        4.83401  -0.00099   0.00000   0.00838   0.00833   4.84234
   R16        4.74681  -0.00188   0.00000   0.01144   0.01142   4.75823
   R17        2.07139   0.00118   0.00000   0.00136   0.00136   2.07275
   R18        2.07610   0.00468   0.00000   0.00419   0.00419   2.08028
   R19        2.07258   0.00324   0.00000   0.00286   0.00286   2.07544
   R20        2.07239   0.00047   0.00000  -0.00037  -0.00037   2.07201
   R21        2.07372   0.00212   0.00000   0.00105   0.00105   2.07477
   R22        2.07144   0.00103   0.00000   0.00006   0.00006   2.07150
    A1        1.71539  -0.00261   0.00000  -0.02292  -0.02267   1.69272
    A2        1.51145   0.00347   0.00000   0.00826   0.00819   1.51965
    A3        1.85345   0.00048   0.00000   0.00436   0.00411   1.85755
    A4        2.03788  -0.00473   0.00000  -0.01117  -0.01129   2.02659
    A5        2.13764   0.00126   0.00000   0.00532   0.00535   2.14299
    A6        2.02346   0.00280   0.00000   0.01034   0.01033   2.03378
    A7        1.81091  -0.00191   0.00000  -0.00280  -0.00287   1.80804
    A8        1.62350   0.00121   0.00000  -0.01373  -0.01362   1.60988
    A9        1.74069  -0.00217   0.00000  -0.02302  -0.02293   1.71775
[...]
 -0.00392027,-0.00201560,0.00099842,0.00049387,0.00015714,-0.00015748,0
 .03324400,-0.00078123,0.00061482,-0.00006080,-0.02432734,-0.17886397,-
 0.15106912,-0.00057504,-0.00015441,-0.00037994,-0.00391073,-0.00531575
 ,-0.02061358,0.00096683,-0.00051304,0.00016852,-0.00055938,0.00018100,
 0.00035428,0.00006473,0.00001102,-0.00002470,0.02309635,0.17632840,0.0
 0296902,0.00157981,0.00148660,-0.03650606,-0.14372667,-0.21882059,0.00
 133425,0.00153732,0.00003613,-0.00188169,-0.00032953,0.00512322,-0.000
 39010,-0.00060639,-0.00050029,0.00152937,0.00008879,0.00017916,-0.0000
 6859,-0.00004556,0.00004720,0.04288821,0.14710495,0.24415607,-0.000659
 62,-0.00456415,-0.00457030,0.00207441,-0.00147450,-0.00029901,-0.02466
 775,-0.04305992,-0.05024001,0.00080615,0.00086406,-0.00199534,-0.00463
 724,0.02449687,0.01334081,-0.00054453,-0.00024049,0.00011102,-0.001088
 92,-0.00530692,-0.00098606,-0.00035318,-0.00001546,0.00014238,0.029690
 98,0.00348096,-0.00168655,0.00325116,0.00037078,-0.00017410,0.00005003
 ,-0.02215217,-0.23653590,-0.14523083,-0.00004520,-0.00014007,-0.000400
 51,-0.00806766,-0.02158422,-0.01574607,-0.00017733,-0.00003070,0.00008
 784,0.00054421,0.00695766,0.00580228,-0.00003898,0.00003279,0.00002919
 ,0.02723041,0.25294398,-0.00094543,0.00403693,0.00090966,-0.00058881,0
 .00060148,0.00002528,-0.04250349,-0.15154121,-0.16352375,-0.00024003,0
 .00022714,0.00065988,0.00326131,0.00622846,0.00359167,0.00038107,0.000
 01780,0.00001009,-0.00148931,-0.01918057,-0.00745141,0.00011959,0.0000
 6334,-0.00006832,0.04287126,0.15466905,0.16413124,-0.03907906,0.023122
 17,-0.06973932,-0.00658690,0.00203611,0.00623058,-0.00108468,0.0033766
 1,0.00043004,-0.00053797,-0.00452465,-0.00032345,-0.00150689,-0.006746
 40,-0.01168750,0.00020264,0.00029313,0.00004838,0.00167612,0.00060710,
 0.00038508,0.00044414,-0.00029247,0.00011225,-0.00144398,-0.00063259,0
 .00042315,0.04546411,0.02182333,-0.06022506,0.05491649,-0.00028591,-0.
 00017078,0.00128062,-0.00196087,0.00125463,-0.00315472,0.00023638,-0.0
 0034232,-0.00051075,-0.00781905,0.00043205,-0.03304919,0.00006648,0.00
 001432,0.00001788,0.00000692,-0.00058705,0.00061519,-0.00029691,-0.000
 06747,0.00014261,0.00003012,0.00000067,0.00030058,-0.01854409,0.069548
 08,-0.08353091,0.03879690,-0.32054937,0.00175975,-0.00068418,-0.001822
 32,-0.00105922,0.00182154,0.00105123,0.00031853,0.00138139,0.00037293,
 -0.00371398,0.00432997,-0.01719682,0.00009692,-0.00007351,0.00001060,0
 .00054174,-0.00068787,0.00008927,0.00008812,0.00017728,0.00040802,0.00
 004355,-0.00008623,0.00040441,0.08530440,-0.04172197,0.33574455,-0.003
 24750,0.00098811,0.00025249,0.00916374,-0.00214880,0.00510008,-0.00765
 691,-0.00210230,0.00382447,-0.02699783,0.02983512,0.01721319,0.0031399
 0,0.00037431,0.00034128,0.00193444,-0.00717195,-0.00917426,0.00004681,
 0.00003641,-0.00023947,0.00441185,0.00130701,-0.00148200,0.00012555,-0
 .00011085,-0.00018370,0.00046195,0.00009525,-0.00023222,0.02638464,-0.
 00118852,-0.00017688,-0.00000986,0.00175427,-0.01000088,-0.02800375,-0
 .00280190,-0.00067801,0.00204694,0.02267471,-0.11215390,-0.12440659,0.
 00161070,0.00018716,0.00001342,-0.00245065,0.00750606,0.01227508,-0.00
 000709,-0.00000549,-0.00004264,0.00404002,-0.00363472,0.00036406,-0.00
 011250,0.00000803,-0.00006256,0.00018129,-0.00000549,-0.00004509,-0.01
 982091,0.11578444,0.00059919,0.00100638,0.00020096,-0.00330817,0.00441
 207,0.00083248,-0.00034878,0.00111743,-0.00023594,0.01527827,-0.130969
 10,-0.28870920,-0.00034441,-0.00143918,-0.00006892,0.00368817,-0.01127
 864,-0.01130900,-0.00004638,-0.00008019,0.00009472,-0.00063020,0.00013
 432,0.00097858,0.00030196,0.00010121,0.00009959,-0.00021385,-0.0000073
 3,0.00010047,-0.01646595,0.13725636,0.29630572,-0.01060957,-0.00487000
 ,0.00766765,-0.04701172,0.02340892,-0.04416340,-0.00121190,-0.00402546
 ,0.00013394,0.00075307,0.01713338,-0.01940637,0.00663825,0.00760254,0.
 00148358,0.00808740,0.00570337,-0.00139708,0.00008518,0.00006638,0.000
 26377,-0.00030638,0.00576678,-0.00870595,-0.00044400,-0.00006845,0.000
 21536,-0.00055323,-0.00037670,0.00009102,-0.00626185,-0.00361675,0.001
 45069,0.05371582,-0.00055300,0.00088569,0.00693855,0.03534737,-0.13183
 569,0.08869922,-0.00343702,0.00039228,-0.00050414,0.01659740,-0.019642
 00,0.05184262,0.00106064,-0.00282161,-0.00158327,0.00133675,-0.0055348
 6,-0.00099132,0.00063497,0.00026076,-0.00041254,-0.00175737,0.01119073
 ,-0.00626285,0.00004517,0.00004711,-0.00011365,-0.00123275,0.00003297,
 0.00011877,-0.00151404,0.00306715,-0.00007219,-0.04395610,0.14503091,0
 .00464710,-0.00052638,-0.01147866,-0.06139481,0.09491905,-0.23914236,0
 .00863189,0.00155169,0.00108461,-0.00906223,0.00764808,-0.00887990,-0.
 00057078,0.00651882,0.00199315,0.00047619,0.00022727,0.00178927,-0.001
 07069,-0.00050632,0.00070930,-0.00617891,0.02410610,-0.03299371,0.0000
 9983,0.00007139,0.00011844,0.00108850,-0.00014687,0.00041981,0.0015211
 5,0.00087817,0.00132060,0.06131937,-0.13565821,0.28468341,-0.09066986,
 0.07686266,-0.03031537,-0.00557456,0.00347147,0.00025132,-0.00229362,0
 .00714677,-0.00337596,0.00036314,0.00033558,0.00077407,0.00227946,-0.0
 1776296,0.00649225,0.00031725,0.00013177,-0.00010649,-0.00108180,-0.00
 035129,-0.00021157,0.00036814,-0.00023132,-0.00016207,0.00349361,0.000
 60557,-0.00142618,-0.00077218,0.00304078,0.00134891,-0.00040807,-0.000
 05850,-0.00009611,0.00025386,0.00083464,-0.00115853,0.53467398,0.06601
 589,-0.19770019,0.04205957,0.00300247,0.00088298,-0.00321805,-0.005114
 08,0.00545451,-0.00236018,0.00020901,0.00082628,0.00011525,0.01442671,
 -0.03767309,-0.00076648,-0.00013605,0.00007150,0.00012912,0.00017437,0
 .00011489,0.00009814,-0.00069368,0.00018612,0.00012773,0.00182911,-0.0
 0012597,-0.00016040,0.00157715,-0.00236455,-0.00120465,-0.00012785,0.0
 0002657,-0.00011313,-0.00018441,-0.00137628,0.00312048,0.01930585,0.52
 829791,-0.03403250,0.03903246,-0.10018583,0.00087202,-0.00229268,0.002
 50587,-0.00291310,-0.00250735,-0.00299945,0.00036146,0.00082968,-0.000
 51793,0.01424764,-0.01856179,0.00763772,0.00006869,-0.00005224,-0.0000
 0985,0.00077028,-0.00003786,0.00044748,-0.00002891,0.00011974,-0.00011
 338,-0.00074628,-0.00140980,0.00110704,-0.01147881,0.02172375,-0.00085
 232,-0.00010976,-0.00013061,0.00006768,-0.00010408,0.00118745,-0.00187
 586,0.00397532,0.01973095,0.57735208,0.00295994,0.01024564,0.01097005,
 0.00043231,0.00019058,0.00015032,0.00045932,-0.00002399,0.00047397,-0.
 00001685,0.00000776,-0.00012811,-0.00113248,0.00342607,-0.00102814,-0.
 00000292,0.00000749,0.00000922,-0.00000447,0.00000859,-0.00000241,-0.0
 0018703,-0.00005694,-0.00013917,-0.00011999,0.00017026,-0.00006437,0.0
 0045964,-0.00012601,-0.00001150,-0.00001746,-0.00003720,-0.00000263,-0
 .00006130,-0.00023025,-0.00005050,-0.06837206,-0.05760969,-0.05480344,
 0.07086629,-0.00919521,-0.01726459,-0.02050429,-0.00058846,0.00007053,
 0.00006677,-0.00017399,-0.00008754,-0.00111321,0.00006314,-0.00030814,
 0.00013414,0.00260510,-0.00546963,0.00246594,0.00006285,-0.00000976,-0
 .00002664,-0.00009384,-0.00006521,0.00009280,0.00037386,-0.00000231,-0
 .00003781,0.00036470,-0.00026282,0.00007251,-0.00023501,0.00068551,0.0
 0025372,-0.00000273,0.00003030,0.00002334,0.00007397,0.00020966,-0.000
 13511,-0.05535730,-0.17931535,-0.12672027,0.05778079,0.19482898,0.0027
 4366,0.00796475,0.00509249,0.00000644,-0.00018911,-0.00007031,-0.00007
 153,0.00002064,0.00038555,-0.00001907,0.00004254,0.00012443,-0.0008516
 8,0.00297917,0.00037445,0.00000119,-0.00000187,-0.00000170,0.00003767,
 -0.00000201,-0.00002057,0.00018977,-0.00010961,0.00005678,-0.00013614,
 0.00006200,0.00002471,0.00042340,0.00032966,0.00069020,-0.00003599,0.0
 0002293,0.00000655,0.00022751,0.00029358,-0.00002984,-0.05416095,-0.12
 978435,-0.16835682,0.05972094,0.13686295,0.17688449,-0.00854149,0.0076
 0795,-0.00061705,0.00144897,0.00005787,-0.00092335,-0.00212364,0.00246
 525,0.00058883,0.00013502,0.00089928,0.00025656,0.00163198,-0.00392866
 ,-0.00263931,0.00000778,0.00004344,0.00004343,0.00003969,-0.00003238,0
 .00004111,-0.00002763,-0.00016554,-0.00001497,0.00055862,0.00014489,-0
 .00029781,-0.00107728,0.00047643,0.00038676,-0.00021271,-0.00002645,-0
 .00009166,0.00016988,-0.00019972,0.00030220,-0.30126207,-0.01645805,0.
 00696975,-0.00764773,0.00023156,0.00142428,0.32573715,0.02855360,-0.00
 374460,-0.00183168,-0.00089012,-0.00065750,0.00174176,0.00304997,-0.00
 434119,0.00071544,-0.00037843,-0.00125128,-0.00009500,-0.00073168,0.00
 716879,0.00078882,0.00005801,-0.00002218,-0.00007576,-0.00010078,0.000
 00313,0.00006929,0.00041222,0.00007532,-0.00004762,-0.00095701,-0.0002
 5967,0.00036135,0.00036937,-0.00058107,0.00005009,0.00019905,0.0000406
 0,0.00006599,-0.00058658,0.00098554,-0.00100044,-0.00934949,-0.0444285
 8,0.00016438,-0.02157277,-0.00074049,0.00208688,0.00966953,0.04897103,
 -0.00880211,0.00097226,0.00025992,0.00050037,0.00103206,-0.00136582,-0
 .00021617,0.00040580,0.00019778,-0.00012350,-0.00003571,0.00023837,0.0
 0057453,-0.00161642,-0.00087867,-0.00000939,-0.00000146,0.00001108,-0.
 00013718,-0.00006977,-0.00005186,0.00005421,-0.00008557,-0.00002031,0.
 00020177,0.00001963,-0.00005984,-0.00012882,0.00052114,-0.00021020,-0.
 00002430,0.00002796,-0.00002176,0.00042555,-0.00089456,0.00105313,0.00
 528318,-0.00007728,-0.04572519,-0.02127358,0.00012171,0.00098172,-0.00
 493615,-0.00166517,0.04394079,0.00334237,0.00387854,-0.01575145,-0.000
 45255,0.00081783,-0.00211217,-0.00065399,-0.00037814,-0.00010886,0.000
 43292,0.00050187,0.00047380,0.00064236,-0.00034228,0.00006165,0.000024
 32,-0.00012969,0.00000810,0.00021080,0.00003121,0.00001844,-0.00004178
 ,-0.00011858,0.00017250,-0.00015554,-0.00008312,0.00012968,-0.00101476
 ,0.00274200,-0.00059966,-0.00010904,-0.00000979,-0.00003067,-0.0005270
 9,-0.00064754,0.00133947,-0.06927632,-0.02489190,0.07465866,0.00241159
 ,0.00385448,-0.00935186,-0.00841577,-0.00840250,0.02861419,0.07324079,
 -0.00366416,-0.00953917,0.02500568,-0.00133370,-0.00034778,0.00231960,
 0.00261356,-0.00167973,0.00010728,-0.00023600,-0.00098838,-0.00009046,
 -0.00136407,0.00333471,0.00094664,0.00012655,0.00004403,-0.00011892,-0
 .00070164,-0.00016206,-0.00007145,0.00018661,0.00007338,-0.00012302,0.
 00025569,0.00013987,-0.00016510,0.00051285,-0.00362568,0.00062828,0.00
 012259,-0.00001835,0.00001852,-0.00079027,0.00083146,-0.00181609,-0.02
 508889,-0.06965978,0.07359545,0.00783252,0.00744804,-0.02005417,-0.000
 84635,-0.00120647,0.00144280,0.02321092,0.07708772,-0.00255972,0.00508
 561,-0.00456086,0.00046885,0.00129828,-0.00188670,-0.00033202,0.000691
 31,0.00018326,-0.00009752,-0.00021394,-0.00002951,-0.00086729,-0.00222
 938,-0.00085790,-0.00006037,-0.00000138,0.00006189,0.00024822,0.000024
 54,-0.00000889,-0.00024653,0.00006757,-0.00003164,-0.00004156,0.000022
 41,0.00009538,0.00102002,0.00168530,0.00026838,0.00007951,0.00003023,-
 0.00001051,0.00123523,-0.00163960,0.00140344,0.07444257,0.07153948,-0.
 26773078,0.00633331,0.00731672,-0.01562013,-0.00116624,-0.00098064,0.0
 0098580,-0.07822773,-0.08092059,0.28787010,-0.00066761,-0.00450594,-0.
 00628928,0.00229559,-0.00198898,-0.00038164,-0.00884255,0.00791196,-0.
 01986546,0.00115161,0.00242525,0.00002598,-0.09185137,0.01078263,-0.04
 223592,-0.00002144,-0.00003376,-0.00001512,0.00486049,0.00217336,-0.00
 211551,-0.00014114,-0.00000347,-0.00000838,-0.00319999,-0.00195872,0.0
 0105503,0.00456928,0.00140285,-0.00054444,-0.00037099,-0.00011087,0.00
 007480,-0.00111518,-0.00004936,-0.00049264,-0.00273458,-0.00200056,0.0
 0172125,-0.00053037,0.00025474,-0.00049592,-0.00068367,0.00122663,0.00
 033488,0.00097817,-0.00081469,-0.00091834,0.59484945,-0.01041513,0.006
 61861,-0.02919624,0.00036202,-0.00093443,-0.00156691,0.00938661,-0.002
 81224,0.03141711,0.00035942,0.00054615,-0.00005791,0.01205965,-0.10657
 055,0.00851808,-0.00019372,0.00000565,0.00006634,0.00362546,-0.0031350
 0,0.00024079,0.00006559,-0.00001037,0.00008408,0.00056176,-0.00006133,
 0.00319670,-0.00001683,-0.00417333,-0.00332234,-0.00023411,0.00017306,
 -0.00018562,-0.00028112,0.00037222,0.00069186,-0.00179266,-0.00311755,
 -0.00263341,-0.00002875,0.00016057,-0.00030597,-0.00031005,0.00004263,
 -0.00009609,0.00021065,-0.00072501,-0.00114040,-0.00366790,0.64501041,
 -0.00971395,-0.01014416,-0.02798641,0.00398770,-0.00298128,0.00389570,
 -0.01235373,0.01211294,-0.01610668,0.00200169,0.00279908,-0.00003420,-
 0.04811734,0.01236138,-0.21257893,0.00036514,0.00002489,-0.00008635,-0
 .00149619,-0.00164614,0.00190409,-0.00030267,0.00002975,-0.00016053,0.
 00236696,-0.00266437,-0.00033376,-0.00111508,-0.00152692,0.00155512,-0
 .00032935,-0.00044689,0.00038787,-0.00274392,-0.00031362,-0.00359774,-
 0.00076424,0.00055395,-0.00084878,-0.00036507,0.00111241,-0.00076442,-
 0.00006674,0.00046275,0.00074843,0.00026748,0.00086008,0.00013821,-0.0
 2293599,0.02078054,0.50921717,-0.00011584,0.00171383,-0.00203728,0.000
 07716,-0.00007455,0.00057025,-0.00001690,-0.00112526,-0.00082565,-0.00
 011470,-0.00018084,-0.00003104,-0.00411476,-0.01111418,-0.00491532,0.0
 0002066,0.00004904,0.00003389,-0.00004554,0.00021676,0.00024151,0.0000
 4116,0.00003779,-0.00005512,0.00038630,0.00068164,-0.00076857,0.000567
 93,-0.00038317,-0.00039811,-0.00009221,-0.00003195,0.00000443,-0.00036
 608,-0.00001364,-0.00044178,-0.00017060,0.00058203,0.00033392,0.000178
 26,-0.00002712,0.00011877,0.00021416,-0.00013432,-0.00019100,-0.000238
 31,0.00013896,0.00034240,-0.05405209,-0.03459852,-0.01441803,0.0519089
 5,0.00061437,0.00040471,0.00123477,0.00027959,-0.00020445,0.00031422,0
 .00140181,0.00071993,0.00290754,0.00002443,0.00008517,-0.00007301,0.00
 153236,0.00324506,0.00384731,-0.00001519,0.00002126,0.00001944,0.00024
 170,0.00044403,0.00013528,-0.00000062,0.00000857,-0.00002316,0.0002630
 6,0.00036773,0.00099138,0.00001505,0.00029556,0.00002931,-0.00006604,-
 0.00001433,-0.00000998,-0.00026026,0.00004146,-0.00027840,-0.00027881,
 -0.00037350,-0.00024778,-0.00001705,0.00004785,-0.00019074,-0.00014660
 ,0.00003971,0.00010277,0.00013793,0.00033151,-0.00015200,-0.03905198,-
 0.29279405,-0.10316732,0.03869775,0.30728488,-0.00171121,0.00439864,-0
 .00387395,-0.00059752,0.00061680,-0.00041967,0.00088860,-0.00214484,0.
 00030429,-0.00028839,-0.00049063,0.00007431,-0.00581573,-0.03385806,-0
 .01935247,0.00004046,-0.00000036,-0.00000273,0.00031282,0.00023486,0.0
 0026514,0.00008733,0.00001371,0.00000841,-0.00053971,0.00089653,0.0002
 0373,-0.00037284,-0.00129455,-0.00074036,0.00004340,0.00002403,-0.0000
 1350,0.00040095,-0.00012586,0.00056498,-0.00009666,0.00065461,0.000094
 06,0.00000107,-0.00011933,0.00020772,0.00006677,0.00010309,-0.00004702
 ,-0.00006336,-0.00022521,0.00014394,-0.01477988,-0.08985122,-0.0859226
 9,0.02137765,0.10463674,0.10006335,0.00036260,0.00008125,0.00013650,0.
 00034232,0.00094804,-0.00180179,0.00020565,-0.00048636,-0.00128498,0.0
 0043120,0.00016639,0.00050744,0.01142665,0.00947197,-0.01088044,0.0002
 7887,0.00006722,0.00006120,-0.00069242,0.00000158,0.00015357,-0.000107
 30,-0.00018789,0.00028747,0.00026537,0.00013078,-0.00007212,-0.0003235
 8,0.00002353,0.00008468,-0.00038698,0.00006508,0.00017756,-0.00115682,
 -0.00188387,0.00114350,-0.00005270,-0.00061202,-0.00028468,0.00011675,
 0.00007759,-0.00027821,-0.00006736,-0.00022198,0.00004207,0.00025869,0
 .00051215,0.00010967,-0.18486708,-0.09707899,0.10512732,-0.00088547,0.
 00102167,0.00048498,0.18956035,0.00007510,-0.00077415,-0.00159846,-0.0
 0011803,0.00154637,-0.00103611,0.00049631,0.00039817,0.00040154,-0.000
 23587,-0.00016805,0.00022032,-0.00001469,-0.00103935,0.00329876,0.0000
 0582,-0.00011593,-0.00009618,0.00056273,0.00006849,-0.00004724,-0.0000
 0949,-0.00014932,0.00016898,-0.00064981,-0.00004023,0.00041558,-0.0000
 4372,-0.00009405,0.00014292,0.00032366,-0.00007891,0.00000384,-0.00057
 264,-0.00194725,0.00064422,-0.00002719,0.00079150,-0.00095345,-0.00002
 310,0.00000779,0.00009412,0.00001486,0.00009532,0.00033726,0.00009453,
 -0.00053650,0.00007741,-0.09598155,-0.11841737,0.07272531,-0.01867943,
 -0.00975878,0.01555724,0.10253397,0.12081457,0.00092774,0.00336164,0.0
 0038030,-0.00223845,0.00185096,-0.00268783,0.00330190,-0.00331675,-0.0
 0116407,-0.00072034,-0.00141002,0.00062180,0.01571705,0.01804352,-0.02
 936157,0.00015669,0.00001688,0.00004994,-0.00144856,0.00010690,0.00022
 160,0.00021286,-0.00003054,0.00020060,0.00031178,0.00025301,-0.0000755
 0,-0.00086984,-0.00032667,0.00028921,-0.00005168,0.00016265,-0.0000136
 6,0.00124491,-0.00053427,0.00239337,0.00054620,0.00030346,-0.00020407,
 -0.00004474,-0.00000406,0.00018699,0.00007213,-0.00016895,0.00024287,0
 .00026898,-0.00081132,-0.00010160,0.09952340,0.06921453,-0.12072063,-0
 .00955374,-0.00592037,0.00814429,-0.10645258,-0.08023461,0.14043520,0.
 00015399,0.00170190,-0.00045496,-0.00016384,0.00034467,0.00028073,0.00
 066682,-0.00223514,-0.00112883,-0.00015535,-0.00029644,0.00007721,-0.0
 0716771,0.00556126,-0.00285853,0.00005432,-0.00000106,-0.00004789,0.00
 000555,0.00026478,0.00003858,-0.00000714,-0.00001410,-0.00002136,-0.00
 008625,-0.00002442,0.00012337,0.00013472,-0.00015136,0.00002567,0.0000
 9266,-0.00005300,0.00000373,-0.00007834,-0.00038229,-0.00014833,0.0009
 1897,0.00070573,0.00052257,0.00020855,-0.00006910,0.00050771,0.0001161
 0,-0.00021272,-0.00018853,-0.00065686,-0.00067261,0.00023752,-0.259626
 53,0.12198663,0.00060600,0.00681792,-0.00439319,0.00056130,-0.01470873
 ,0.01224855,-0.00090371,0.27348113,-0.00049187,-0.00016683,-0.00090861
 ,0.00000108,0.00003493,0.00045340,0.00062417,-0.00026036,0.00104695,-0
 .00001244,-0.00006764,0.00002552,0.00139756,-0.00238559,0.00152896,0.0
 0002911,-0.00000438,-0.00002379,0.00003133,0.00003198,0.00031296,0.000
 00905,0.00000920,-0.00002492,0.00043980,0.00040371,0.00004120,0.000177
 67,-0.00002694,0.00009567,0.00001809,-0.00005639,0.00001592,-0.0001666
 1,-0.00019025,-0.00030930,-0.00143667,-0.00051744,-0.00083662,0.000056
 05,0.00003661,-0.00012138,0.00050274,-0.00018906,-0.00044136,-0.000476
 41,-0.00080181,-0.00056092,0.12399037,-0.12017807,-0.00093237,0.024245
 17,-0.01019231,0.00097382,-0.01463011,0.00939770,-0.00055597,-0.134308
 08,0.12512294,0.00008857,0.00173427,0.00069118,-0.00078003,0.00048971,
 -0.00038266,-0.00038423,-0.00273274,-0.00390433,-0.00041786,-0.0007080
 1,0.00014525,-0.03354279,0.02125890,-0.00539028,0.00008100,0.00005999,
 0.00001995,0.00003978,0.00115725,-0.00050111,0.00006246,0.00003431,0.0
 0002800,-0.00023691,0.00022207,0.00013146,0.00046369,0.00020576,-0.000
 03280,-0.00004688,0.00004616,-0.00001272,0.00036129,0.00002590,0.00046
 455,-0.00123970,-0.00074822,0.00020832,0.00025477,0.00013773,-0.000152
 30,0.00060146,-0.00074458,-0.00027923,0.00023281,-0.00052798,-0.000311
 89,0.00834319,-0.00585391,-0.04870546,0.01061281,-0.00415600,0.0002981
 6,0.01273884,-0.01012146,0.00116279,0.00276773,0.00022083,0.05652311\\
 0.00000026,0.00000103,-0.00000012,-0.00000069,0.00000111,-0.00000200,0
 .00000025,0.00000024,0.00000131,0.00000147,0.00000116,0.00000003,0.000
 00168,0.00000024,-0.00000086,0.00000075,0.00000194,-0.00000099,0.00000
 123,0.00000045,0.00000080,-0.00000018,0.00000135,-0.00000124,0.0000013
 1,-0.00000050,0.00000079,0.00000056,0.00000065,0.00000027,0.00000047,0
 .00000072,-0.00000045,-0.00000264,-0.00000041,-0.00000026,-0.00000225,
 -0.00000069,-0.00000126,-0.00000095,0.00000012,-0.00000065,-0.00000058
 ,-0.00000118,0.00000013,0.00000026,-0.00000118,0.00000007,-0.00000123,
 -0.00000268,0.00000065,0.00000070,-0.00000168,0.00000024,-0.00000185,-
 0.00000443,-0.00000032,0.00000143,0.00000375,0.00000384\\\@
 The archive entry for this job was punched.


 IT IS THE BEHAVIOR AND DISTRIBUTION OF THE ELECTRONS 
 AROUND THE NUCLEUS THAT GIVES THE FUNDAMENTAL 
 CHARACTER OF AN ATOM:  IT MUST BE THE SAME FOR MOLECULES.

                               -- C. A. COULSON, 1951
 Job cpu time:       0 days  2 hours 13 minutes 30.3 seconds.
 Elapsed time:       0 days  0 hours 22 minutes 31.7 seconds.
 File lengths (MBytes):  RWF=      6 Int=      0 D2E=      0 Chk=      2 Scr=      1
 Normal termination of Gaussian 16 at Wed Jan 17 20:03:50 2024.
