Unloading slurm/anatra/current
  ERROR: No such file or directory on
    '/cm/local/modulefiles/slurm/anatra/current'
environment: line 0: unalias: gv: not found
environment: line 0: unalias: sl: not found
 Entering Gaussian System, Link 0=g16
 Initial command:
 /apps/gaussian/g16/C.01/g16/l1.exe "/local/jobs/1158116/Gau-708883.inp" -scrdir="/local/jobs/1158116/"
 Entering Link 1 = /apps/gaussian/g16/C.01/g16/l1.exe PID=    708884.
  
 Copyright (c) 1988-2019, Gaussian, Inc.  All Rights Reserved.
  
 This is part of the Gaussian(R) 16 program.  It is based on
 the Gaussian(R) 09 system (copyright 2009, Gaussian, Inc.),
 the Gaussian(R) 03 system (copyright 2003, Gaussian, Inc.),
 the Gaussian(R) 98 system (copyright 1998, Gaussian, Inc.),
 the Gaussian(R) 94 system (copyright 1995, Gaussian, Inc.),
 the Gaussian 92(TM) system (copyright 1992, Gaussian, Inc.),
 the Gaussian 90(TM) system (copyright 1990, Gaussian, Inc.),
 the Gaussian 88(TM) system (copyright 1988, Gaussian, Inc.),
 the Gaussian 86(TM) system (copyright 1986, Carnegie Mellon
 University), and the Gaussian 82(TM) system (copyright 1983,
 Carnegie Mellon University). Gaussian is a federally registered
 trademark of Gaussian, Inc.
  
 This software contains proprietary and confidential information,
 including trade secrets, belonging to Gaussian, Inc.
  
 This software is provided under written license and may be
 used, copied, transmitted, or stored only in accord with that
 written license.
  
 The following legend is applicable only to US Government
 contracts under FAR:
  
                    RESTRICTED RIGHTS LEGEND
  
 Use, reproduction and disclosure by the US Government is
 subject to restrictions as set forth in subparagraphs (a)
 and (c) of the Commercial Computer Software - Restricted
 Rights clause in FAR 52.227-19.
  
 Gaussian, Inc.
 340 Quinnipiac St., Bldg. 40, Wallingford CT 06492
  
  
 ---------------------------------------------------------------
 Warning -- This program may not be used in any manner that
 competes with the business of Gaussian, Inc. or will provide
 assistance to any competitor of Gaussian, Inc.  The licensee
 of this program is prohibited from giving any competitor of
 Gaussian, Inc. access to this program.  By using this program,
 the user acknowledges that Gaussian, Inc. is engaged in the
 business of creating and licensing software in the field of
 computational chemistry and represents and warrants to the
 licensee that it is not a competitor of Gaussian, Inc. and that
 it will not use this program in any manner prohibited above.
 ---------------------------------------------------------------
  

 Cite this work as:
 Gaussian 16, Revision C.01,
 M. J. Frisch, G. W. Trucks, H. B. Schlegel, G. E. Scuseria, 
 M. A. Robb, J. R. Cheeseman, G. Scalmani, V. Barone, 
 G. A. Petersson, H. Nakatsuji, X. Li, M. Caricato, A. V. Marenich, 
 J. Bloino, B. G. Janesko, R. Gomperts, B. Mennucci, H. P. Hratchian, 
 J. V. Ortiz, A. F. Izmaylov, J. L. Sonnenberg, D. Williams-Young, 
 F. Ding, F. Lipparini, F. Egidi, J. Goings, B. Peng, A. Petrone, 
 T. Henderson, D. Ranasinghe, V. G. Zakrzewski, J. Gao, N. Rega, 
 G. Zheng, W. Liang, M. Hada, M. Ehara, K. Toyota, R. Fukuda, 
 J. Hasegawa, M. Ishida, T. Nakajima, Y. Honda, O. Kitao, H. Nakai, 
 T. Vreven, K. Throssell, J. A. Montgomery, Jr., J. E. Peralta, 
 F. Ogliaro, M. J. Bearpark, J. J. Heyd, E. N. Brothers, K. N. Kudin, 
 V. N. Staroverov, T. A. Keith, R. Kobayashi, J. Normand, 
 K. Raghavachari, A. P. Rendell, J. C. Burant, S. S. Iyengar, 
 J. Tomasi, M. Cossi, J. M. Millam, M. Klene, C. Adamo, R. Cammi, 
 J. W. Ochterski, R. L. Martin, K. Morokuma, O. Farkas, 
 J. B. Foresman, and D. J. Fox, Gaussian, Inc., Wallingford CT, 2019.
 
 ******************************************
 Gaussian 16:  ES64L-G16RevC.01  3-Jul-2019
                17-Jan-2024 
 ******************************************
 %nprocshared=12
 Will use up to   12 processors via shared memory.
 %mem=48GB
 ----------------------------------------------------------------------
 # external="~/scripts/MiMe -H 'wb97xd def2svp' -EF 'wb97xd def2svp' -c
  12 -m 48GB" opt=(calcall,ts,noeigen,maxcycles=50,maxstep=10,nomicro)
 ----------------------------------------------------------------------
 1/5=1,6=50,8=10,10=4,11=1,18=20,26=1,38=1/1,3;
 2/9=110,12=2,17=6,18=5,40=1/2;
 3/11=9,25=1,30=1,41=9900000,43=2,71=2,140=1/1;
 4/20=17,22=2,24=3,113=1,114=1/2;
 6/7=2,8=2,9=2,10=2,18=1/1;
 7/25=1,44=-1/16;
 1/5=1,6=50,8=10,10=4,11=1,18=20,26=1/3(3);
 2/9=110/2;
 7/8=1,9=1,25=1,44=-1/16;
 99//99;
 2/9=110/2;
 3/11=9,25=1,30=1,41=9900000,43=2,71=2,140=1/1;
 4/16=2,20=17,22=2,24=3,113=1,114=1/2;
 7/25=1,44=-1/16;
 1/5=1,6=50,8=10,10=4,11=1,18=20,26=1/3(-4);
 2/9=110/2;
 6/7=2,8=2,9=2,10=2,18=1/1;
 7/8=1,9=1,25=1,44=-1/16;
 99//99;
 -----
 *****
 -----
 Symbolic Z-matrix:
 Charge =  0 Multiplicity = 1
 C                     1.926     0.1722   -0.005 
 C                     0.7332   -1.561     0.2678 
 C                     0.4112    1.2555    1.075 
 C                    -0.531    -1.0586    0.8293 
 N                     1.7025    0.7364    1.2998 
 H                     0.6664   -1.9557   -0.7531 
 H                     1.3297   -2.1646    0.9585 
 H                    -0.2593    1.6608    1.8195 
 H                    -0.6848   -1.0875    1.9035 
 O                     1.2051    0.8334   -1.0306 
 C                     0.2136    1.5119   -0.3666 
 O                    -0.6834    2.1731   -0.8537 
 C                    -1.7411   -0.9446   -0.0186 
 O                    -1.7938   -1.287    -1.187 
 O                    -2.7058   -0.3299    0.7041 
 C                    -3.864    -0.0087   -0.0696 
 H                    -4.6046    0.4407    0.5972 
 H                    -4.2985   -0.9112   -0.5123 
 H                    -3.6099    0.72     -0.8471 
 C                     3.2267   -0.349    -0.3333 
 N                     4.2764   -0.7867   -0.567 
 H                     2.014     0.283     2.1522 
 
 Add virtual bond connecting atoms C2         and C1         Dist= 4.01D+00.

 GradGradGradGradGradGradGradGradGradGradGradGradGradGradGradGradGradGrad
 Berny optimization.
 Initialization pass.
                           ----------------------------
                           !    Initial Parameters    !
                           ! (Angstroms and Degrees)  !
 --------------------------                            --------------------------
 ! Name  Definition              Value          Derivative Info.                !
 --------------------------------------------------------------------------------
 ! R1    R(1,2)                  2.1216         calculate D2E/DX2 analytically  !
 ! R2    R(1,5)                  1.439          calculate D2E/DX2 analytically  !
 ! R3    R(1,10)                 1.4173         calculate D2E/DX2 analytically  !
 ! R4    R(1,20)                 1.4392         calculate D2E/DX2 analytically  !
 ! R5    R(2,4)                  1.4717         calculate D2E/DX2 analytically  !
 ! R6    R(2,6)                  1.0966         calculate D2E/DX2 analytically  !
 ! R7    R(2,7)                  1.0942         calculate D2E/DX2 analytically  !
 ! R8    R(3,5)                  1.4098         calculate D2E/DX2 analytically  !
 ! R9    R(3,8)                  1.0808         calculate D2E/DX2 analytically  !
 ! R10   R(3,11)                 1.4775         calculate D2E/DX2 analytically  !
 ! R11   R(4,9)                  1.0855         calculate D2E/DX2 analytically  !
 ! R12   R(4,13)                 1.482          calculate D2E/DX2 analytically  !
 ! R13   R(5,22)                 1.0145         calculate D2E/DX2 analytically  !
 ! R14   R(10,11)                1.3727         calculate D2E/DX2 analytically  !
 ! R15   R(11,12)                1.2162         calculate D2E/DX2 analytically  !
 ! R16   R(13,14)                1.2187         calculate D2E/DX2 analytically  !
 ! R17   R(13,15)                1.3531         calculate D2E/DX2 analytically  !
 ! R18   R(15,16)                1.4294         calculate D2E/DX2 analytically  !
 ! R19   R(16,17)                1.0932         calculate D2E/DX2 analytically  !
 ! R20   R(16,18)                1.0951         calculate D2E/DX2 analytically  !
 ! R21   R(16,19)                1.0955         calculate D2E/DX2 analytically  !
 ! R22   R(20,21)                1.1611         calculate D2E/DX2 analytically  !
 ! A1    A(2,1,5)               96.6836         calculate D2E/DX2 analytically  !
 ! A2    A(2,1,10)             100.8474         calculate D2E/DX2 analytically  !
 ! A3    A(2,1,20)             103.9809         calculate D2E/DX2 analytically  !
 ! A4    A(5,1,10)             113.2177         calculate D2E/DX2 analytically  !
 ! A5    A(5,1,20)             119.2878         calculate D2E/DX2 analytically  !
 ! A6    A(10,1,20)            117.6183         calculate D2E/DX2 analytically  !
 ! A7    A(1,2,4)              104.6627         calculate D2E/DX2 analytically  !
 ! A8    A(1,2,6)              102.0394         calculate D2E/DX2 analytically  !
 ! A9    A(1,2,7)              103.0222         calculate D2E/DX2 analytically  !
 ! A10   A(4,2,6)              115.1979         calculate D2E/DX2 analytically  !
 ! A11   A(4,2,7)              114.5681         calculate D2E/DX2 analytically  !
 ! A12   A(6,2,7)              114.9823         calculate D2E/DX2 analytically  !
 ! A13   A(5,3,8)              126.6183         calculate D2E/DX2 analytically  !
 ! A14   A(5,3,11)             109.9978         calculate D2E/DX2 analytically  !
 ! A15   A(8,3,11)             121.6052         calculate D2E/DX2 analytically  !
 ! A16   A(2,4,9)              119.3514         calculate D2E/DX2 analytically  !
 ! A17   A(2,4,13)             120.623          calculate D2E/DX2 analytically  !
 ! A18   A(9,4,13)             116.9056         calculate D2E/DX2 analytically  !
 ! A19   A(1,5,3)               98.1661         calculate D2E/DX2 analytically  !
 ! A20   A(1,5,22)             122.6115         calculate D2E/DX2 analytically  !
 ! A21   A(3,5,22)             125.436          calculate D2E/DX2 analytically  !
 ! A22   A(1,10,11)            104.3563         calculate D2E/DX2 analytically  !
 ! A23   A(3,11,10)            106.8333         calculate D2E/DX2 analytically  !
 ! A24   A(3,11,12)            125.7168         calculate D2E/DX2 analytically  !
 ! A25   A(10,11,12)           127.4253         calculate D2E/DX2 analytically  !
 ! A26   A(4,13,14)            124.2103         calculate D2E/DX2 analytically  !
 ! A27   A(4,13,15)            108.1513         calculate D2E/DX2 analytically  !
 ! A28   A(14,13,15)           127.5095         calculate D2E/DX2 analytically  !
 ! A29   A(13,15,16)           112.9966         calculate D2E/DX2 analytically  !
 ! A30   A(15,16,17)           108.1285         calculate D2E/DX2 analytically  !
 ! A31   A(15,16,18)           110.7999         calculate D2E/DX2 analytically  !
 ! A32   A(15,16,19)           110.2239         calculate D2E/DX2 analytically  !
 ! A33   A(17,16,18)           108.4554         calculate D2E/DX2 analytically  !
 ! A34   A(17,16,19)           108.4572         calculate D2E/DX2 analytically  !
 ! A35   A(18,16,19)           110.6899         calculate D2E/DX2 analytically  !
 ! A36   L(1,20,21,7,-1)       178.6613         calculate D2E/DX2 analytically  !
 ! A37   L(1,20,21,7,-2)       181.2752         calculate D2E/DX2 analytically  !
 ! D1    D(5,1,2,4)             48.0218         calculate D2E/DX2 analytically  !
 ! D2    D(5,1,2,6)            168.405          calculate D2E/DX2 analytically  !
 ! D3    D(5,1,2,7)            -72.0859         calculate D2E/DX2 analytically  !
 ! D4    D(10,1,2,4)           -67.2301         calculate D2E/DX2 analytically  !
 ! D5    D(10,1,2,6)            53.1531         calculate D2E/DX2 analytically  !
 ! D6    D(10,1,2,7)           172.6621         calculate D2E/DX2 analytically  !
 ! D7    D(20,1,2,4)           170.4849         calculate D2E/DX2 analytically  !
 ! D8    D(20,1,2,6)           -69.1319         calculate D2E/DX2 analytically  !
 ! D9    D(20,1,2,7)            50.3772         calculate D2E/DX2 analytically  !
 ! D10   D(2,1,5,3)            -77.6549         calculate D2E/DX2 analytically  !
 ! D11   D(2,1,5,22)            64.2671         calculate D2E/DX2 analytically  !
 ! D12   D(10,1,5,3)            27.2044         calculate D2E/DX2 analytically  !
 ! D13   D(10,1,5,22)          169.1264         calculate D2E/DX2 analytically  !
 ! D14   D(20,1,5,3)           172.1858         calculate D2E/DX2 analytically  !
 ! D15   D(20,1,5,22)          -45.8922         calculate D2E/DX2 analytically  !
 ! D16   D(2,1,10,11)           83.2911         calculate D2E/DX2 analytically  !
 ! D17   D(5,1,10,11)          -18.8984         calculate D2E/DX2 analytically  !
 ! D18   D(20,1,10,11)        -164.5064         calculate D2E/DX2 analytically  !
 ! D19   D(1,2,4,9)            -97.1235         calculate D2E/DX2 analytically  !
 ! D20   D(1,2,4,13)           103.4561         calculate D2E/DX2 analytically  !
 ! D21   D(6,2,4,9)            151.6908         calculate D2E/DX2 analytically  !
 ! D22   D(6,2,4,13)            -7.7296         calculate D2E/DX2 analytically  !
 ! D23   D(7,2,4,9)             14.9451         calculate D2E/DX2 analytically  !
 ! D24   D(7,2,4,13)          -144.4754         calculate D2E/DX2 analytically  !
 ! D25   D(8,3,5,1)            170.3514         calculate D2E/DX2 analytically  !
 ! D26   D(8,3,5,22)            29.9653         calculate D2E/DX2 analytically  !
 ! D27   D(11,3,5,1)           -24.7896         calculate D2E/DX2 analytically  !
 ! D28   D(11,3,5,22)         -165.1757         calculate D2E/DX2 analytically  !
 ! D29   D(5,3,11,10)           15.7905         calculate D2E/DX2 analytically  !
 ! D30   D(5,3,11,12)         -165.9069         calculate D2E/DX2 analytically  !
 ! D31   D(8,3,11,10)         -178.4594         calculate D2E/DX2 analytically  !
 ! D32   D(8,3,11,12)           -0.1568         calculate D2E/DX2 analytically  !
 ! D33   D(2,4,13,14)            2.5317         calculate D2E/DX2 analytically  !
 ! D34   D(2,4,13,15)         -173.6078         calculate D2E/DX2 analytically  !
 ! D35   D(9,4,13,14)         -157.3735         calculate D2E/DX2 analytically  !
 ! D36   D(9,4,13,15)           26.4871         calculate D2E/DX2 analytically  !
 ! D37   D(1,10,11,3)            1.736          calculate D2E/DX2 analytically  !
 ! D38   D(1,10,11,12)        -176.5286         calculate D2E/DX2 analytically  !
 ! D39   D(4,13,15,16)         172.3219         calculate D2E/DX2 analytically  !
 ! D40   D(14,13,15,16)         -3.6532         calculate D2E/DX2 analytically  !
 ! D41   D(13,15,16,17)        177.5006         calculate D2E/DX2 analytically  !
 ! D42   D(13,15,16,18)         58.77           calculate D2E/DX2 analytically  !
 ! D43   D(13,15,16,19)        -64.0987         calculate D2E/DX2 analytically  !
 --------------------------------------------------------------------------------
 Trust Radius=1.00D-01 FncErr=1.00D-07 GrdErr=1.00D-07 EigMax=2.50D+02 EigMin=1.00D-04
 Number of steps in this run=     50 maximum allowed number of steps=    132.
 Search for a saddle point of order  1.
 GradGradGradGradGradGradGradGradGradGradGradGradGradGradGradGradGradGrad

                          Input orientation:                          
 ---------------------------------------------------------------------
 Center     Atomic      Atomic             Coordinates (Angstroms)
 Number     Number       Type             X           Y           Z
 ---------------------------------------------------------------------
      1          6           0        1.926000    0.172200   -0.005000
      2          6           0        0.733200   -1.561000    0.267800
      3          6           0        0.411200    1.255500    1.075000
      4          6           0       -0.531000   -1.058600    0.829300
      5          7           0        1.702500    0.736400    1.299800
      6          1           0        0.666400   -1.955700   -0.753100
      7          1           0        1.329700   -2.164600    0.958500
      8          1           0       -0.259300    1.660800    1.819500
      9          1           0       -0.684800   -1.087500    1.903500
     10          8           0        1.205100    0.833400   -1.030600
     11          6           0        0.213600    1.511900   -0.366600
     12          8           0       -0.683400    2.173100   -0.853700
     13          6           0       -1.741100   -0.944600   -0.018600
     14          8           0       -1.793800   -1.287000   -1.187000
     15          8           0       -2.705800   -0.329900    0.704100
     16          6           0       -3.864000   -0.008700   -0.069600
     17          1           0       -4.604600    0.440700    0.597200
     18          1           0       -4.298500   -0.911200   -0.512300
     19          1           0       -3.609900    0.720000   -0.847100
     20          6           0        3.226700   -0.349000   -0.333300
     21          7           0        4.276400   -0.786700   -0.567000
     22          1           0        2.014000    0.283000    2.152200
 ---------------------------------------------------------------------
                    Distance matrix (angstroms):
                    1          2          3          4          5
     1  C    0.000000
     2  C    2.121597   0.000000
     3  C    2.152802   2.947529   0.000000
     4  C    2.871894   1.471696   2.510611   0.000000
     5  N    1.439019   2.698632   1.409771   2.903776   0.000000
     6  H    2.583448   1.096580   3.703901   2.177738   3.540523
     7  H    2.597025   1.094172   3.543205   2.168440   2.944701
     8  H    3.212517   3.711176   1.080795   2.906794   2.230081
     9  H    3.470662   2.215951   2.716114   1.085539   3.064354
    10  O    1.417299   2.764360   2.289541   3.170636   2.384865
    11  C    2.204056   3.180434   1.477497   2.931224   2.365399
    12  O    3.396007   4.148255   2.400005   3.646862   3.520538
    13  C    3.833412   2.565957   3.266312   1.481983   4.052446
    14  O    4.166929   2.928694   4.054994   2.390041   4.743673
    15  O    4.712589   3.678680   3.516639   2.297049   4.574381
    16  C    5.793185   4.863920   4.602787   3.608213   5.780688
    17  H    6.563800   5.710290   5.103963   4.346952   6.352999
    18  H    6.338415   5.133108   5.421751   4.001959   6.481535
    19  H    5.626314   5.030753   4.488928   3.931076   5.729838
    20  C    1.439184   2.836866   3.533379   3.996934   2.483605
    21  N    2.599945   3.721653   4.669745   5.013450   3.525583
    22  H    2.161835   2.931168   2.162194   3.166541   1.014490
                    6          7          8          9         10
     6  H    0.000000
     7  H    1.847480   0.000000
     8  H    4.533681   4.230831   0.000000
     9  H    3.104358   2.472120   2.782312   0.000000
    10  O    2.854169   3.600007   3.309400   3.983782   0.000000
    11  C    3.518332   4.064261   2.241615   3.566140   1.372709
    12  O    4.345005   5.113930   2.754689   4.270090   2.322180
    13  C    2.712539   3.445713   3.516028   2.197876   3.586854
    14  O    2.586119   3.889679   4.481435   3.289509   3.676134
    15  O    4.017262   4.440282   3.345499   2.469202   4.433688
    16  C    4.978203   5.716591   4.398840   3.894130   5.227660
    17  H    5.945543   6.491074   4.675927   4.405298   6.046202
    18  H    5.079291   5.950706   5.326125   4.350402   5.796713
    19  H    5.045290   5.998396   4.384334   4.403302   4.819830
    20  C    3.051697   2.926390   4.563556   4.566015   2.443596
    21  N    3.799118   3.592882   5.679631   5.550437   3.503217
    22  H    3.907502   2.807834   2.678976   3.037045   3.329786
                   11         12         13         14         15
    11  C    0.000000
    12  O    1.216166   0.000000
    13  C    3.158536   3.396494   0.000000
    14  O    3.540699   3.649160   1.218677   0.000000
    15  O    3.614073   3.575172   1.353070   2.307389   0.000000
    16  C    4.362024   3.935896   2.320606   2.677380   1.429408
    17  H    5.029059   4.525719   3.240046   3.750855   2.051997
    18  H    5.123640   4.764285   2.604832   2.621062   2.086680
    19  H    3.934099   3.267407   2.636232   2.727966   2.079882
    20  C    3.541586   4.681953   5.013264   5.178230   6.022551
    21  N    4.672266   5.782926   6.044500   6.122257   7.111644
    22  H    3.331064   4.459134   4.507788   5.302311   4.974852
                   16         17         18         19         20
    16  C    0.000000
    17  H    1.093193   0.000000
    18  H    1.095116   1.775478   0.000000
    19  H    1.095480   1.775793   1.801964   0.000000
    20  C    7.103757   7.925826   7.548294   6.938721   0.000000
    21  N    8.192607   9.040688   8.575978   8.033824   1.161063
    22  H    6.290657   6.800644   6.955094   6.388663   2.836860
                   21         22
    21  N    0.000000
    22  H    3.695505   0.000000
 Stoichiometry    C8H8N2O4
 Framework group  C1[X(C8H8N2O4)]
 Deg. of freedom    60
 Full point group                 C1      NOp   1
 Largest Abelian subgroup         C1      NOp   1
 Largest concise Abelian subgroup C1      NOp   1
                         Standard orientation:                         
 ---------------------------------------------------------------------
 Center     Atomic      Atomic             Coordinates (Angstroms)
 Number     Number       Type             X           Y           Z
 ---------------------------------------------------------------------
      1          6           0        1.901595    0.103954    0.015435
      2          6           0        0.662124   -1.607415    0.205441
      3          6           0        0.407708    1.179062    1.132128
      4          6           0       -0.592612   -1.096648    0.780457
      5          7           0        1.683388    0.616915    1.342097
      6          1           0        0.592488   -1.955723   -0.832018
      7          1           0        1.237674   -2.255800    0.872937
      8          1           0       -0.257403    1.569313    1.889393
      9          1           0       -0.754911   -1.167894    1.851428
     10          8           0        1.205623    0.827616   -0.984902
     11          6           0        0.227327    1.502648   -0.298170
     12          8           0       -0.648592    2.207669   -0.761604
     13          6           0       -1.793143   -0.914287   -0.069097
     14          8           0       -1.846252   -1.204357   -1.251558
     15          8           0       -2.746736   -0.306217    0.673673
     16          6           0       -3.890530    0.078505   -0.092442
     17          1           0       -4.624003    0.518004    0.588682
     18          1           0       -4.345153   -0.792264   -0.576548
     19          1           0       -3.611903    0.833189   -0.836012
     20          6           0        3.190634   -0.436629   -0.327198
     21          7           0        4.230253   -0.891301   -0.573236
     22          1           0        1.976778    0.119051    2.175910
 ---------------------------------------------------------------------
 Rotational constants (GHZ):           1.3537180           0.4678392           0.4214048
 Standard basis: STO-3G (5D, 7F)
 There are    78 symmetry adapted cartesian basis functions of A   symmetry.
 There are    78 symmetry adapted basis functions of A   symmetry.
    78 basis functions,   234 primitive gaussians,    78 cartesian basis functions
    51 alpha electrons       51 beta electrons
       nuclear repulsion energy       892.5014373949 Hartrees.
 NAtoms=   22 NActive=   22 NUniq=   22 SFac= 1.00D+00 NAtFMM=   60 NAOKFM=F Big=F
 Integral buffers will be    131072 words long.
 Raffenetti 1 integral format.
 Two-electron integral symmetry is turned on.
 External calculation of energy, first and second derivatives.
 Running external command "~/scripts/MiMe -H 'wb97xd def2svp' -EF 'wb97xd def2svp' -c 12 -m 48GB R"
         input file       "/local/jobs/1158116/Gau-708884.EIn"
         output file      "/local/jobs/1158116/Gau-708884.EOu"
         message file     "/local/jobs/1158116/Gau-708884.EMs"
         fchk file        "/local/jobs/1158116/Gau-708884.EFC"
         mat. el file     "/local/jobs/1158116/Gau-708884.EUF"
 Read checkpoint file Gau-708884_H.chk type G16
 Write formatted file Gau-708884_H.fchk

deriv: 2

spelevel: wb97xd def2svp
gradlevel: wb97xd def2svp
hesslevel: wb97xd def2svp

runspe: False
runforce: False
runfreq: True

Running Gaussian ...

Parsing files ...
SPE file: Gau-708884_H.out
FORCE file: Gau-708884_H.out
HESS file: Gau-708884_H.out

 ExternalExternalExternalExternalExternalExternalExternalExternalExternalExternal
 Output from external command:
 "~/scripts/MiMe -H 'wb97xd def2svp' -EF 'wb97xd def2svp' -c 12 -m 48GB R /local/jobs/1158116/Gau-708884.EIn /local/jobs/1158116/Gau-708884.EOu /local/jobs/1158116/Gau-708884.EMs /local/jobs/1158116/Gau-708884.EFC /local/jobs/1158116/Gau-708884.EUF"
  
 --------------------------------------------------
 Hessian calculation at wb97xd def2svp
 ExternalExternalExternalExternalExternalExternalExternalExternalExternalExternal

 Recovered energy= -719.169780601     dipole=     -0.727200000000     -0.282600000000      6.089500000000
 Energy=    -719.169781     NIter=   0.
 Dipole moment=      -0.727200      -0.282600       6.089500
 ***** Axes restored to original set *****
 -------------------------------------------------------------------
 Center     Atomic                   Forces (Hartrees/Bohr)
 Number     Number              X              Y              Z
 -------------------------------------------------------------------
      1        6          -0.007809128   -0.033880465    0.012001507
      2        6          -0.037738720    0.019364654    0.012982594
      3        6           0.021030036   -0.025659028    0.009116698
      4        6           0.052942876   -0.002016738   -0.024704305
      5        7          -0.053825496    0.022031473   -0.080129080
      6        1           0.001869437    0.003600916   -0.000072009
      7        1           0.006664384    0.004129268   -0.001545387
      8        1           0.003233376    0.004460791    0.006453284
      9        1          -0.001086389    0.001641267    0.004297616
     10        8           0.022565221   -0.008158445    0.048475282
     11        6          -0.036398400    0.019679857    0.014875119
     12        8           0.030671408   -0.023132674    0.001406252
     13        6           0.015579323    0.006459839   -0.005942299
     14        8          -0.009581802    0.010777451    0.027120315
     15        8          -0.006323559   -0.007241723   -0.024801972
     16        6          -0.002091419    0.001332276    0.006068176
     17        1           0.001420962    0.000504077    0.005021870
     18        1           0.000740954   -0.001497495   -0.003464945
     19        1           0.001600462   -0.000862124   -0.003344665
     20        6           0.006686364    0.007692508   -0.004444712
     21        7          -0.010283729    0.001597627    0.002580480
     22        1           0.000133837   -0.000823308   -0.001949818
 -------------------------------------------------------------------
 Cartesian Forces:  Max     0.080129080 RMS     0.020056788
 FormGI is forming the generalized inverse of G from B-inverse, IUseBI=4.

 GradGradGradGradGradGradGradGradGradGradGradGradGradGradGradGradGradGrad
 Berny optimization.
 Internal  Forces:  Max     0.056108457 RMS     0.014922348
 Search for a saddle point.
 Step number   1 out of a maximum of   50
 All quantities printed in internal units (Hartrees-Bohrs-Radians)
 Swapping is turned off.
 Second derivative matrix not updated -- analytic derivatives used.
 ITU=  0
     Eigenvalues ---   -0.10027   0.00053   0.00251   0.00541   0.00808
     Eigenvalues ---    0.00933   0.01421   0.01991   0.02022   0.02430
     Eigenvalues ---    0.02912   0.03580   0.03697   0.04746   0.05104
     Eigenvalues ---    0.05626   0.05665   0.06456   0.06931   0.07092
     Eigenvalues ---    0.08272   0.08377   0.08607   0.09485   0.09781
     Eigenvalues ---    0.10028   0.10832   0.12839   0.14583   0.16936
     Eigenvalues ---    0.17476   0.18580   0.18811   0.19320   0.21568
     Eigenvalues ---    0.22046   0.23328   0.24423   0.25038   0.26940
     Eigenvalues ---    0.28077   0.30191   0.34539   0.35230   0.35586
     Eigenvalues ---    0.35863   0.36049   0.36081   0.37067   0.37729
     Eigenvalues ---    0.38002   0.38494   0.39111   0.39703   0.43940
     Eigenvalues ---    0.47848   0.48763   0.82887   0.83869   1.26321
 Eigenvectors required to have negative eigenvalues:
                          R1        A7        D10       R5        D27
   1                    0.67019   0.22677  -0.22300  -0.22263   0.20101
                          D12       D16       D29       A3        D26
   1                   -0.19180   0.18408  -0.17589  -0.15565  -0.15206
 RFO step:  Lambda0=7.746884513D-03 Lambda=-6.25906139D-02.
 Linear search not attempted -- option 19 set.
 Maximum step size (   0.100) exceeded in Quadratic search.
    -- Step size scaled by   0.221
 Iteration  1 RMS(Cart)=  0.02908409 RMS(Int)=  0.00026994
 Iteration  2 RMS(Cart)=  0.00035370 RMS(Int)=  0.00006871
 Iteration  3 RMS(Cart)=  0.00000010 RMS(Int)=  0.00006871
 Variable       Old X    -DE/DX   Delta X   Delta X   Delta X     New X
                                 (Linear)    (Quad)   (Total)
    R1        4.00924  -0.04413   0.00000   0.02345   0.02345   4.03269
    R2        2.71935  -0.04058   0.00000  -0.03318  -0.03318   2.68617
    R3        2.67831  -0.04662   0.00000  -0.03559  -0.03559   2.64271
    R4        2.71966  -0.00619   0.00000  -0.00365  -0.00365   2.71602
    R5        2.78110  -0.05013   0.00000  -0.04139  -0.04139   2.73971
    R6        2.07224  -0.00134   0.00000  -0.00089  -0.00089   2.07135
    R7        2.06768   0.00036   0.00000  -0.00018  -0.00018   2.06750
    R8        2.66408  -0.03886   0.00000  -0.02622  -0.02616   2.63792
    R9        2.04241   0.00411   0.00000   0.00134   0.00134   2.04375
   R10        2.79206  -0.01716   0.00000  -0.01330  -0.01332   2.77875
   R11        2.05137   0.00436   0.00000   0.00222   0.00222   2.05359
   R12        2.80054  -0.00074   0.00000   0.00089   0.00089   2.80143
   R13        1.91711  -0.00123   0.00000  -0.00023  -0.00023   1.91688
   R14        2.59404   0.00473   0.00000   0.01015   0.01011   2.60415
   R15        2.29822  -0.03576   0.00000  -0.00913  -0.00913   2.28909
   R16        2.30297  -0.02862   0.00000  -0.00635  -0.00635   2.29662
   R17        2.55693  -0.01117   0.00000  -0.00592  -0.00592   2.55101
   R18        2.70119  -0.00379   0.00000  -0.00330  -0.00330   2.69789
   R19        2.06584   0.00231   0.00000   0.00099   0.00099   2.06682
   R20        2.06947   0.00234   0.00000   0.00136   0.00136   2.07083
   R21        2.07016   0.00217   0.00000   0.00110   0.00110   2.07126
   R22        2.19409  -0.01042   0.00000  -0.00166  -0.00166   2.19243
    A1        1.68745  -0.00818   0.00000   0.00020   0.00012   1.68757
    A2        1.76012  -0.00731   0.00000  -0.00957  -0.00961   1.75051
    A3        1.81481   0.01648   0.00000   0.00475   0.00475   1.81956
    A4        1.97602  -0.01403   0.00000  -0.01424  -0.01426   1.96176
    A5        2.08196   0.00871   0.00000   0.00862   0.00862   2.09058
    A6        2.05283   0.00354   0.00000   0.00755   0.00758   2.06041
    A7        1.82671  -0.05611   0.00000  -0.01493  -0.01490   1.81181
    A8        1.78092   0.01303   0.00000  -0.01475  -0.01473   1.76619
    A9        1.79808   0.01458   0.00000  -0.00665  -0.00656   1.79152
   A10        2.01058   0.01196   0.00000   0.00815   0.00785   2.01844
   A11        1.99959   0.01495   0.00000   0.01459   0.01442   2.01401
   A12        2.00682  -0.00586   0.00000   0.00399   0.00374   2.01056
   A13        2.20991   0.00335   0.00000  -0.00292  -0.00299   2.20692
   A14        1.91982  -0.01668   0.00000  -0.00939  -0.00938   1.91044
   A15        2.12241   0.01251   0.00000   0.01468   0.01469   2.13710
   A16        2.08307   0.00154   0.00000   0.00660   0.00656   2.08964
   A17        2.10527  -0.00194   0.00000   0.00026   0.00022   2.10549
   A18        2.04039   0.00136   0.00000  -0.00176  -0.00181   2.03858
   A19        1.71332   0.02895   0.00000   0.02856   0.02865   1.74197
   A20        2.13997  -0.01329   0.00000  -0.00798  -0.00801   2.13197
   A21        2.18927  -0.01672   0.00000  -0.00852  -0.00865   2.18062
   A22        1.82136   0.00994   0.00000   0.01487   0.01477   1.83613
   A23        1.86459  -0.00893   0.00000  -0.01189  -0.01198   1.85262
   A24        2.19417   0.02058   0.00000   0.02499   0.02502   2.21919
   A25        2.22399  -0.01156   0.00000  -0.01289  -0.01286   2.21113
   A26        2.16788   0.00471   0.00000   0.00236   0.00236   2.17024
   A27        1.88760   0.01642   0.00000   0.01031   0.01031   1.89790
   A28        2.22546  -0.02089   0.00000  -0.01228  -0.01229   2.21317
   A29        1.97216   0.01238   0.00000   0.00900   0.00900   1.98117
   A30        1.88720  -0.00596   0.00000  -0.00568  -0.00568   1.88152
   A31        1.93382   0.00087   0.00000   0.00074   0.00074   1.93457
   A32        1.92377  -0.00029   0.00000  -0.00047  -0.00047   1.92330
   A33        1.89290   0.00372   0.00000   0.00443   0.00443   1.89734
   A34        1.89293   0.00385   0.00000   0.00455   0.00455   1.89749
   A35        1.93190  -0.00213   0.00000  -0.00345  -0.00345   1.92845
   A36        3.11823  -0.00543   0.00000  -0.00605  -0.00605   3.11218
   A37        3.16385  -0.00107   0.00000  -0.00198  -0.00198   3.16187
    D1        0.83814  -0.00940   0.00000  -0.00526  -0.00529   0.83285
    D2        2.93922  -0.01304   0.00000  -0.00853  -0.00849   2.93073
    D3       -1.25814  -0.00892   0.00000  -0.01237  -0.01237  -1.27050
    D4       -1.17339   0.00901   0.00000   0.01162   0.01158  -1.16181
    D5        0.92770   0.00537   0.00000   0.00835   0.00838   0.93608
    D6        3.01352   0.00948   0.00000   0.00451   0.00450   3.01802
    D7        2.97552   0.00183   0.00000   0.00547   0.00544   2.98097
    D8       -1.20658  -0.00181   0.00000   0.00220   0.00224  -1.20434
    D9        0.87925   0.00230   0.00000  -0.00164  -0.00163   0.87761
   D10       -1.35533   0.01967   0.00000   0.00303   0.00299  -1.35234
   D11        1.12167   0.01457   0.00000   0.01602   0.01605   1.13773
   D12        0.47481   0.00435   0.00000  -0.01087  -0.01088   0.46392
   D13        2.95181  -0.00075   0.00000   0.00212   0.00218   2.95399
   D14        3.00521   0.00236   0.00000  -0.00562  -0.00567   2.99954
   D15       -0.80097  -0.00274   0.00000   0.00737   0.00740  -0.79357
   D16        1.45370  -0.01504   0.00000  -0.00206  -0.00200   1.45170
   D17       -0.32984   0.00173   0.00000   0.00642   0.00636  -0.32348
   D18       -2.87118   0.00160   0.00000   0.00068   0.00067  -2.87051
   D19       -1.69512  -0.00218   0.00000  -0.00236  -0.00234  -1.69746
   D20        1.80565  -0.00551   0.00000  -0.01824  -0.01824   1.78740
   D21        2.64750   0.01067   0.00000   0.02059   0.02071   2.66822
   D22       -0.13491   0.00734   0.00000   0.00472   0.00481  -0.13010
   D23        0.26084  -0.01140   0.00000  -0.01244  -0.01254   0.24830
   D24       -2.52157  -0.01473   0.00000  -0.02831  -0.02845  -2.55002
   D25        2.97319  -0.00104   0.00000   0.00082   0.00098   2.97417
   D26        0.52299   0.00155   0.00000  -0.01370  -0.01364   0.50936
   D27       -0.43266  -0.00296   0.00000   0.01282   0.01292  -0.41974
   D28       -2.88286  -0.00038   0.00000  -0.00169  -0.00169  -2.88455
   D29        0.27560  -0.00359   0.00000  -0.01847  -0.01836   0.25724
   D30       -2.89562  -0.00078   0.00000  -0.01156  -0.01145  -2.90708
   D31       -3.11470  -0.00672   0.00000  -0.01004  -0.00992  -3.12463
   D32       -0.00274  -0.00391   0.00000  -0.00314  -0.00302  -0.00576
   D33        0.04419   0.00199   0.00000   0.00878   0.00877   0.05296
   D34       -3.03003  -0.00084   0.00000   0.00343   0.00339  -3.02663
   D35       -2.74669  -0.00132   0.00000  -0.00837  -0.00834  -2.75502
   D36        0.46229  -0.00415   0.00000  -0.01373  -0.01372   0.44857
   D37        0.03030   0.00136   0.00000   0.00723   0.00727   0.03757
   D38       -3.08100  -0.00223   0.00000  -0.00067  -0.00044  -3.08144
   D39        3.00758   0.00274   0.00000   0.00467   0.00464   3.01223
   D40       -0.06376  -0.00156   0.00000  -0.00169  -0.00167  -0.06543
   D41        3.09797   0.00021   0.00000   0.00053   0.00053   3.09850
   D42        1.02573  -0.00117   0.00000  -0.00182  -0.00181   1.02392
   D43       -1.11873   0.00115   0.00000   0.00239   0.00239  -1.11635
         Item               Value     Threshold  Converged?
 Maximum Force            0.056108     0.000450     NO 
 RMS     Force            0.014922     0.000300     NO 
 Maximum Displacement     0.097514     0.001800     NO 
 RMS     Displacement     0.029128     0.001200     NO 
 Predicted change in Energy=-1.109694D-02
 GradGradGradGradGradGradGradGradGradGradGradGradGradGradGradGradGradGrad

                          Input orientation:                          
 ---------------------------------------------------------------------
 Center     Atomic      Atomic             Coordinates (Angstroms)
 Number     Number       Type             X           Y           Z
 ---------------------------------------------------------------------
      1          6           0        1.909983    0.172564   -0.006549
      2          6           0        0.726944   -1.580153    0.280488
      3          6           0        0.395819    1.248482    1.086545
      4          6           0       -0.513954   -1.073424    0.833021
      5          7           0        1.681315    0.738763    1.277071
      6          1           0        0.667442   -1.966791   -0.743441
      7          1           0        1.339008   -2.172458    0.967186
      8          1           0       -0.255854    1.650118    1.850527
      9          1           0       -0.671091   -1.088839    1.908203
     10          8           0        1.172784    0.810283   -1.009321
     11          6           0        0.170081    1.484899   -0.347111
     12          8           0       -0.728969    2.121498   -0.850880
     13          6           0       -1.721208   -0.941453   -0.017152
     14          8           0       -1.780549   -1.284085   -1.181662
     15          8           0       -2.685275   -0.317386    0.692390
     16          6           0       -3.838233    0.013710   -0.081741
     17          1           0       -4.571235    0.471085    0.588877
     18          1           0       -4.280875   -0.884978   -0.525916
     19          1           0       -3.575287    0.737551   -0.861656
     20          6           0        3.213365   -0.331384   -0.342606
     21          7           0        4.263716   -0.762159   -0.581823
     22          1           0        2.010672    0.296658    2.128547
 ---------------------------------------------------------------------
                    Distance matrix (angstroms):
                    1          2          3          4          5
     1  C    0.000000
     2  C    2.134008   0.000000
     3  C    2.155260   2.959822   0.000000
     4  C    2.851813   1.449791   2.506633   0.000000
     5  N    1.421461   2.698402   1.395927   2.881043   0.000000
     6  H    2.581426   1.096111   3.709529   2.163107   3.525681
     7  H    2.602557   1.094076   3.550589   2.158552   2.947611
     8  H    3.212903   3.723649   1.081507   2.918838   2.216313
     9  H    3.452443   2.201215   2.697497   1.086714   3.045041
    10  O    1.398463   2.752557   2.277794   3.128524   2.343354
    11  C    2.205780   3.177818   1.470449   2.899247   2.340623
    12  O    3.387522   4.135444   2.404355   3.617911   3.499943
    13  C    3.798249   2.547543   3.239716   1.482455   4.009401
    14  O    4.137964   2.917715   4.036735   2.389056   4.703380
    15  O    4.673860   3.661623   3.478569   2.303477   4.530387
    16  C    5.750902   4.848964   4.562537   3.615174   5.730400
    17  H    6.515354   5.689761   5.052093   4.348177   6.296002
    18  H    6.301972   5.119746   5.387313   4.008979   6.437002
    19  H    5.580198   5.018509   4.452664   3.939964   5.675034
    20  C    1.437255   2.851309   3.532281   3.978144   2.473003
    21  N    2.597057   3.731146   4.667628   4.992474   3.518103
    22  H    2.141068   2.930136   2.144641   3.151071   1.014369
                    6          7          8          9         10
     6  H    0.000000
     7  H    1.849201   0.000000
     8  H    4.545677   4.235087   0.000000
     9  H    3.097368   2.469867   2.770855   0.000000
    10  O    2.835173   3.582033   3.305308   3.939352   0.000000
    11  C    3.509788   4.058329   2.244623   3.523939   1.378057
    12  O    4.321529   5.100976   2.782740   4.233457   2.315395
    13  C    2.698974   3.442269   3.514503   2.198058   3.525361
    14  O    2.578912   3.890809   4.486470   3.288812   3.624673
    15  O    4.002856   4.439782   3.333833   2.475940   4.364868
    16  C    4.966019   5.716941   4.386905   3.899523   5.158025
    17  H    5.929760   6.485555   4.648053   4.402852   5.971855
    18  H    5.069860   5.955673   5.317423   4.358558   5.731490
    19  H    5.032712   5.996925   4.382619   4.409328   4.750923
    20  C    3.052367   2.935698   4.557593   4.552898   2.431436
    21  N    3.796109   3.597539   5.671148   5.537082   3.494165
    22  H    3.895610   2.810058   2.654484   3.026550   3.288173
                   11         12         13         14         15
    11  C    0.000000
    12  O    1.211335   0.000000
    13  C    3.094032   3.325855   0.000000
    14  O    3.488367   3.579557   1.215319   0.000000
    15  O    3.532966   3.486685   1.349939   2.294582   0.000000
    16  C    4.278013   3.834301   2.323425   2.669862   1.427661
    17  H    4.938013   4.422643   3.238085   3.742106   2.046765
    18  H    5.045720   4.664818   2.610350   2.615515   2.086233
    19  H    3.853708   3.164957   2.640047   2.722223   2.078478
    20  C    3.544077   4.670864   4.982781   5.152750   5.988770
    21  N    4.675704   5.771895   6.014176   6.096339   7.078836
    22  H    3.305840   4.439894   4.479271   5.275375   4.948890
                   16         17         18         19         20
    16  C    0.000000
    17  H    1.093715   0.000000
    18  H    1.095839   1.779319   0.000000
    19  H    1.096062   1.779596   1.800881   0.000000
    20  C    7.064855   7.881092   7.516894   6.891866   0.000000
    21  N    8.154363   8.997099   8.545656   7.986075   1.160185
    22  H    6.259003   6.761842   6.930078   6.351270   2.819132
                   21         22
    21  N    0.000000
    22  H    3.680137   0.000000
 Stoichiometry    C8H8N2O4
 Framework group  C1[X(C8H8N2O4)]
 Deg. of freedom    60
 Full point group                 C1      NOp   1
 Largest Abelian subgroup         C1      NOp   1
 Largest concise Abelian subgroup C1      NOp   1
                         Standard orientation:                         
 ---------------------------------------------------------------------
 Center     Atomic      Atomic             Coordinates (Angstroms)
 Number     Number       Type             X           Y           Z
 ---------------------------------------------------------------------
      1          6           0        1.891722    0.117913    0.011219
      2          6           0        0.670248   -1.618070    0.231118
      3          6           0        0.393723    1.187623    1.132320
      4          6           0       -0.563145   -1.104336    0.793889
      5          7           0        1.666976    0.644441    1.312299
      6          1           0        0.609045   -1.967971   -0.805841
      7          1           0        1.265378   -2.246486    0.900383
      8          1           0       -0.254128    1.576560    1.906061
      9          1           0       -0.727319   -1.153312    1.867013
     10          8           0        1.174428    0.805220   -0.973057
     11          6           0        0.182020    1.477873   -0.293568
     12          8           0       -0.700242    2.150368   -0.780083
     13          6           0       -1.761990   -0.917608   -0.057917
     14          8           0       -1.821224   -1.218715   -1.233854
     15          8           0       -2.717134   -0.297909    0.667347
     16          6           0       -3.857980    0.084016   -0.101301
     17          1           0       -4.585381    0.533581    0.580602
     18          1           0       -4.316655   -0.789274   -0.578629
     19          1           0       -3.574955    0.828452   -0.854338
     20          6           0        3.186283   -0.401803   -0.334766
     21          7           0        4.228809   -0.846351   -0.582853
     22          1           0        1.981596    0.166457    2.149849
 ---------------------------------------------------------------------
 Rotational constants (GHZ):           1.3765917           0.4734845           0.4273137
 Standard basis: STO-3G (5D, 7F)
 There are    78 symmetry adapted cartesian basis functions of A   symmetry.
 There are    78 symmetry adapted basis functions of A   symmetry.
    78 basis functions,   234 primitive gaussians,    78 cartesian basis functions
    51 alpha electrons       51 beta electrons
       nuclear repulsion energy       897.4404523962 Hartrees.
 NAtoms=   22 NActive=   22 NUniq=   22 SFac= 1.00D+00 NAtFMM=   60 NAOKFM=F Big=F
 Integral buffers will be    131072 words long.
 Raffenetti 1 integral format.
 Two-electron integral symmetry is turned on.
 External calculation of energy, first and second derivatives.
 Running external command "~/scripts/MiMe -H 'wb97xd def2svp' -EF 'wb97xd def2svp' -c 12 -m 48GB R"
         input file       "/local/jobs/1158116/Gau-708884.EIn"
         output file      "/local/jobs/1158116/Gau-708884.EOu"
         message file     "/local/jobs/1158116/Gau-708884.EMs"
         fchk file        "/local/jobs/1158116/Gau-708884.EFC"
         mat. el file     "/local/jobs/1158116/Gau-708884.EUF"
 Read checkpoint file Gau-708884_H.chk type G16
 Write formatted file Gau-708884_H.fchk

deriv: 2

spelevel: wb97xd def2svp
gradlevel: wb97xd def2svp
hesslevel: wb97xd def2svp

runspe: False
runforce: False
runfreq: True

Running Gaussian ...

Parsing files ...
SPE file: Gau-708884_H.out
FORCE file: Gau-708884_H.out
HESS file: Gau-708884_H.out

 ExternalExternalExternalExternalExternalExternalExternalExternalExternalExternal
 Output from external command:
 "~/scripts/MiMe -H 'wb97xd def2svp' -EF 'wb97xd def2svp' -c 12 -m 48GB R /local/jobs/1158116/Gau-708884.EIn /local/jobs/1158116/Gau-708884.EOu /local/jobs/1158116/Gau-708884.EMs /local/jobs/1158116/Gau-708884.EFC /local/jobs/1158116/Gau-708884.EUF"
  
 --------------------------------------------------
 Hessian calculation at wb97xd def2svp
 ExternalExternalExternalExternalExternalExternalExternalExternalExternalExternal

 Recovered energy= -719.180846470     dipole=     -0.581800000000     -0.144900000000      6.151000000000
 Energy=    -719.180846     NIter=   0.
 Dipole moment=      -0.581800      -0.144900       6.151000
 ***** Axes restored to original set *****
 -------------------------------------------------------------------
 Center     Atomic                   Forces (Hartrees/Bohr)
 Number     Number              X              Y              Z
 -------------------------------------------------------------------
      1        6          -0.004953038   -0.028713109    0.009795440
      2        6          -0.032227813    0.014223500    0.011023753
      3        6           0.016676305   -0.021077547    0.007136699
      4        6           0.042674597   -0.002265923   -0.019909455
      5        7          -0.045760340    0.016522373   -0.065157895
      6        1           0.001945500    0.003553692   -0.000281147
      7        1           0.006196136    0.004161895   -0.001459915
      8        1           0.003201243    0.003844255    0.005381714
      9        1          -0.001119428    0.001538028    0.003428254
     10        8           0.019220610   -0.005400162    0.039297061
     11        6          -0.029520987    0.016088050    0.012393055
     12        8           0.024494636   -0.018569103    0.000860154
     13        6           0.012723891    0.006182546   -0.004286096
     14        8          -0.007661730    0.008695494    0.021430030
     15        8          -0.005233859   -0.006051822   -0.020234275
     16        6          -0.001937806    0.001244568    0.005110782
     17        1           0.001283044    0.000378931    0.004181762
     18        1           0.000679198   -0.001211320   -0.002939542
     19        1           0.001376705   -0.000846136   -0.002816118
     20        6           0.005300558    0.006440650   -0.003656964
     21        7          -0.008178130    0.001085758    0.002091221
     22        1           0.000820704    0.000175382   -0.001388519
 -------------------------------------------------------------------
 Cartesian Forces:  Max     0.065157895 RMS     0.016398074
 FormGI is forming the generalized inverse of G from B-inverse, IUseBI=4.

 GradGradGradGradGradGradGradGradGradGradGradGradGradGradGradGradGradGrad
 Berny optimization.
 Internal  Forces:  Max     0.045394054 RMS     0.012102507
 Search for a saddle point.
 Step number   2 out of a maximum of   50
 All quantities printed in internal units (Hartrees-Bohrs-Radians)
 Swapping is turned off.
 Second derivative matrix not updated -- analytic derivatives used.
 ITU=  0  0
     Eigenvalues ---   -0.08499   0.00210   0.00257   0.00378   0.00827
     Eigenvalues ---    0.00979   0.01257   0.01608   0.02077   0.02561
     Eigenvalues ---    0.02962   0.03640   0.03783   0.04811   0.05131
     Eigenvalues ---    0.05590   0.05635   0.06492   0.06924   0.07169
     Eigenvalues ---    0.08270   0.08421   0.08587   0.09515   0.09840
     Eigenvalues ---    0.10600   0.10941   0.12881   0.16203   0.17117
     Eigenvalues ---    0.17410   0.18696   0.18809   0.19744   0.21739
     Eigenvalues ---    0.22450   0.24267   0.25230   0.26112   0.27000
     Eigenvalues ---    0.29524   0.31152   0.35134   0.35431   0.35812
     Eigenvalues ---    0.35937   0.36088   0.36515   0.37754   0.38139
     Eigenvalues ---    0.38509   0.39209   0.39555   0.40832   0.45349
     Eigenvalues ---    0.47838   0.48953   0.85303   0.86080   1.27002
 Eigenvectors required to have negative eigenvalues:
                          R1        D27       D10       D12       R5
   1                    0.69501   0.21189  -0.20894  -0.20634  -0.20416
                          D29       A7        D16       D26       A3
   1                   -0.17386   0.17383   0.16526  -0.14994  -0.14510
 RFO step:  Lambda0=4.842933757D-03 Lambda=-4.30519472D-02.
 Linear search not attempted -- option 19 set.
 Maximum step size (   0.100) exceeded in Quadratic search.
    -- Step size scaled by   0.265
 Iteration  1 RMS(Cart)=  0.03967721 RMS(Int)=  0.00039268
 Iteration  2 RMS(Cart)=  0.00055545 RMS(Int)=  0.00009098
 Iteration  3 RMS(Cart)=  0.00000019 RMS(Int)=  0.00009098
 Variable       Old X    -DE/DX   Delta X   Delta X   Delta X     New X
                                 (Linear)    (Quad)   (Total)
    R1        4.03269  -0.03558   0.00000   0.02511   0.02511   4.05780
    R2        2.68617  -0.03267   0.00000  -0.03097  -0.03096   2.65521
    R3        2.64271  -0.03755   0.00000  -0.03170  -0.03170   2.61102
    R4        2.71602  -0.00488   0.00000  -0.00376  -0.00376   2.71226
    R5        2.73971  -0.04005   0.00000  -0.03781  -0.03781   2.70190
    R6        2.07135  -0.00110   0.00000  -0.00105  -0.00105   2.07030
    R7        2.06750   0.00028   0.00000  -0.00036  -0.00036   2.06715
    R8        2.63792  -0.03102   0.00000  -0.02403  -0.02397   2.61395
    R9        2.04375   0.00330   0.00000   0.00135   0.00135   2.04511
   R10        2.77875  -0.01378   0.00000  -0.01267  -0.01270   2.76605
   R11        2.05359   0.00353   0.00000   0.00220   0.00220   2.05580
   R12        2.80143  -0.00051   0.00000   0.00106   0.00106   2.80249
   R13        1.91688  -0.00098   0.00000  -0.00018  -0.00018   1.91670
   R14        2.60415   0.00421   0.00000   0.01094   0.01089   2.61504
   R15        2.28909  -0.02830   0.00000  -0.00848  -0.00848   2.28061
   R16        2.29662  -0.02261   0.00000  -0.00591  -0.00591   2.29071
   R17        2.55101  -0.00904   0.00000  -0.00625  -0.00625   2.54476
   R18        2.69789  -0.00315   0.00000  -0.00320  -0.00320   2.69469
   R19        2.06682   0.00186   0.00000   0.00096   0.00096   2.06778
   R20        2.07083   0.00191   0.00000   0.00138   0.00138   2.07222
   R21        2.07126   0.00178   0.00000   0.00133   0.00133   2.07259
   R22        2.19243  -0.00824   0.00000  -0.00158  -0.00158   2.19085
    A1        1.68757  -0.00669   0.00000   0.00045   0.00034   1.68791
    A2        1.75051  -0.00640   0.00000  -0.01175  -0.01179   1.73872
    A3        1.81956   0.01366   0.00000   0.00699   0.00698   1.82654
    A4        1.96176  -0.01183   0.00000  -0.01579  -0.01581   1.94594
    A5        2.09058   0.00723   0.00000   0.00938   0.00937   2.09995
    A6        2.06041   0.00310   0.00000   0.00783   0.00787   2.06828
    A7        1.81181  -0.04539   0.00000  -0.01758  -0.01753   1.79428
    A8        1.76619   0.00993   0.00000  -0.01947  -0.01945   1.74674
    A9        1.79152   0.01174   0.00000  -0.00798  -0.00785   1.78366
   A10        2.01844   0.00925   0.00000   0.00878   0.00832   2.02675
   A11        2.01401   0.01215   0.00000   0.01703   0.01677   2.03078
   A12        2.01056  -0.00457   0.00000   0.00582   0.00544   2.01600
   A13        2.20692   0.00235   0.00000  -0.00505  -0.00511   2.20181
   A14        1.91044  -0.01346   0.00000  -0.00909  -0.00907   1.90137
   A15        2.13710   0.01045   0.00000   0.01590   0.01592   2.15302
   A16        2.08964   0.00151   0.00000   0.00821   0.00816   2.09780
   A17        2.10549  -0.00155   0.00000  -0.00096  -0.00102   2.10447
   A18        2.03858   0.00089   0.00000  -0.00131  -0.00138   2.03720
   A19        1.74197   0.02406   0.00000   0.02887   0.02894   1.77091
   A20        2.13197  -0.01081   0.00000  -0.00679  -0.00685   2.12512
   A21        2.18062  -0.01369   0.00000  -0.00820  -0.00838   2.17224
   A22        1.83613   0.00833   0.00000   0.01487   0.01477   1.85090
   A23        1.85262  -0.00761   0.00000  -0.01171  -0.01181   1.84081
   A24        2.21919   0.01746   0.00000   0.02613   0.02617   2.24536
   A25        2.21113  -0.00979   0.00000  -0.01429  -0.01425   2.19688
   A26        2.17024   0.00376   0.00000   0.00170   0.00170   2.17193
   A27        1.89790   0.01340   0.00000   0.01070   0.01070   1.90860
   A28        2.21317  -0.01697   0.00000  -0.01218  -0.01218   2.20099
   A29        1.98117   0.01018   0.00000   0.00875   0.00875   1.98992
   A30        1.88152  -0.00499   0.00000  -0.00610  -0.00610   1.87542
   A31        1.93457   0.00071   0.00000   0.00083   0.00083   1.93540
   A32        1.92330  -0.00032   0.00000  -0.00221  -0.00222   1.92109
   A33        1.89734   0.00318   0.00000   0.00529   0.00529   1.90263
   A34        1.89749   0.00330   0.00000   0.00573   0.00573   1.90322
   A35        1.92845  -0.00184   0.00000  -0.00337  -0.00337   1.92508
   A36        3.11218  -0.00457   0.00000  -0.00660  -0.00660   3.10558
   A37        3.16187  -0.00095   0.00000  -0.00243  -0.00243   3.15944
    D1        0.83285  -0.00782   0.00000  -0.00547  -0.00552   0.82733
    D2        2.93073  -0.01061   0.00000  -0.01018  -0.01011   2.92062
    D3       -1.27050  -0.00777   0.00000  -0.01385  -0.01385  -1.28435
    D4       -1.16181   0.00750   0.00000   0.01328   0.01320  -1.14860
    D5        0.93608   0.00470   0.00000   0.00857   0.00861   0.94468
    D6        3.01802   0.00755   0.00000   0.00489   0.00487   3.02290
    D7        2.98097   0.00160   0.00000   0.00693   0.00689   2.98785
    D8       -1.20434  -0.00120   0.00000   0.00222   0.00229  -1.20204
    D9        0.87761   0.00165   0.00000  -0.00145  -0.00144   0.87617
   D10       -1.35234   0.01627   0.00000   0.00648   0.00644  -1.34590
   D11        1.13773   0.01248   0.00000   0.02213   0.02217   1.15990
   D12        0.46392   0.00351   0.00000  -0.00983  -0.00983   0.45410
   D13        2.95399  -0.00028   0.00000   0.00582   0.00591   2.95990
   D14        2.99954   0.00177   0.00000  -0.00541  -0.00547   2.99408
   D15       -0.79357  -0.00201   0.00000   0.01023   0.01026  -0.78331
   D16        1.45170  -0.01235   0.00000  -0.00469  -0.00461   1.44709
   D17       -0.32348   0.00125   0.00000   0.00447   0.00441  -0.31907
   D18       -2.87051   0.00126   0.00000  -0.00064  -0.00064  -2.87115
   D19       -1.69746  -0.00201   0.00000  -0.00513  -0.00509  -1.70255
   D20        1.78740  -0.00504   0.00000  -0.02482  -0.02483   1.76258
   D21        2.66822   0.00934   0.00000   0.02480   0.02496   2.69318
   D22       -0.13010   0.00632   0.00000   0.00510   0.00522  -0.12488
   D23        0.24830  -0.01005   0.00000  -0.01766  -0.01780   0.23051
   D24       -2.55002  -0.01307   0.00000  -0.03735  -0.03754  -2.58755
   D25        2.97417  -0.00076   0.00000   0.00264   0.00280   2.97697
   D26        0.50936   0.00100   0.00000  -0.01502  -0.01495   0.49441
   D27       -0.41974  -0.00235   0.00000   0.01257   0.01267  -0.40707
   D28       -2.88455  -0.00059   0.00000  -0.00509  -0.00508  -2.88963
   D29        0.25724  -0.00317   0.00000  -0.01914  -0.01902   0.23822
   D30       -2.90708  -0.00075   0.00000  -0.01371  -0.01360  -2.92068
   D31       -3.12463  -0.00588   0.00000  -0.01310  -0.01297  -3.13760
   D32       -0.00576  -0.00346   0.00000  -0.00766  -0.00755  -0.01331
   D33        0.05296   0.00180   0.00000   0.01045   0.01043   0.06338
   D34       -3.02663  -0.00064   0.00000   0.00722   0.00719  -3.01945
   D35       -2.75502  -0.00128   0.00000  -0.01051  -0.01047  -2.76550
   D36        0.44857  -0.00372   0.00000  -0.01373  -0.01371   0.43486
   D37        0.03757   0.00144   0.00000   0.00900   0.00905   0.04661
   D38       -3.08144  -0.00144   0.00000   0.00291   0.00314  -3.07830
   D39        3.01223   0.00219   0.00000  -0.00139  -0.00141   3.01082
   D40       -0.06543  -0.00130   0.00000  -0.00538  -0.00536  -0.07079
   D41        3.09850   0.00020   0.00000   0.00107   0.00106   3.09957
   D42        1.02392  -0.00102   0.00000  -0.00211  -0.00211   1.02181
   D43       -1.11635   0.00104   0.00000   0.00312   0.00312  -1.11323
         Item               Value     Threshold  Converged?
 Maximum Force            0.045394     0.000450     NO 
 RMS     Force            0.012103     0.000300     NO 
 Maximum Displacement     0.140270     0.001800     NO 
 RMS     Displacement     0.039738     0.001200     NO 
 Predicted change in Energy=-9.053588D-03
 GradGradGradGradGradGradGradGradGradGradGradGradGradGradGradGradGradGrad

                          Input orientation:                          
 ---------------------------------------------------------------------
 Center     Atomic      Atomic             Coordinates (Angstroms)
 Number     Number       Type             X           Y           Z
 ---------------------------------------------------------------------
      1          6           0        1.889545    0.171909   -0.009538
      2          6           0        0.723157   -1.604737    0.296968
      3          6           0        0.371922    1.233901    1.099191
      4          6           0       -0.495834   -1.093440    0.841868
      5          7           0        1.655480    0.741858    1.253240
      6          1           0        0.671980   -1.980249   -0.730951
      7          1           0        1.355359   -2.181556    0.978283
      8          1           0       -0.258129    1.631037    1.884383
      9          1           0       -0.656976   -1.094182    1.917747
     10          8           0        1.128983    0.781375   -0.988907
     11          6           0        0.111943    1.445240   -0.325679
     12          8           0       -0.795976    2.047270   -0.845028
     13          6           0       -1.698335   -0.940274   -0.012451
     14          8           0       -1.762305   -1.281832   -1.173765
     15          8           0       -2.660716   -0.303468    0.681603
     16          6           0       -3.802496    0.047155   -0.097361
     17          1           0       -4.527683    0.514964    0.575380
     18          1           0       -4.256431   -0.843250   -0.548568
     19          1           0       -3.520572    0.766484   -0.875810
     20          6           0        3.196982   -0.307560   -0.356960
     21          7           0        4.249271   -0.726339   -0.604750
     22          1           0        2.009432    0.318194    2.104106
 ---------------------------------------------------------------------
                    Distance matrix (angstroms):
                    1          2          3          4          5
     1  C    0.000000
     2  C    2.147295   0.000000
     3  C    2.158770   2.970655   0.000000
     4  C    2.831261   1.429783   2.497145   0.000000
     5  N    1.405076   2.700035   1.383242   2.857569   0.000000
     6  H    2.575788   1.095557   3.710824   2.150344   3.509152
     7  H    2.607670   1.093887   3.556278   2.151632   2.951614
     8  H    3.213798   3.735377   1.082223   2.926793   2.202472
     9  H    3.435431   2.189146   2.673694   1.087880   3.026560
    10  O    1.381690   2.740748   2.266732   3.083294   2.303472
    11  C    2.209340   3.172322   1.463730   2.859625   2.317377
    12  O    3.380392   4.116926   2.409469   3.577676   3.480871
    13  C    3.756307   2.529996   3.201367   1.483014   3.959750
    14  O    4.099366   2.906002   4.006266   2.387932   4.654775
    15  O    4.626936   3.645798   3.425606   2.310077   4.477614
    16  C    5.694085   4.833816   4.501762   3.621756   5.665354
    17  H    6.452955   5.669389   4.979696   4.348998   6.224345
    18  H    6.252529   5.107944   5.333977   4.017212   6.380421
    19  H    5.511199   5.000734   4.389831   3.944461   5.596872
    20  C    1.435264   2.868815   3.532342   3.961273   2.463787
    21  N    2.594115   3.744082   4.666883   4.974283   3.512190
    22  H    2.122090   2.935628   2.128336   3.140432   1.014271
                    6          7          8          9         10
     6  H    0.000000
     7  H    1.851759   0.000000
     8  H    4.554828   4.237951   0.000000
     9  H    3.093031   2.472745   2.754453   0.000000
    10  O    2.811043   3.563712   3.301787   3.893072   0.000000
    11  C    3.494547   4.049697   2.248521   3.474602   1.383820
    12  O    4.288219   5.082881   2.812865   4.185806   2.308390
    13  C    2.686296   3.442003   3.504827   2.198586   3.451271
    14  O    2.570917   3.893667   4.483260   3.288528   3.556761
    15  O    3.989206   4.443433   3.310803   2.483598   4.281274
    16  C    4.953053   5.720806   4.358730   3.906098   5.064920
    17  H    5.913466   6.484114   4.603063   4.401553   5.875018
    18  H    5.061152   5.967790   5.294125   4.370555   5.642339
    19  H    5.014281   5.991936   4.360006   4.412054   4.650955
    20  C    3.051785   2.947255   4.551875   4.543794   2.421106
    21  N    3.792786   3.605326   5.663008   5.528975   3.486685
    22  H    3.887051   2.818517   2.629385   3.023122   3.249070
                   11         12         13         14         15
    11  C    0.000000
    12  O    1.206848   0.000000
    13  C    3.010962   3.229993   0.000000
    14  O    3.415988   3.482066   1.212190   0.000000
    15  O    3.429320   3.366575   1.346629   2.281825   0.000000
    16  C    4.162884   3.687631   2.325880   2.662185   1.425967
    17  H    4.816996   4.276815   3.235502   3.733001   2.041244
    18  H    4.936553   4.518599   2.615471   2.608426   2.085902
    19  H    3.736110   3.010778   2.641772   2.715856   2.075978
    20  C    3.548344   4.661239   4.948044   5.119659   5.949055
    21  N    4.680931   5.762392   5.980853   6.063942   7.041409
    22  H    3.282461   4.422376   4.450965   5.246953   4.921408
                   16         17         18         19         20
    16  C    0.000000
    17  H    1.094222   0.000000
    18  H    1.096570   1.783700   0.000000
    19  H    1.096767   1.784233   1.799950   0.000000
    20  C    7.013266   7.824081   7.475094   6.822632   0.000000
    21  N    8.104732   8.942508   8.506690   7.916593   1.159348
    22  H    6.220805   6.716367   6.902656   6.297762   2.803335
                   21         22
    21  N    0.000000
    22  H    3.666855   0.000000
 Stoichiometry    C8H8N2O4
 Framework group  C1[X(C8H8N2O4)]
 Deg. of freedom    60
 Full point group                 C1      NOp   1
 Largest Abelian subgroup         C1      NOp   1
 Largest concise Abelian subgroup C1      NOp   1
                         Standard orientation:                         
 ---------------------------------------------------------------------
 Center     Atomic      Atomic             Coordinates (Angstroms)
 Number     Number       Type             X           Y           Z
 ---------------------------------------------------------------------
      1          6           0        1.879844    0.135829    0.006200
      2          6           0        0.686151   -1.630669    0.262046
      3          6           0        0.371312    1.192018    1.132736
      4          6           0       -0.528469   -1.115319    0.812857
      5          7           0        1.646711    0.677635    1.281478
      6          1           0        0.635521   -1.979783   -0.775163
      7          1           0        1.305988   -2.233371    0.932226
      8          1           0       -0.257483    1.578705    1.924127
      9          1           0       -0.695847   -1.140396    1.887491
     10          8           0        1.133864    0.780429   -0.961824
     11          6           0        0.122688    1.442403   -0.287827
     12          8           0       -0.773409    2.070310   -0.796968
     13          6           0       -1.723653   -0.923485   -0.043919
     14          8           0       -1.785809   -1.235164   -1.213705
     15          8           0       -2.680745   -0.290120    0.660517
     16          6           0       -3.812800    0.096334   -0.115684
     17          1           0       -4.535045    0.557841    0.564533
     18          1           0       -4.276924   -0.775890   -0.591373
     19          1           0       -3.515999    0.830561   -0.874445
     20          6           0        3.182212   -0.353895   -0.345923
     21          7           0        4.229761   -0.781705   -0.598326
     22          1           0        1.989561    0.227879    2.123452
 ---------------------------------------------------------------------
 Rotational constants (GHZ):           1.4068584           0.4802810           0.4350244
 Standard basis: STO-3G (5D, 7F)
 There are    78 symmetry adapted cartesian basis functions of A   symmetry.
 There are    78 symmetry adapted basis functions of A   symmetry.
    78 basis functions,   234 primitive gaussians,    78 cartesian basis functions
    51 alpha electrons       51 beta electrons
       nuclear repulsion energy       903.3409486800 Hartrees.
 NAtoms=   22 NActive=   22 NUniq=   22 SFac= 1.00D+00 NAtFMM=   60 NAOKFM=F Big=F
 Integral buffers will be    131072 words long.
 Raffenetti 1 integral format.
 Two-electron integral symmetry is turned on.
 External calculation of energy, first and second derivatives.
 Running external command "~/scripts/MiMe -H 'wb97xd def2svp' -EF 'wb97xd def2svp' -c 12 -m 48GB R"
         input file       "/local/jobs/1158116/Gau-708884.EIn"
         output file      "/local/jobs/1158116/Gau-708884.EOu"
         message file     "/local/jobs/1158116/Gau-708884.EMs"
         fchk file        "/local/jobs/1158116/Gau-708884.EFC"
         mat. el file     "/local/jobs/1158116/Gau-708884.EUF"
 Read checkpoint file Gau-708884_H.chk type G16
 Write formatted file Gau-708884_H.fchk

deriv: 2

spelevel: wb97xd def2svp
gradlevel: wb97xd def2svp
hesslevel: wb97xd def2svp

runspe: False
runforce: False
runfreq: True

Running Gaussian ...

Parsing files ...
SPE file: Gau-708884_H.out
FORCE file: Gau-708884_H.out
HESS file: Gau-708884_H.out

 ExternalExternalExternalExternalExternalExternalExternalExternalExternalExternal
 Output from external command:
 "~/scripts/MiMe -H 'wb97xd def2svp' -EF 'wb97xd def2svp' -c 12 -m 48GB R /local/jobs/1158116/Gau-708884.EIn /local/jobs/1158116/Gau-708884.EOu /local/jobs/1158116/Gau-708884.EMs /local/jobs/1158116/Gau-708884.EFC /local/jobs/1158116/Gau-708884.EUF"
  
 --------------------------------------------------
 Hessian calculation at wb97xd def2svp
 ExternalExternalExternalExternalExternalExternalExternalExternalExternalExternal

 Recovered energy= -719.189847362     dipole=     -0.410200000000      0.023500000000      6.205900000000
 Energy=    -719.189847     NIter=   0.
 Dipole moment=      -0.410200       0.023500       6.205900
 ***** Axes restored to original set *****
 -------------------------------------------------------------------
 Center     Atomic                   Forces (Hartrees/Bohr)
 Number     Number              X              Y              Z
 -------------------------------------------------------------------
      1        6          -0.002667027   -0.023311855    0.007554503
      2        6          -0.025832048    0.009508750    0.008776314
      3        6           0.012225982   -0.016411183    0.005288766
      4        6           0.031990227   -0.002188061   -0.015028916
      5        7          -0.036820475    0.011073149   -0.049409491
      6        1           0.001875903    0.003270666   -0.000393837
      7        1           0.005465346    0.004007260   -0.001329465
      8        1           0.003005634    0.003279294    0.004194030
      9        1          -0.001053301    0.001248622    0.002557243
     10        8           0.015520167   -0.002681528    0.029538391
     11        6          -0.022399551    0.012496554    0.009683898
     12        8           0.018553461   -0.013963392    0.000420749
     13        6           0.009845332    0.005552367   -0.002892962
     14        8          -0.005784522    0.006505722    0.015927205
     15        8          -0.004129160   -0.004898574   -0.015460198
     16        6          -0.001678459    0.001219805    0.004006024
     17        1           0.001073633    0.000254065    0.003277224
     18        1           0.000595570   -0.000919052   -0.002345383
     19        1           0.001025382   -0.000817912   -0.002212823
     20        6           0.003930401    0.005086684   -0.002856145
     21        7          -0.006124715    0.000641020    0.001610897
     22        1           0.001382220    0.001047601   -0.000906023
 -------------------------------------------------------------------
 Cartesian Forces:  Max     0.049409491 RMS     0.012594030
 FormGI is forming the generalized inverse of G from B-inverse, IUseBI=4.

 GradGradGradGradGradGradGradGradGradGradGradGradGradGradGradGradGradGrad
 Berny optimization.
 Internal  Forces:  Max     0.033453540 RMS     0.009131894
 Search for a saddle point.
 Step number   3 out of a maximum of   50
 All quantities printed in internal units (Hartrees-Bohrs-Radians)
 Swapping is turned off.
 Second derivative matrix not updated -- analytic derivatives used.
 ITU=  0  0  0
     Eigenvalues ---   -0.06820   0.00266   0.00541   0.00653   0.00857
     Eigenvalues ---    0.01018   0.01509   0.02023   0.02148   0.02758
     Eigenvalues ---    0.02995   0.03774   0.04094   0.05036   0.05299
     Eigenvalues ---    0.05554   0.05719   0.06885   0.07140   0.07271
     Eigenvalues ---    0.08276   0.08454   0.08605   0.09534   0.09883
     Eigenvalues ---    0.10994   0.11322   0.13004   0.17178   0.17401
     Eigenvalues ---    0.18661   0.18893   0.19666   0.19944   0.22074
     Eigenvalues ---    0.23970   0.25255   0.25712   0.27067   0.27671
     Eigenvalues ---    0.30835   0.33025   0.35102   0.35289   0.35831
     Eigenvalues ---    0.35953   0.36156   0.37476   0.37884   0.38848
     Eigenvalues ---    0.38916   0.39563   0.40321   0.44482   0.47674
     Eigenvalues ---    0.47870   0.49790   0.87492   0.88310   1.27647
 Eigenvectors required to have negative eigenvalues:
                          R1        D27       D12       R5        D10
   1                   -0.72357  -0.21859   0.21641   0.18073   0.17664
                          D29       D21       D24       D26       A8
   1                    0.16858  -0.15255   0.15169   0.14415   0.13493
 RFO step:  Lambda0=2.169190235D-03 Lambda=-2.52702653D-02.
 Linear search not attempted -- option 19 set.
 Maximum step size (   0.100) exceeded in Quadratic search.
    -- Step size scaled by   0.348
 Iteration  1 RMS(Cart)=  0.03234847 RMS(Int)=  0.00037859
 Iteration  2 RMS(Cart)=  0.00047853 RMS(Int)=  0.00011889
 Iteration  3 RMS(Cart)=  0.00000018 RMS(Int)=  0.00011889
 Variable       Old X    -DE/DX   Delta X   Delta X   Delta X     New X
                                 (Linear)    (Quad)   (Total)
    R1        4.05780  -0.02682   0.00000   0.01701   0.01701   4.07481
    R2        2.65521  -0.02441   0.00000  -0.02831  -0.02828   2.62693
    R3        2.61102  -0.02816   0.00000  -0.02806  -0.02806   2.58296
    R4        2.71226  -0.00361   0.00000  -0.00347  -0.00347   2.70878
    R5        2.70190  -0.02969   0.00000  -0.03488  -0.03488   2.66702
    R6        2.07030  -0.00084   0.00000  -0.00115  -0.00115   2.06915
    R7        2.06715   0.00021   0.00000  -0.00054  -0.00054   2.06661
    R8        2.61395  -0.02316   0.00000  -0.02337  -0.02329   2.59066
    R9        2.04511   0.00250   0.00000   0.00146   0.00146   2.04656
   R10        2.76605  -0.01027   0.00000  -0.01131  -0.01135   2.75470
   R11        2.05580   0.00268   0.00000   0.00227   0.00227   2.05806
   R12        2.80249  -0.00023   0.00000   0.00098   0.00098   2.80347
   R13        1.91670  -0.00072   0.00000  -0.00013  -0.00013   1.91656
   R14        2.61504   0.00346   0.00000   0.01188   0.01180   2.62684
   R15        2.28061  -0.02110   0.00000  -0.00858  -0.00858   2.27203
   R16        2.29071  -0.01679   0.00000  -0.00552  -0.00552   2.28519
   R17        2.54476  -0.00678   0.00000  -0.00626  -0.00626   2.53850
   R18        2.69469  -0.00237   0.00000  -0.00339  -0.00339   2.69130
   R19        2.06778   0.00141   0.00000   0.00095   0.00095   2.06873
   R20        2.07222   0.00146   0.00000   0.00153   0.00153   2.07375
   R21        2.07259   0.00130   0.00000   0.00123   0.00123   2.07382
   R22        2.19085  -0.00613   0.00000  -0.00160  -0.00160   2.18925
    A1        1.68791  -0.00499   0.00000   0.00226   0.00214   1.69005
    A2        1.73872  -0.00491   0.00000  -0.00934  -0.00936   1.72936
    A3        1.82654   0.01040   0.00000   0.00877   0.00874   1.83528
    A4        1.94594  -0.00945   0.00000  -0.01874  -0.01872   1.92722
    A5        2.09995   0.00563   0.00000   0.00930   0.00926   2.10921
    A6        2.06828   0.00247   0.00000   0.00698   0.00700   2.07528
    A7        1.79428  -0.03345   0.00000  -0.01301  -0.01291   1.78137
    A8        1.74674   0.00675   0.00000  -0.02506  -0.02504   1.72170
    A9        1.78366   0.00839   0.00000  -0.01636  -0.01624   1.76742
   A10        2.02675   0.00642   0.00000   0.00935   0.00881   2.03557
   A11        2.03078   0.00906   0.00000   0.01911   0.01874   2.04953
   A12        2.01600  -0.00321   0.00000   0.00740   0.00673   2.02273
   A13        2.20181   0.00147   0.00000  -0.00793  -0.00798   2.19382
   A14        1.90137  -0.01024   0.00000  -0.00982  -0.00977   1.89160
   A15        2.15302   0.00823   0.00000   0.01790   0.01789   2.17092
   A16        2.09780   0.00129   0.00000   0.00882   0.00877   2.10657
   A17        2.10447  -0.00108   0.00000  -0.00131  -0.00137   2.10310
   A18        2.03720   0.00044   0.00000  -0.00199  -0.00206   2.03514
   A19        1.77091   0.01875   0.00000   0.03021   0.03025   1.80116
   A20        2.12512  -0.00825   0.00000  -0.00486  -0.00503   2.12009
   A21        2.17224  -0.01045   0.00000  -0.00647  -0.00677   2.16547
   A22        1.85090   0.00651   0.00000   0.01506   0.01495   1.86585
   A23        1.84081  -0.00598   0.00000  -0.01153  -0.01164   1.82918
   A24        2.24536   0.01389   0.00000   0.02809   0.02814   2.27350
   A25        2.19688  -0.00788   0.00000  -0.01647  -0.01643   2.18045
   A26        2.17193   0.00279   0.00000   0.00170   0.00169   2.17363
   A27        1.90860   0.01028   0.00000   0.01133   0.01131   1.91991
   A28        2.20099  -0.01292   0.00000  -0.01256  -0.01257   2.18842
   A29        1.98992   0.00806   0.00000   0.01005   0.01005   1.99997
   A30        1.87542  -0.00395   0.00000  -0.00686  -0.00687   1.86855
   A31        1.93540   0.00051   0.00000   0.00051   0.00051   1.93591
   A32        1.92109  -0.00018   0.00000  -0.00134  -0.00135   1.91974
   A33        1.90263   0.00256   0.00000   0.00621   0.00622   1.90885
   A34        1.90322   0.00262   0.00000   0.00656   0.00656   1.90978
   A35        1.92508  -0.00153   0.00000  -0.00488  -0.00488   1.92019
   A36        3.10558  -0.00361   0.00000  -0.00815  -0.00815   3.09743
   A37        3.15944  -0.00080   0.00000  -0.00365  -0.00365   3.15579
    D1        0.82733  -0.00615   0.00000  -0.00711  -0.00715   0.82018
    D2        2.92062  -0.00800   0.00000  -0.01053  -0.01053   2.91009
    D3       -1.28435  -0.00640   0.00000  -0.01655  -0.01650  -1.30086
    D4       -1.14860   0.00578   0.00000   0.01360   0.01354  -1.13507
    D5        0.94468   0.00392   0.00000   0.01019   0.01016   0.95485
    D6        3.02290   0.00553   0.00000   0.00416   0.00419   3.02709
    D7        2.98785   0.00127   0.00000   0.00661   0.00659   2.99444
    D8       -1.20204  -0.00059   0.00000   0.00320   0.00321  -1.19883
    D9        0.87617   0.00102   0.00000  -0.00283  -0.00276   0.87341
   D10       -1.34590   0.01235   0.00000   0.00698   0.00695  -1.33895
   D11        1.15990   0.00991   0.00000   0.03025   0.03032   1.19022
   D12        0.45410   0.00281   0.00000  -0.00626  -0.00627   0.44783
   D13        2.95990   0.00037   0.00000   0.01700   0.01710   2.97699
   D14        2.99408   0.00112   0.00000  -0.00847  -0.00853   2.98555
   D15       -0.78331  -0.00133   0.00000   0.01479   0.01484  -0.76847
   D16        1.44709  -0.00930   0.00000  -0.00536  -0.00528   1.44182
   D17       -0.31907   0.00071   0.00000   0.00090   0.00087  -0.31820
   D18       -2.87115   0.00106   0.00000   0.00195   0.00197  -2.86918
   D19       -1.70255  -0.00166   0.00000  -0.00510  -0.00505  -1.70760
   D20        1.76258  -0.00409   0.00000  -0.02456  -0.02456   1.73802
   D21        2.69318   0.00754   0.00000   0.02850   0.02871   2.72189
   D22       -0.12488   0.00511   0.00000   0.00905   0.00920  -0.11568
   D23        0.23051  -0.00832   0.00000  -0.02445  -0.02463   0.20587
   D24       -2.58755  -0.01076   0.00000  -0.04391  -0.04414  -2.63169
   D25        2.97697  -0.00044   0.00000   0.00703   0.00716   2.98413
[...]
 4,0.00135734,-0.04374003,0.02755107,-0.02443426,0.00365711,-0.00393642
 ,-0.00179989,0.00599642,-0.00417027,-0.01004256,-0.00029626,0.00053354
 ,-0.00032878,0.00030386,0.00067916,0.00038296,0.00043305,-0.00103453,0
 .00083087,0.00042827,0.00074171,0.00033065,0.01002791,-0.00689276,0.03
 830028,-0.27742920,0.16189133,-0.28464473,0.30992778,-0.18187437,0.284
 82157,-0.00248625,0.00580112,0.00521277,-0.03126094,0.00750452,-0.0092
 0926,-0.01268303,-0.00420363,-0.00714291,-0.17297319,0.02226999,-0.070
 05966,0.01468155,-0.00051763,-0.00202436,-0.00203157,-0.00156641,-0.00
 093749,0.00072404,0.00259198,0.00116526,0.00150151,0.00109067,-0.00031
 783,0.01127043,-0.00354549,0.01044477,0.00009323,0.00186151,-0.0003399
 7,0.01102044,-0.01195162,0.01363258,-0.01182081,0.00416779,-0.00666249
 ,0.58455914,-0.00097150,-0.00691126,-0.00431071,0.01979136,0.00010217,
 0.00385289,0.00291375,-0.00205841,0.00067323,0.01660518,-0.06980577,0.
 01945810,-0.00982107,0.00043578,0.00399859,-0.00124749,-0.00485624,0.0
 0133395,0.00566161,0.00491030,-0.00202511,-0.00095005,-0.00106786,0.00
 006897,-0.00097822,-0.00020588,-0.00347577,0.00132458,-0.00049061,-0.0
 0108507,-0.01420217,-0.00160348,-0.00703064,0.00703962,-0.00245449,0.0
 0297862,-0.12880137,0.31698949,0.00790038,0.00706689,0.00507684,-0.007
 31225,-0.00066269,0.01924297,-0.00478949,-0.00114922,-0.00287834,-0.04
 846268,0.00889918,-0.14076929,0.00691220,-0.00139939,-0.00542440,0.004
 17309,-0.00140484,-0.00111596,0.00338634,-0.00190775,-0.00274560,-0.00
 040617,-0.00025214,-0.00067131,-0.02171659,0.00289203,-0.01293347,0.00
 006603,-0.00055798,-0.00201445,0.00615115,-0.00136384,0.01391532,-0.00
 580392,0.00074407,-0.00727075,0.05795413,0.17515764,1.01713396,0.00188
 375,0.00039408,-0.00110316,-0.00054185,-0.00001661,-0.00169529,0.00295
 925,0.00034390,0.00238892,0.00519412,-0.00304164,-0.03749348,-0.003764
 85,-0.00040127,-0.00049391,0.00065311,-0.00055761,-0.00098422,0.000039
 49,-0.00088895,-0.00096909,-0.00036034,-0.00014181,0.00006160,-0.00575
 066,0.00140189,-0.00413487,0.00064475,-0.00109385,-0.00013715,-0.00472
 339,0.00208361,-0.00358915,0.00315950,-0.00104360,0.00163662,-0.115647
 59,0.00268205,-0.04370791,0.10704622,0.00000067,0.00014578,0.00124489,
 0.00026566,-0.00035215,0.00126266,-0.00033228,0.00074252,0.00028375,0.
 00300217,0.01572767,-0.00371361,0.00164353,0.00041639,-0.00098246,-0.0
 0070651,0.00010479,0.00069542,-0.00052281,-0.00025736,0.00063949,0.000
 17782,0.00021452,-0.00007859,0.00018523,0.00242698,0.00063238,-0.00082
 489,0.00072211,-0.00008195,0.00314296,-0.00268506,0.00282351,-0.003450
 37,-0.00001070,-0.00221292,0.00231687,-0.11648448,-0.14781023,-0.02153
 279,0.09340537,-0.00296712,-0.00325300,-0.00412400,0.01035735,-0.00161
 206,-0.00436216,0.00423393,0.00159123,0.00194501,-0.02770564,-0.007168
 27,-0.04698188,-0.00534149,0.00025297,0.00312036,-0.00207095,0.0008849
 6,0.00051267,-0.00024035,0.00040615,0.00111317,0.00010316,0.00006900,0
 .00040570,-0.00518021,0.00083413,-0.00225250,0.00031046,0.00040098,0.0
 0178451,-0.00422637,0.00124900,-0.00886473,0.00407881,0.00054408,0.004
 50139,-0.04087106,-0.15118676,-0.73632348,0.02887461,0.19497298,0.8559
 2917,0.00048542,-0.00212842,-0.00176529,0.00068518,0.00192803,-0.00775
 727,0.00388126,0.00037656,0.00364471,-0.05164521,0.02630563,0.01453759
 ,-0.00656499,-0.00008920,0.00075081,0.00162784,-0.00022409,0.00040888,
 -0.00229930,-0.00028817,0.00057497,-0.00048617,-0.00001129,0.00018269,
 -0.00124199,0.00038345,0.00004679,-0.00021723,-0.00119260,-0.00003551,
 -0.00639194,0.00458097,-0.00661849,0.00555771,-0.00243491,0.00287796,-
 0.22259233,0.07950133,0.06769546,0.00470566,0.02294565,0.04663832,0.49
 482923,-0.00074688,0.00173156,0.00134095,-0.00097888,0.00046282,0.0025
 3611,-0.00294910,-0.00008363,-0.00188329,0.02223800,-0.00012506,-0.005
 91793,0.00399360,-0.00050415,-0.00055414,-0.00086081,0.00056648,-0.000
 27798,0.00043870,-0.00001996,0.00010867,0.00066609,0.00048947,0.000098
 86,-0.00021198,-0.00062057,0.00007857,-0.00063502,0.00104898,0.0005742
 6,0.00541987,-0.00358899,0.00335535,-0.00484066,0.00147741,-0.00120675
 ,0.07707875,-0.11119655,-0.05139504,0.02488407,0.00829321,-0.04154666,
 -0.18588946,0.18062813,-0.00121172,0.00087807,-0.00012822,-0.00283343,
 0.00051898,-0.00155925,-0.00124365,-0.00046194,-0.00019435,-0.01429034
 ,0.00621145,0.01306476,0.00127296,-0.00040182,0.00028796,-0.00130027,0
 .00036782,-0.00015202,-0.00068304,0.00051009,0.00062951,0.00059535,0.0
 0060343,0.00004699,0.00081360,-0.00060200,0.00196366,0.00033137,-0.000
 09021,0.00065605,0.00004316,0.00018348,-0.00116888,0.00009669,0.000046
 56,0.00092345,0.04149936,-0.03711567,-0.15783746,0.05426349,-0.0452655
 7,-0.06388715,0.00788920,0.05381574,0.36574108,0.00011393,0.00046775,0
 .00028225,-0.00125018,-0.00000400,-0.00012363,-0.00120353,-0.00005741,
 -0.00091807,0.00324334,0.00202521,0.00267021,0.00181090,0.00029372,-0.
 00015645,-0.00023593,0.00011931,-0.00010083,0.00003676,-0.00000788,0.0
 0019362,-0.00007131,-0.00028366,-0.00016345,0.00005846,-0.00013098,-0.
 00038659,0.00035169,0.00015007,-0.00009689,-0.00008116,-0.00123281,0.0
 0147098,-0.00100605,0.00099033,-0.00094505,-0.05953193,0.02742804,-0.0
 0154541,0.00298970,-0.00779939,-0.01395403,-0.16247203,0.03451892,-0.0
 5421352,0.54239329,0.00036397,-0.00011167,-0.00025555,0.00039757,0.000
 44134,0.00009056,0.00090915,0.00006659,0.00105365,0.00093170,0.0040559
 1,-0.00218395,-0.00091229,-0.00013843,0.00005999,0.00021795,0.00009649
 ,0.00000979,-0.00024925,-0.00029312,-0.00002113,0.00005955,0.00018952,
 0.00003581,-0.00014636,-0.00031559,-0.00005459,0.00022628,-0.00048197,
 -0.00008761,-0.00216143,0.00160354,-0.00187961,0.00174317,-0.00077698,
 0.00104555,0.02826170,-0.00941562,0.00679305,-0.00384908,-0.00258787,0
 .00555756,0.03253871,-0.08338815,0.01134629,0.01725156,0.59940339,-0.0
 0022757,0.00004683,0.00023789,0.00037237,-0.00034657,0.00110506,-0.000
 87173,0.00015070,-0.00101653,0.00418730,-0.00259959,-0.00146176,0.0008
 3607,0.00014192,-0.00011177,-0.00027212,0.00004122,-0.00007022,0.00043
 410,0.00001384,-0.00005627,-0.00013081,-0.00014268,-0.00004309,0.00019
 235,0.00007826,0.00021687,-0.00031701,0.00056492,0.00004414,0.00210559
 ,-0.00189889,0.00207950,-0.00220264,0.00097402,-0.00141103,0.00395433,
 0.00232788,0.02271308,0.00563218,-0.00303021,-0.00702810,-0.08033252,0
 .02274108,-0.14374039,-0.07256953,0.02967190,0.58321415,0.00007505,-0.
 00007024,-0.00010775,-0.00012427,0.00009503,-0.00040084,0.00027070,0.0
 0005391,0.00020217,-0.00095978,0.00065948,0.00082486,-0.00039609,-0.00
 002898,-0.00000327,0.00006017,-0.00000540,0.00000698,-0.00012566,-0.00
 000301,0.00003284,-0.00006034,0.00000691,0.00001322,-0.00001874,-0.000
 00717,-0.00001145,-0.00000068,-0.00007437,-0.00000151,-0.00017286,0.00
 023125,-0.00026201,0.00020718,-0.00021966,0.00003839,-0.00048454,-0.00
 089609,-0.00577758,0.00096699,0.00007274,0.00117457,-0.02988650,0.0165
 3537,0.01371980,-0.15864102,0.06975374,0.11536616,0.18196790,0.0000082
 7,0.00000881,0.00004163,0.00001992,-0.00002561,0.00013969,-0.00009323,
 0.00002552,-0.00008779,0.00037669,-0.00007022,-0.00032383,0.00013331,0
 .00001827,-0.00002080,-0.00002303,0.00001678,-0.00000410,0.00003590,-0
 .00001355,-0.00000700,-0.00001736,-0.00000097,-0.00001927,0.00002002,0
 .00001555,0.00002429,-0.00001729,0.00004347,-0.00000231,0.00019620,-0.
 00014606,0.00023546,-0.00019488,-0.00002542,-0.00020287,0.00003289,0.0
 0049528,0.00152086,0.00034599,0.00046016,-0.00019543,0.00973476,-0.005
 11610,-0.00411255,0.07172555,-0.09919230,-0.07508637,-0.08498097,0.099
 11715,-0.00004469,-0.00000206,-0.00003109,-0.00011384,0.00002348,-0.00
 018290,-0.00001440,-0.00006308,0.00005144,-0.00051976,0.00034005,0.000
 66116,0.00004963,0.00002219,0.00003641,-0.00001815,0.00000749,0.000010
 40,-0.00005531,0.00001997,0.00003650,0.00001034,-0.00000940,0.00000422
 ,0.00004277,-0.00001544,0.00001816,0.00007515,-0.00005159,-0.00000936,
 -0.00027652,0.00015327,-0.00022226,0.00029076,0.00007934,0.00020443,-0
 .00297254,0.00019315,-0.00495694,0.00197834,-0.00060008,0.00204624,-0.
 02333841,0.01338660,0.01384801,0.12720756,-0.08087453,-0.17598789,-0.1
 2111184,0.08030239,0.18001984,-0.00008203,-0.00007575,-0.00008201,0.00
 015945,0.00011004,-0.00013378,0.00012766,0.00010290,0.00010646,-0.0004
 1487,0.00097133,0.00024186,-0.00024123,-0.00004366,0.00005525,-0.00001
 142,0.00002756,-0.00000428,-0.00009224,-0.00004534,0.00003219,0.000021
 22,0.00006617,0.00002529,0.00013201,-0.00012809,0.00009500,-0.00004841
 ,-0.00001078,0.00004840,0.00003526,0.00009306,-0.00021526,-0.00000258,
 -0.00005906,0.00006941,0.00436527,-0.00466762,-0.00760618,0.00041861,0
 .00091680,0.00375923,-0.02582928,-0.01635565,-0.01751768,-0.08849583,-
 0.08190810,-0.04249855,0.01076987,0.01660479,0.00825254,0.10098584,-0.
 00007490,0.00010069,0.00008515,-0.00001357,-0.00003212,-0.00000239,-0.
 00015936,0.00008446,-0.00026019,-0.00016502,-0.00069161,0.00024543,0.0
 0018921,-0.00004678,-0.00003674,-0.00002615,-0.00000954,-0.00000650,0.
 00002248,0.00003366,-0.00000291,0.00001791,-0.00001232,0.00000728,0.00
 001012,0.00003785,0.00004405,-0.00014834,0.00012294,0.00005908,0.00070
 771,-0.00041673,0.00052357,-0.00072459,0.00013024,-0.00022623,0.000896
 30,0.00087581,-0.00046229,0.00113096,-0.00031795,0.00048392,0.00699128
 ,0.01593716,0.00677253,-0.08951468,-0.23668389,-0.09779051,-0.00517205
 ,-0.00710783,-0.00179784,0.09183979,0.24146496,0.00004476,-0.00007454,
 -0.00003938,0.00012493,0.00010157,-0.00012635,0.00022717,-0.00001300,0
 .00023780,-0.00060408,0.00028316,-0.00005549,-0.00024792,-0.00003433,0
 .00003507,0.00004971,-0.00001676,0.00002183,-0.00006835,-0.00002725,-0
 .00000122,0.00003062,0.00005171,0.00001850,0.00001812,-0.00009052,0.00
 001339,0.00007691,-0.00013986,-0.00003857,-0.00054074,0.00051896,-0.00
 052199,0.00067390,-0.00021061,0.00026135,0.00392440,-0.00184972,-0.000
 91601,-0.00046053,0.00055105,0.00075665,-0.01799096,-0.01022972,-0.012
 39158,-0.04517265,-0.09437204,-0.10038096,-0.00839022,-0.01499516,-0.0
 0596478,0.05929301,0.10331498,0.10760666,-0.00024732,-0.00047615,-0.00
 034060,0.00053488,0.00004308,-0.00015972,0.00044516,-0.00036200,0.0004
 2943,-0.00132315,-0.00046010,0.00024177,-0.00052077,0.00013466,0.00036
 740,0.00000042,-0.00001513,0.00001727,-0.00003166,-0.00002922,-0.00001
 161,0.00001082,0.00000794,0.00002860,0.00011075,0.00001424,0.00012058,
 0.00056500,-0.00032317,-0.00015312,-0.00192077,0.00141511,-0.00152816,
 0.00159085,-0.00028483,0.00099357,0.00487916,-0.00115228,-0.00571234,-
 0.00034215,0.00063289,0.00200529,-0.00307652,0.02797817,-0.02738149,-0
 .07761446,-0.06355433,0.06652124,-0.00349366,-0.01388219,0.01056503,-0
 .00185573,-0.00580910,0.00896174,0.08221356,-0.00004657,-0.00006570,-0
 .00007796,0.00002434,0.00003253,-0.00000661,0.00006539,0.00003267,-0.0
 0009086,0.00003644,-0.00005537,-0.00028112,-0.00004857,0.00005166,0.00
 004270,0.00003340,-0.00001603,0.00000746,-0.00000670,-0.00002437,-0.00
 001009,-0.00002245,-0.00002231,-0.00000538,-0.00008330,0.00000543,-0.0
 0008058,0.00021167,-0.00012228,-0.00000684,-0.00004944,0.00014272,0.00
 000173,-0.00014828,-0.00024613,0.00005717,-0.00219402,0.00188310,0.005
 28406,-0.00107289,0.00026062,-0.00252939,0.00653257,-0.00562068,0.0069
 7258,-0.05590353,-0.17257997,0.12421635,0.00401793,0.01149865,-0.01111
 510,-0.00744200,-0.01344022,0.01721320,0.05609606,0.17828046,0.0001164
 8,-0.00019365,-0.00012247,0.00015439,-0.00002486,-0.00004228,0.0003512
 4,-0.00011133,0.00048662,-0.00061251,0.00018282,-0.00011731,-0.0003488
 0,0.00004767,0.00005863,0.00005991,-0.00001251,0.00003758,-0.00003215,
 -0.00000942,-0.00001575,-0.00001615,0.00003538,-0.00001311,0.00002312,
 -0.00000571,0.00005277,0.00026087,-0.00029538,-0.00009055,-0.00132869,
 0.00088930,-0.00104513,0.00140204,-0.00031185,0.00041244,0.00433047,-0
 .00265492,-0.00146661,-0.00058268,0.00081618,0.00110185,-0.00819278,0.
 01536978,-0.01602541,0.05870746,0.12393856,-0.17816492,0.00464346,0.01
 281388,-0.00958538,-0.00394369,-0.01092637,0.01144793,-0.05502497,-0.1
 3959164,0.19304610,-0.26438300,0.10146039,0.05846040,-0.02013135,-0.01
 148876,0.00621617,0.01081091,0.00227710,0.00555487,0.00512489,-0.00613
 256,-0.00221473,-0.02240450,0.00222710,0.01386993,0.00058366,0.0014861
 5,-0.00024414,0.00116881,0.00204064,-0.00007511,0.00001341,0.00094281,
 0.00012334,0.00050615,0.00055283,0.00026805,-0.04311125,0.01373783,0.0
 0002728,0.00291057,-0.00624656,-0.01390631,-0.00012955,0.00177109,0.00
 294506,-0.00133026,0.00051710,-0.00233996,0.00021408,0.00000318,0.0011
 7091,0.00101209,-0.00010381,0.00028962,-0.00054518,0.00003458,-0.00013
 206,0.00004931,-0.00003173,-0.00001384,0.00008293,0.00003642,0.0000421
 0,0.00005628,-0.00000913,-0.00001114,1.38203019,0.06776509,-0.07028055
 ,-0.01518761,-0.00401902,0.00219147,0.00163794,-0.01261538,0.00806314,
 -0.00798466,0.00007913,0.00004804,0.00046186,0.03058781,-0.01974010,-0
 .01677162,-0.00088431,-0.00057384,-0.00017129,-0.00118717,-0.00123149,
 0.00096803,0.00158665,0.00148003,-0.00069781,-0.00025467,-0.00004485,-
 0.00032035,0.02835933,-0.01589062,-0.00089535,-0.00115921,0.00280519,0
 .01594053,-0.00102018,0.00043868,-0.00407817,-0.00001917,0.00076166,0.
 00083925,0.00002294,-0.00025177,-0.00034043,-0.00015817,-0.00023500,-0
 .00029431,0.00027518,0.00006227,0.00001747,-0.00000667,0.00001358,0.00
 001327,-0.00003850,-0.00004646,-0.00000574,0.00003028,0.00001405,0.000
 04539,-0.50543968,0.28950226,0.05443885,-0.02941815,-0.09330164,0.0056
 9540,0.00323209,-0.00157139,-0.00498082,-0.00285542,-0.00776561,-0.001
 08758,0.00214122,0.00075223,0.04409868,-0.00857972,-0.00660465,-0.0006
 3307,-0.00060957,0.00041535,0.00023479,-0.00072180,0.00030819,0.000705
 81,-0.00173298,0.00067822,-0.00015576,-0.00025070,-0.00011517,-0.02536
 065,0.01033007,0.01343615,0.00165410,-0.00076870,-0.00395958,-0.003061
 11,0.00221491,-0.00013062,0.00003007,0.00014654,0.00034937,0.00009047,
 -0.00009666,-0.00008748,-0.00014145,-0.00005267,-0.00005517,0.00018019
 ,0.00004728,-0.00002040,-0.00001276,0.00000641,0.00001390,-0.00002564,
 -0.00003167,0.00000325,0.00003772,0.00001319,0.00003433,-0.33067084,0.
 12844716,0.19606191,-0.01966562,0.00682218,0.01266113,0.00521760,0.004
 89835,-0.00151161,-0.00516073,0.00060002,-0.00177756,-0.00175699,0.001
 45033,0.00070489,0.00555877,-0.00208918,-0.00540252,-0.00015202,-0.000
 37482,0.00003373,-0.00023096,-0.00068110,0.00017234,0.00010909,-0.0000
 1936,-0.00029353,-0.00023575,-0.00015664,-0.00017552,0.00640036,-0.001
 12307,0.00097693,-0.00004566,0.00098877,0.00546917,-0.00134244,0.00040
 263,-0.00184853,0.00091274,-0.00014125,0.00117374,-0.00020717,-0.00009
 114,-0.00059757,-0.00068337,0.00007541,-0.00016212,0.00038885,-0.00000
 623,0.00008493,-0.00003511,0.00002248,0.00001541,-0.00004993,-0.000033
 55,-0.00002662,0.00000002,0.00001172,0.00001706,-1.05374204,0.39997655
 ,0.25906821,1.06565021,0.01183134,0.01144432,-0.00595681,-0.00234056,-
 0.00209965,0.00063164,0.00380893,-0.00149104,0.00170153,0.00063973,-0.
 00095840,-0.00047868,-0.00449142,0.00501374,0.00342092,0.00053528,0.00
 041936,0.00001040,0.00067738,0.00075716,-0.00045695,-0.00040648,-0.000
 46599,0.00027249,0.00010563,0.00010581,0.00015809,-0.00370078,0.002766
 31,0.00020235,0.00028251,-0.00016601,-0.00415346,0.00073066,-0.0004033
 4,0.00131251,-0.00028538,-0.00021648,-0.00061404,0.00002347,0.00015623
 ,0.00031861,0.00014936,0.00009855,0.00012531,-0.00016148,-0.00002619,-
 0.00000965,0.00000561,-0.00000821,-0.00000743,0.00002473,0.00002411,0.
 00000606,-0.00001430,-0.00000723,-0.00002483,0.40268166,-0.19591576,-0
 .10137168,-0.41057401,0.18100971,0.00981540,-0.00209094,0.01366842,-0.
 00142708,-0.00127111,0.00036033,0.00127047,0.00026618,0.00138033,0.000
 44449,-0.00042641,0.00002432,-0.00457554,0.00043850,0.00088976,0.00031
 769,0.00024469,-0.00008608,-0.00016275,0.00009731,-0.00008548,-0.00008
 891,0.00023233,-0.00003549,0.00001311,0.00005867,0.00007128,0.00210632
 ,-0.00088589,-0.00177874,-0.00036856,0.00040790,-0.00008640,0.00075765
 ,-0.00055451,0.00039539,-0.00015587,-0.00006255,-0.00042098,0.00001740
 ,0.00005069,0.00023541,0.00012777,0.00000668,0.00009511,-0.00010052,-0
 .00000571,-0.00002419,0.00000736,-0.00000500,-0.00000208,0.00001515,0.
 00001264,0.00000156,-0.00000685,-0.00000921,-0.00001148,0.26079903,-0.
 10149251,-0.09885329,-0.26857811,0.10486668,0.08427320,0.00488776,-0.0
 0974536,0.00345232,0.00236468,0.00082437,-0.00045577,-0.00709731,0.001
 80498,-0.02637612,-0.00029832,0.00215529,0.00079023,-0.14215072,0.0712
 1224,-0.15608005,0.00001677,-0.00001871,0.00006197,0.00005379,-0.00035
 126,0.00003864,0.00017746,-0.00117764,0.00086083,-0.00034037,-0.000447
 98,0.00015862,0.00574293,0.00230468,0.00575902,-0.00625686,0.00528945,
 0.00212104,0.00029660,-0.00037420,-0.00150631,-0.00116507,0.00036450,-
 0.00023204,0.00046276,-0.00004597,0.00044814,0.00060247,-0.00025471,0.
 00002266,-0.00023832,0.00009744,-0.00013209,0.00003208,-0.00001609,-0.
 00000824,0.00002543,-0.00000087,0.00003470,0.00001928,-0.00000264,0.00
 002706,0.00121386,-0.00188082,-0.00010462,-0.00092983,0.00047813,-0.00
 022767,0.14258092,-0.01378169,0.00430407,-0.01487906,0.00039466,0.0003
 2134,-0.00017602,-0.00141186,-0.00218915,0.01098473,-0.00006967,0.0004
 1829,0.00042706,0.07813157,-0.05856277,0.09086437,0.00022644,-0.000075
 38,0.00010111,-0.00005034,-0.00081331,-0.00004364,-0.00118084,-0.00136
 391,-0.00003755,-0.00024038,-0.00007366,0.00008349,0.00449721,0.001804
 37,-0.00202221,0.00395214,0.00211541,-0.00053566,0.00012596,-0.0003673
 0,0.00093587,-0.00078937,0.00031356,-0.00021756,0.00032714,-0.00012902
 ,0.00026646,0.00044800,-0.00023492,-0.00000825,-0.00014983,0.00007272,
 -0.00008190,0.00003267,-0.00000695,-0.00000464,0.00001738,-0.00000645,
 0.00001857,0.00001037,-0.00000161,0.00002354,-0.00031664,-0.00116992,-
 0.00008916,0.00004191,-0.00003698,0.00012156,-0.07021484,0.05568159,-0
 .01431948,0.01227355,-0.01199859,0.00172057,0.00055752,-0.00052889,0.0
 0109523,-0.00131220,0.00930592,0.00057878,0.00153585,0.00111631,-0.162
 78413,0.07674719,-0.35021958,-0.00000373,-0.00002081,-0.00000030,-0.00
 015942,-0.00026720,0.00024819,0.00018666,-0.00022361,0.00022790,0.0000
 4451,-0.00018602,0.00002659,0.00023470,-0.00307950,-0.00355292,0.00249
 736,0.00005781,-0.00095905,0.00012693,-0.00047955,0.00126331,-0.001454
 72,0.00060738,-0.00068648,0.00040781,-0.00010071,0.00045937,0.00079752
 ,-0.00034847,-0.00011670,-0.00026565,0.00008473,-0.00009317,0.00004941
 ,-0.00002214,-0.00000803,0.00003328,-0.00000499,0.00003236,0.00002921,
 -0.00000363,0.00002218,-0.00015866,-0.00013105,0.00041212,-0.00000385,
 0.00004695,-0.00001090,0.17134768,-0.08573110,0.35506037\\0.00000028,-
 0.00000025,0.00000024,-0.00000049,-0.00000031,-0.00000053,0.00000014,-
 0.00000070,-0.00000013,-0.00000009,-0.00000065,-0.00000009,0.00000107,
 0.00000072,-0.00000064,-0.00000046,0.00000029,-0.00000082,0.,-0.000000
 43,-0.00000099,0.00000069,-0.00000056,0.00000042,0.00000037,-0.0000004
 2,-0.00000031,-0.00000037,0.00000007,-0.00000004,0.00000012,0.00000068
 ,0.00000007,-0.00000002,0.00000046,0.00000068,-0.00000007,0.00000005,0
 .00000024,-0.00000068,0.00000071,-0.00000004,0.00000006,0.00000033,0.0
 0000074,0.00000028,0.00000035,0.00000087,0.00000014,0.00000021,0.00000
 126,-0.00000032,0.00000089,0.00000077,-0.00000016,0.00000026,0.0000011
 3,-0.00000013,-0.00000028,-0.00000093,-0.00000037,-0.00000019,-0.00000
 134,0.,-0.00000123,-0.00000055\\\@
 The archive entry for this job was punched.


 THE 2ND LAW OF THERMODYNAMICS HAS THE SAME
 DEGREE OF TRUTH AS THE STATEMENT THAT IF YOU THROW
 A TUMBLERFULL OF WATER INTO THE SEA, YOU CANNOT GET
 THE SAME TUMBLERFULL OF WATER OUT AGAIN.
          - J.C. MAXWELL, LETTER TO LORD RAYLEIGH, DECEMBER 6,1870
 Job cpu time:       0 days  3 hours 11 minutes 23.3 seconds.
 Elapsed time:       0 days  0 hours 32 minutes 42.0 seconds.
 File lengths (MBytes):  RWF=      6 Int=      0 D2E=      0 Chk=      2 Scr=      1
 Normal termination of Gaussian 16 at Wed Jan 17 20:14:14 2024.
