Unloading slurm/anatra/current
  ERROR: No such file or directory on
    '/cm/local/modulefiles/slurm/anatra/current'
environment: line 0: unalias: gv: not found
environment: line 0: unalias: sl: not found
 Entering Gaussian System, Link 0=g16
 Initial command:
 /apps/gaussian/g16/C.01/g16/l1.exe "/local/jobs/1158118/Gau-2570626.inp" -scrdir="/local/jobs/1158118/"
 Entering Link 1 = /apps/gaussian/g16/C.01/g16/l1.exe PID=   2570629.
  
 Copyright (c) 1988-2019, Gaussian, Inc.  All Rights Reserved.
  
 This is part of the Gaussian(R) 16 program.  It is based on
 the Gaussian(R) 09 system (copyright 2009, Gaussian, Inc.),
 the Gaussian(R) 03 system (copyright 2003, Gaussian, Inc.),
 the Gaussian(R) 98 system (copyright 1998, Gaussian, Inc.),
 the Gaussian(R) 94 system (copyright 1995, Gaussian, Inc.),
 the Gaussian 92(TM) system (copyright 1992, Gaussian, Inc.),
 the Gaussian 90(TM) system (copyright 1990, Gaussian, Inc.),
 the Gaussian 88(TM) system (copyright 1988, Gaussian, Inc.),
 the Gaussian 86(TM) system (copyright 1986, Carnegie Mellon
 University), and the Gaussian 82(TM) system (copyright 1983,
 Carnegie Mellon University). Gaussian is a federally registered
 trademark of Gaussian, Inc.
  
 This software contains proprietary and confidential information,
 including trade secrets, belonging to Gaussian, Inc.
  
 This software is provided under written license and may be
 used, copied, transmitted, or stored only in accord with that
 written license.
  
 The following legend is applicable only to US Government
 contracts under FAR:
  
                    RESTRICTED RIGHTS LEGEND
  
 Use, reproduction and disclosure by the US Government is
 subject to restrictions as set forth in subparagraphs (a)
 and (c) of the Commercial Computer Software - Restricted
 Rights clause in FAR 52.227-19.
  
 Gaussian, Inc.
 340 Quinnipiac St., Bldg. 40, Wallingford CT 06492
  
  
 ---------------------------------------------------------------
 Warning -- This program may not be used in any manner that
 competes with the business of Gaussian, Inc. or will provide
 assistance to any competitor of Gaussian, Inc.  The licensee
 of this program is prohibited from giving any competitor of
 Gaussian, Inc. access to this program.  By using this program,
 the user acknowledges that Gaussian, Inc. is engaged in the
 business of creating and licensing software in the field of
 computational chemistry and represents and warrants to the
 licensee that it is not a competitor of Gaussian, Inc. and that
 it will not use this program in any manner prohibited above.
 ---------------------------------------------------------------
  

 Cite this work as:
 Gaussian 16, Revision C.01,
 M. J. Frisch, G. W. Trucks, H. B. Schlegel, G. E. Scuseria, 
 M. A. Robb, J. R. Cheeseman, G. Scalmani, V. Barone, 
 G. A. Petersson, H. Nakatsuji, X. Li, M. Caricato, A. V. Marenich, 
 J. Bloino, B. G. Janesko, R. Gomperts, B. Mennucci, H. P. Hratchian, 
 J. V. Ortiz, A. F. Izmaylov, J. L. Sonnenberg, D. Williams-Young, 
 F. Ding, F. Lipparini, F. Egidi, J. Goings, B. Peng, A. Petrone, 
 T. Henderson, D. Ranasinghe, V. G. Zakrzewski, J. Gao, N. Rega, 
 G. Zheng, W. Liang, M. Hada, M. Ehara, K. Toyota, R. Fukuda, 
 J. Hasegawa, M. Ishida, T. Nakajima, Y. Honda, O. Kitao, H. Nakai, 
 T. Vreven, K. Throssell, J. A. Montgomery, Jr., J. E. Peralta, 
 F. Ogliaro, M. J. Bearpark, J. J. Heyd, E. N. Brothers, K. N. Kudin, 
 V. N. Staroverov, T. A. Keith, R. Kobayashi, J. Normand, 
 K. Raghavachari, A. P. Rendell, J. C. Burant, S. S. Iyengar, 
 J. Tomasi, M. Cossi, J. M. Millam, M. Klene, C. Adamo, R. Cammi, 
 J. W. Ochterski, R. L. Martin, K. Morokuma, O. Farkas, 
 J. B. Foresman, and D. J. Fox, Gaussian, Inc., Wallingford CT, 2019.
 
 ******************************************
 Gaussian 16:  ES64L-G16RevC.01  3-Jul-2019
                17-Jan-2024 
 ******************************************
 %nprocshared=12
 Will use up to   12 processors via shared memory.
 %mem=48GB
 ----------------------------------------------------------------------
 # external="~/scripts/MiMe -H 'wb97xd def2svp' -EF 'wb97xd def2svp' -c
  12 -m 48GB" opt=(calcall,ts,noeigen,maxcycles=50,maxstep=10,nomicro)
 ----------------------------------------------------------------------
 1/5=1,6=50,8=10,10=4,11=1,18=20,26=1,38=1/1,3;
 2/9=110,12=2,17=6,18=5,40=1/2;
 3/11=9,25=1,30=1,41=9900000,43=2,71=2,140=1/1;
 4/20=17,22=2,24=3,113=1,114=1/2;
 6/7=2,8=2,9=2,10=2,18=1/1;
 7/25=1,44=-1/16;
 1/5=1,6=50,8=10,10=4,11=1,18=20,26=1/3(3);
 2/9=110/2;
 7/8=1,9=1,25=1,44=-1/16;
 99//99;
 2/9=110/2;
 3/11=9,25=1,30=1,41=9900000,43=2,71=2,140=1/1;
 4/16=2,20=17,22=2,24=3,113=1,114=1/2;
 7/25=1,44=-1/16;
 1/5=1,6=50,8=10,10=4,11=1,18=20,26=1/3(-4);
 2/9=110/2;
 6/7=2,8=2,9=2,10=2,18=1/1;
 7/8=1,9=1,25=1,44=-1/16;
 99//99;
 -----
 *****
 -----
 Symbolic Z-matrix:
 Charge =  0 Multiplicity = 1
 C                    -1.7636    0.7699    0.2683 
 C                    -0.1675   -0.738     1.1357 
 C                     0.7533    2.4397    0.2956 
 C                     1.1138   -0.1249    1.2214 
 C                    -1.0805    1.2934   -0.9068 
 C                     0.0402    2.0307   -0.887 
 H                     1.791     2.7443    0.2033 
 H                     0.2454    2.5838    1.2414 
 H                     0.5118    2.2904   -1.8343 
 H                    -1.4816    0.9954   -1.8757 
 H                    -1.6872    1.3437    1.1913 
 H                    -0.8179   -0.9253    1.9752 
 H                     1.5485    0.3896    2.0581 
 O                     1.1261   -1.5056   -0.5878 
 C                    -0.0814   -1.6867    0.0162 
 C                     1.8935   -0.602     0.0816 
 O                    -0.9323   -2.5015   -0.2865 
 O                     3.0294   -0.2639   -0.1903 
 C                    -3.0576    0.0356    0.0627 
 H                    -3.2259   -0.6598    0.891 
 H                    -3.8936    0.741     0.0377 
 H                    -3.0574   -0.5413   -0.8673 
 
 Add virtual bond connecting atoms C2         and C1         Dist= 4.46D+00.

 GradGradGradGradGradGradGradGradGradGradGradGradGradGradGradGradGradGrad
 Berny optimization.
 Initialization pass.
                           ----------------------------
                           !    Initial Parameters    !
                           ! (Angstroms and Degrees)  !
 --------------------------                            --------------------------
 ! Name  Definition              Value          Derivative Info.                !
 --------------------------------------------------------------------------------
 ! R1    R(1,2)                  2.3609         calculate D2E/DX2 analytically  !
 ! R2    R(1,5)                  1.4565         calculate D2E/DX2 analytically  !
 ! R3    R(1,11)                 1.0895         calculate D2E/DX2 analytically  !
 ! R4    R(1,19)                 1.502          calculate D2E/DX2 analytically  !
 ! R5    R(2,4)                  1.423          calculate D2E/DX2 analytically  !
 ! R6    R(2,12)                 1.0784         calculate D2E/DX2 analytically  !
 ! R7    R(2,15)                 1.4699         calculate D2E/DX2 analytically  !
 ! R8    R(3,6)                  1.4403         calculate D2E/DX2 analytically  !
 ! R9    R(3,7)                  1.0854         calculate D2E/DX2 analytically  !
 ! R10   R(3,8)                  1.0832         calculate D2E/DX2 analytically  !
 ! R11   R(4,13)                 1.0741         calculate D2E/DX2 analytically  !
 ! R12   R(4,16)                 1.4611         calculate D2E/DX2 analytically  !
 ! R13   R(5,6)                  1.3416         calculate D2E/DX2 analytically  !
 ! R14   R(5,10)                 1.0902         calculate D2E/DX2 analytically  !
 ! R15   R(6,9)                  1.0896         calculate D2E/DX2 analytically  !
 ! R16   R(14,15)                1.3622         calculate D2E/DX2 analytically  !
 ! R17   R(14,16)                1.3614         calculate D2E/DX2 analytically  !
 ! R18   R(15,17)                1.2164         calculate D2E/DX2 analytically  !
 ! R19   R(16,18)                1.2159         calculate D2E/DX2 analytically  !
 ! R20   R(19,20)                1.0945         calculate D2E/DX2 analytically  !
 ! R21   R(19,21)                1.0941         calculate D2E/DX2 analytically  !
 ! R22   R(19,22)                1.0944         calculate D2E/DX2 analytically  !
 ! A1    A(2,1,5)              102.0583         calculate D2E/DX2 analytically  !
 ! A2    A(2,1,11)              88.7231         calculate D2E/DX2 analytically  !
 ! A3    A(2,1,19)             108.6926         calculate D2E/DX2 analytically  !
 ! A4    A(5,1,11)             117.4711         calculate D2E/DX2 analytically  !
 ! A5    A(5,1,19)             117.9905         calculate D2E/DX2 analytically  !
 ! A6    A(11,1,19)            115.713          calculate D2E/DX2 analytically  !
 ! A7    A(1,2,4)              110.8352         calculate D2E/DX2 analytically  !
 ! A8    A(1,2,12)              89.3813         calculate D2E/DX2 analytically  !
 ! A9    A(1,2,15)              99.9044         calculate D2E/DX2 analytically  !
 ! A10   A(4,2,12)             124.8216         calculate D2E/DX2 analytically  !
 ! A11   A(4,2,15)             105.7353         calculate D2E/DX2 analytically  !
 ! A12   A(12,2,15)            121.0729         calculate D2E/DX2 analytically  !
 ! A13   A(6,3,7)              118.8962         calculate D2E/DX2 analytically  !
 ! A14   A(6,3,8)              121.5058         calculate D2E/DX2 analytically  !
 ! A15   A(7,3,8)              119.026          calculate D2E/DX2 analytically  !
 ! A16   A(2,4,13)             128.1473         calculate D2E/DX2 analytically  !
 ! A17   A(2,4,16)             107.0278         calculate D2E/DX2 analytically  !
 ! A18   A(13,4,16)            123.2384         calculate D2E/DX2 analytically  !
 ! A19   A(1,5,6)              125.2655         calculate D2E/DX2 analytically  !
 ! A20   A(1,5,10)             116.5022         calculate D2E/DX2 analytically  !
 ! A21   A(6,5,10)             118.0784         calculate D2E/DX2 analytically  !
 ! A22   A(3,6,5)              125.5749         calculate D2E/DX2 analytically  !
 ! A23   A(3,6,9)              115.5874         calculate D2E/DX2 analytically  !
 ! A24   A(5,6,9)              118.6657         calculate D2E/DX2 analytically  !
 ! A25   A(15,14,16)           111.7078         calculate D2E/DX2 analytically  !
 ! A26   A(2,15,14)            107.6862         calculate D2E/DX2 analytically  !
 ! A27   A(2,15,17)            125.5125         calculate D2E/DX2 analytically  !
 ! A28   A(14,15,17)           126.7837         calculate D2E/DX2 analytically  !
 ! A29   A(4,16,14)            107.4277         calculate D2E/DX2 analytically  !
 ! A30   A(4,16,18)            125.6035         calculate D2E/DX2 analytically  !
 ! A31   A(14,16,18)           126.9537         calculate D2E/DX2 analytically  !
 ! A32   A(1,19,20)            109.8463         calculate D2E/DX2 analytically  !
 ! A33   A(1,19,21)            110.256          calculate D2E/DX2 analytically  !
 ! A34   A(1,19,22)            111.9551         calculate D2E/DX2 analytically  !
 ! A35   A(20,19,21)           108.0242         calculate D2E/DX2 analytically  !
 ! A36   A(20,19,22)           107.9507         calculate D2E/DX2 analytically  !
 ! A37   A(21,19,22)           108.6978         calculate D2E/DX2 analytically  !
 ! D1    D(5,1,2,4)             48.732          calculate D2E/DX2 analytically  !
 ! D2    D(5,1,2,12)           176.0978         calculate D2E/DX2 analytically  !
 ! D3    D(5,1,2,15)           -62.4302         calculate D2E/DX2 analytically  !
 ! D4    D(11,1,2,4)           -69.1119         calculate D2E/DX2 analytically  !
 ! D5    D(11,1,2,12)           58.2539         calculate D2E/DX2 analytically  !
 ! D6    D(11,1,2,15)          179.7259         calculate D2E/DX2 analytically  !
 ! D7    D(19,1,2,4)           174.1062         calculate D2E/DX2 analytically  !
 ! D8    D(19,1,2,12)          -58.528          calculate D2E/DX2 analytically  !
 ! D9    D(19,1,2,15)           62.944          calculate D2E/DX2 analytically  !
 ! D10   D(2,1,5,6)            -64.8161         calculate D2E/DX2 analytically  !
 ! D11   D(2,1,5,10)           110.5683         calculate D2E/DX2 analytically  !
 ! D12   D(11,1,5,6)            30.082          calculate D2E/DX2 analytically  !
 ! D13   D(11,1,5,10)         -154.5336         calculate D2E/DX2 analytically  !
 ! D14   D(19,1,5,6)           176.1929         calculate D2E/DX2 analytically  !
 ! D15   D(19,1,5,10)           -8.4227         calculate D2E/DX2 analytically  !
 ! D16   D(2,1,19,20)           39.3806         calculate D2E/DX2 analytically  !
 ! D17   D(2,1,19,21)          158.3171         calculate D2E/DX2 analytically  !
 ! D18   D(2,1,19,22)          -80.5386         calculate D2E/DX2 analytically  !
 ! D19   D(5,1,19,20)          154.8215         calculate D2E/DX2 analytically  !
 ! D20   D(5,1,19,21)          -86.242          calculate D2E/DX2 analytically  !
 ! D21   D(5,1,19,22)           34.9023         calculate D2E/DX2 analytically  !
 ! D22   D(11,1,19,20)         -58.4829         calculate D2E/DX2 analytically  !
 ! D23   D(11,1,19,21)          60.4536         calculate D2E/DX2 analytically  !
 ! D24   D(11,1,19,22)        -178.4022         calculate D2E/DX2 analytically  !
 ! D25   D(1,2,4,13)            92.6643         calculate D2E/DX2 analytically  !
 ! D26   D(1,2,4,16)          -101.5268         calculate D2E/DX2 analytically  !
 ! D27   D(12,2,4,13)          -11.8511         calculate D2E/DX2 analytically  !
 ! D28   D(12,2,4,16)          153.9578         calculate D2E/DX2 analytically  !
 ! D29   D(15,2,4,13)         -159.9723         calculate D2E/DX2 analytically  !
 ! D30   D(15,2,4,16)            5.8366         calculate D2E/DX2 analytically  !
 ! D31   D(1,2,15,14)          108.5901         calculate D2E/DX2 analytically  !
 ! D32   D(1,2,15,17)          -72.8508         calculate D2E/DX2 analytically  !
 ! D33   D(4,2,15,14)           -6.5173         calculate D2E/DX2 analytically  !
 ! D34   D(4,2,15,17)          172.0418         calculate D2E/DX2 analytically  !
 ! D35   D(12,2,15,14)        -156.1071         calculate D2E/DX2 analytically  !
 ! D36   D(12,2,15,17)          22.452          calculate D2E/DX2 analytically  !
 ! D37   D(7,3,6,5)            160.3092         calculate D2E/DX2 analytically  !
 ! D38   D(7,3,6,9)            -14.8361         calculate D2E/DX2 analytically  !
 ! D39   D(8,3,6,5)            -28.4499         calculate D2E/DX2 analytically  !
 ! D40   D(8,3,6,9)            156.4048         calculate D2E/DX2 analytically  !
 ! D41   D(2,4,16,14)           -3.2395         calculate D2E/DX2 analytically  !
 ! D42   D(2,4,16,18)          178.0984         calculate D2E/DX2 analytically  !
 ! D43   D(13,4,16,14)         163.4334         calculate D2E/DX2 analytically  !
 ! D44   D(13,4,16,18)         -15.2287         calculate D2E/DX2 analytically  !
 ! D45   D(1,5,6,3)             -0.5253         calculate D2E/DX2 analytically  !
 ! D46   D(1,5,6,9)            174.4842         calculate D2E/DX2 analytically  !
 ! D47   D(10,5,6,3)          -175.8436         calculate D2E/DX2 analytically  !
 ! D48   D(10,5,6,9)            -0.8341         calculate D2E/DX2 analytically  !
 ! D49   D(16,14,15,2)           4.7089         calculate D2E/DX2 analytically  !
 ! D50   D(16,14,15,17)       -173.8266         calculate D2E/DX2 analytically  !
 ! D51   D(15,14,16,4)          -0.9927         calculate D2E/DX2 analytically  !
 ! D52   D(15,14,16,18)        177.646          calculate D2E/DX2 analytically  !
 --------------------------------------------------------------------------------
 Trust Radius=1.00D-01 FncErr=1.00D-07 GrdErr=1.00D-07 EigMax=2.50D+02 EigMin=1.00D-04
 Number of steps in this run=     50 maximum allowed number of steps=    132.
 Search for a saddle point of order  1.
 GradGradGradGradGradGradGradGradGradGradGradGradGradGradGradGradGradGrad

                          Input orientation:                          
 ---------------------------------------------------------------------
 Center     Atomic      Atomic             Coordinates (Angstroms)
 Number     Number       Type             X           Y           Z
 ---------------------------------------------------------------------
      1          6           0       -1.763600    0.769900    0.268300
      2          6           0       -0.167500   -0.738000    1.135700
      3          6           0        0.753300    2.439700    0.295600
      4          6           0        1.113800   -0.124900    1.221400
      5          6           0       -1.080500    1.293400   -0.906800
      6          6           0        0.040200    2.030700   -0.887000
      7          1           0        1.791000    2.744300    0.203300
      8          1           0        0.245400    2.583800    1.241400
      9          1           0        0.511800    2.290400   -1.834300
     10          1           0       -1.481600    0.995400   -1.875700
     11          1           0       -1.687200    1.343700    1.191300
     12          1           0       -0.817900   -0.925300    1.975200
     13          1           0        1.548500    0.389600    2.058100
     14          8           0        1.126100   -1.505600   -0.587800
     15          6           0       -0.081400   -1.686700    0.016200
     16          6           0        1.893500   -0.602000    0.081600
     17          8           0       -0.932300   -2.501500   -0.286500
     18          8           0        3.029400   -0.263900   -0.190300
     19          6           0       -3.057600    0.035600    0.062700
     20          1           0       -3.225900   -0.659800    0.891000
     21          1           0       -3.893600    0.741000    0.037700
     22          1           0       -3.057400   -0.541300   -0.867300
 ---------------------------------------------------------------------
                    Distance matrix (angstroms):
                    1          2          3          4          5
     1  C    0.000000
     2  C    2.360864   0.000000
     3  C    3.020557   3.413417   0.000000
     4  C    3.160458   1.423013   2.750316   0.000000
     5  C    1.456550   3.021914   2.474387   3.369831   0.000000
     6  C    2.485564   3.435135   1.440255   3.200715   1.341630
     7  H    4.066652   4.102622   1.085413   3.118884   3.403373
     8  H    2.876324   3.349032   1.083174   2.844569   2.835120
     9  H    3.451129   4.295760   2.148741   3.941241   2.095157
    10  H    2.174192   3.714844   3.434432   4.193233   1.090162
    11  H    1.089501   2.577994   2.821265   3.162798   2.184637
    12  H    2.584871   1.078361   4.075899   2.222683   3.646575
    13  H    3.783916   2.250991   2.818095   1.074123   4.064373
    14  O    3.776397   2.287589   4.060144   2.275893   3.578442
    15  C    2.988015   1.469941   4.219238   2.306562   3.275840
    16  C    3.910415   2.318910   3.255425   1.461061   3.662534
    17  O    3.420661   2.391130   5.253146   3.479729   3.848117
    18  O    4.924622   3.493310   3.567378   2.383640   4.453070
    19  C    1.501967   3.178437   4.511862   4.332312   2.535925
    20  H    2.137784   3.069170   5.078921   4.385006   3.413183
    21  H    2.142641   4.156545   4.954369   5.217757   3.018403
    22  H    2.163967   3.521679   4.975955   4.683478   2.697372
                    6          7          8          9         10
     6  C    0.000000
     7  H    2.182494   0.000000
     8  H    2.208645   1.868767   0.000000
     9  H    1.089600   2.448304   3.101126   0.000000
    10  H    2.089318   4.253328   3.901520   2.377474   0.000000
    11  H    2.788406   3.877589   2.296802   3.858251   3.093553
    12  H    4.203149   4.838590   3.739365   5.159566   4.354195
    13  H    3.693480   3.007275   2.679474   4.454050   5.002328
    14  O    3.711350   4.373738   4.565610   4.042368   3.835855
    15  C    3.827482   4.814006   4.454782   4.426461   3.568404
    16  C    3.362145   3.350081   3.769707   3.734400   4.215923
    17  O    4.674098   5.930825   5.438909   5.238646   3.880154
    18  O    3.832218   3.276862   4.231999   3.945313   4.977502
    19  C    3.805091   5.555695   4.335028   4.628536   2.676264
    20  H    4.589933   6.101648   4.763785   5.486469   3.665638
    21  H    4.241837   6.029537   4.687870   5.031160   3.089266
    22  H    4.026251   5.953850   5.012121   4.657553   2.421046
                   11         12         13         14         15
    11  H    0.000000
    12  H    2.553144   0.000000
    13  H    3.483016   2.708447   0.000000
    14  O    4.381594   3.268769   3.281919   0.000000
    15  C    3.625297   2.227071   3.337207   1.362230   0.000000
    16  C    4.223576   3.322941   2.238046   1.361430   2.254125
    17  O    4.187998   2.759127   4.473251   2.306428   1.216370
    18  O    5.171026   4.464141   2.770457   2.307028   3.426963
    19  C    2.205189   3.097941   5.032206   4.505751   3.438931
    20  H    2.543971   2.654137   5.025759   4.673557   3.421649
    21  H    2.561687   3.998799   5.815664   5.534966   4.519630
    22  H    3.109422   3.639041   5.535238   4.302286   3.308941
                   16         17         18         19         20
    16  C    0.000000
    17  O    3.424725   0.000000
    18  O    1.215940   4.550953   0.000000
    19  C    4.992022   3.328020   6.099613   0.000000
    20  H    5.183312   3.168433   6.360403   1.094526   0.000000
    21  H    5.941052   4.403204   6.999267   1.094125   1.770928
    22  H    5.041379   2.948858   6.130613   1.094401   1.770326
                   21         22
    21  H    0.000000
    22  H    1.778356   0.000000
 Stoichiometry    C9H10O3
 Framework group  C1[X(C9H10O3)]
 Deg. of freedom    60
 Full point group                 C1      NOp   1
 Largest Abelian subgroup         C1      NOp   1
 Largest concise Abelian subgroup C1      NOp   1
                         Standard orientation:                         
 ---------------------------------------------------------------------
 Center     Atomic      Atomic             Coordinates (Angstroms)
 Number     Number       Type             X           Y           Z
 ---------------------------------------------------------------------
      1          6           0       -1.863769    0.578273    0.323083
      2          6           0       -0.066985   -0.753794    1.078623
      3          6           0        0.423099    2.550827    0.378113
      4          6           0        1.129016    0.012251    1.166500
      5          6           0       -1.285318    1.238571   -0.839216
      6          6           0       -0.266047    2.110378   -0.807390
      7          1           0        1.411272    2.988616    0.278232
      8          1           0       -0.071980    2.584946    1.340920
      9          1           0        0.142248    2.471813   -1.750729
     10          1           0       -1.672979    0.937702   -1.812689
     11          1           0       -1.834058    1.113353    1.271671
     12          1           0       -0.664732   -1.061144    1.921889
     13          1           0        1.519059    0.538074    2.018039
     14          8           0        1.263650   -1.269638   -0.709219
     15          6           0        0.106016   -1.630526   -0.088483
     16          6           0        1.930002   -0.308253   -0.012652
     17          8           0       -0.643948   -2.531663   -0.412618
     18          8           0        3.006277    0.183584   -0.292361
     19          6           0       -3.060518   -0.303866    0.109713
     20          1           0       -3.116646   -1.052952    0.905771
     21          1           0       -3.978906    0.290144    0.138447
     22          1           0       -3.014076   -0.831971   -0.847712
 ---------------------------------------------------------------------
 Rotational constants (GHZ):           1.1711735           0.9350118           0.6241298
 Standard basis: STO-3G (5D, 7F)
 There are    70 symmetry adapted cartesian basis functions of A   symmetry.
 There are    70 symmetry adapted basis functions of A   symmetry.
    70 basis functions,   210 primitive gaussians,    70 cartesian basis functions
    44 alpha electrons       44 beta electrons
       nuclear repulsion energy       695.2888441617 Hartrees.
 NAtoms=   22 NActive=   22 NUniq=   22 SFac= 1.00D+00 NAtFMM=   60 NAOKFM=F Big=F
 Integral buffers will be    131072 words long.
 Raffenetti 1 integral format.
 Two-electron integral symmetry is turned on.
 External calculation of energy, first and second derivatives.
 Running external command "~/scripts/MiMe -H 'wb97xd def2svp' -EF 'wb97xd def2svp' -c 12 -m 48GB R"
         input file       "/local/jobs/1158118/Gau-2570629.EIn"
         output file      "/local/jobs/1158118/Gau-2570629.EOu"
         message file     "/local/jobs/1158118/Gau-2570629.EMs"
         fchk file        "/local/jobs/1158118/Gau-2570629.EFC"
         mat. el file     "/local/jobs/1158118/Gau-2570629.EUF"
 Read checkpoint file Gau-2570629_H.chk type G16
 Write formatted file Gau-2570629_H.fchk

deriv: 2

spelevel: wb97xd def2svp
gradlevel: wb97xd def2svp
hesslevel: wb97xd def2svp

runspe: False
runforce: False
runfreq: True

Running Gaussian ...

Parsing files ...
SPE file: Gau-2570629_H.out
FORCE file: Gau-2570629_H.out
HESS file: Gau-2570629_H.out

 ExternalExternalExternalExternalExternalExternalExternalExternalExternalExternal
 Output from external command:
 "~/scripts/MiMe -H 'wb97xd def2svp' -EF 'wb97xd def2svp' -c 12 -m 48GB R /local/jobs/1158118/Gau-2570629.EIn /local/jobs/1158118/Gau-2570629.EOu /local/jobs/1158118/Gau-2570629.EMs /local/jobs/1158118/Gau-2570629.EFC /local/jobs/1158118/Gau-2570629.EUF"
  
 --------------------------------------------------
 Hessian calculation at wb97xd def2svp
 ExternalExternalExternalExternalExternalExternalExternalExternalExternalExternal

 Recovered energy= -573.941726387     dipole=     -3.222100000000      3.139800000000      2.688900000000
 Energy=    -573.941726     NIter=   0.
 Dipole moment=      -3.222100       3.139800       2.688900
 ***** Axes restored to original set *****
 -------------------------------------------------------------------
 Center     Atomic                   Forces (Hartrees/Bohr)
 Number     Number              X              Y              Z
 -------------------------------------------------------------------
      1        6           0.012273947    0.025258595   -0.059938500
      2        6           0.052378418    0.028526631    0.009739413
      3        6          -0.026814780   -0.025624729   -0.049211987
      4        6          -0.057689340   -0.015490685   -0.002001586
      5        6          -0.079741623   -0.048744934    0.048668419
      6        6           0.082553465    0.052195939    0.048884367
      7        1           0.002325957    0.007386340    0.000027821
      8        1          -0.000612829   -0.005516827    0.006994137
      9        1           0.004874828   -0.005375675   -0.003303508
     10        1          -0.000122781   -0.005027901   -0.002029151
     11        1           0.007925370   -0.004009035    0.005647462
     12        1          -0.008986867    0.001338317    0.003109308
     13        1           0.004392131    0.005755217    0.006211963
     14        8           0.004451073   -0.014813358   -0.029321671
     15        6          -0.041183683   -0.018769492    0.006150786
     16        6           0.038119703    0.030265849    0.012923938
     17        8           0.037581314    0.021740138   -0.003330862
     18        8          -0.034972153   -0.023044354   -0.006259621
     19        6           0.010235194   -0.005241796    0.006779912
     20        1          -0.003633732   -0.003166072    0.001769250
     21        1          -0.003990841    0.003748943    0.000598038
     22        1           0.000637229   -0.001391111   -0.002107930
 -------------------------------------------------------------------
 Cartesian Forces:  Max     0.082553465 RMS     0.027140098
 FormGI is forming the generalized inverse of G from B-inverse, IUseBI=4.

 GradGradGradGradGradGradGradGradGradGradGradGradGradGradGradGradGradGrad
 Berny optimization.
 Internal  Forces:  Max     0.064786580 RMS     0.013715773
 Search for a saddle point.
 Step number   1 out of a maximum of   50
 All quantities printed in internal units (Hartrees-Bohrs-Radians)
 Swapping is turned off.
 Second derivative matrix not updated -- analytic derivatives used.
 ITU=  0
     Eigenvalues ---   -0.07755   0.00022   0.00412   0.00821   0.00977
     Eigenvalues ---    0.01355   0.01423   0.01896   0.01939   0.02170
     Eigenvalues ---    0.02317   0.02371   0.02569   0.03134   0.03349
     Eigenvalues ---    0.04066   0.04230   0.04365   0.04840   0.05289
     Eigenvalues ---    0.05696   0.05925   0.06928   0.08470   0.08974
     Eigenvalues ---    0.10116   0.11134   0.12200   0.12773   0.13496
     Eigenvalues ---    0.13655   0.14463   0.15858   0.16149   0.17862
     Eigenvalues ---    0.18231   0.23251   0.25812   0.28097   0.28205
     Eigenvalues ---    0.31785   0.32907   0.33718   0.35583   0.35818
     Eigenvalues ---    0.35931   0.36699   0.36958   0.37079   0.37549
     Eigenvalues ---    0.38129   0.38388   0.38814   0.39356   0.39805
     Eigenvalues ---    0.40899   0.41693   0.66882   0.83451   0.84111
 Eigenvectors required to have negative eigenvalues:
                          R1        D10       D39       D11       D47
   1                    0.60545  -0.27156   0.26467  -0.18972  -0.18927
                          D12       A3        R5        R8        D14
   1                   -0.18446  -0.18010  -0.16706  -0.14483  -0.14243
 RFO step:  Lambda0=2.107001318D-04 Lambda=-5.47995325D-02.
 Linear search not attempted -- option 19 set.
 Maximum step size (   0.100) exceeded in Quadratic search.
    -- Step size scaled by   0.284
 Iteration  1 RMS(Cart)=  0.04466957 RMS(Int)=  0.00031665
 Iteration  2 RMS(Cart)=  0.00062039 RMS(Int)=  0.00004908
 Iteration  3 RMS(Cart)=  0.00000023 RMS(Int)=  0.00004908
 Variable       Old X    -DE/DX   Delta X   Delta X   Delta X     New X
                                 (Linear)    (Quad)   (Total)
    R1        4.46139  -0.01492   0.00000  -0.01931  -0.01931   4.44208
    R2        2.75248  -0.05964   0.00000  -0.04524  -0.04524   2.70724
    R3        2.05886   0.00323   0.00000   0.00217   0.00217   2.06103
    R4        2.83831  -0.00080   0.00000  -0.00105  -0.00105   2.83725
    R5        2.68910  -0.04141   0.00000  -0.02655  -0.02655   2.66256
    R6        2.03781   0.00761   0.00000   0.00474   0.00474   2.04255
    R7        2.77779   0.01161   0.00000   0.00645   0.00647   2.78425
    R8        2.72169  -0.05381   0.00000  -0.03955  -0.03955   2.68214
    R9        2.05113   0.00429   0.00000   0.00307   0.00307   2.05421
   R10        2.04690   0.00566   0.00000   0.00334   0.00334   2.05024
   R11        2.02980   0.00937   0.00000   0.00565   0.00565   2.03545
   R12        2.76101   0.01274   0.00000   0.01055   0.01054   2.77155
   R13        2.53531   0.06479   0.00000   0.03040   0.03040   2.56571
   R14        2.06011   0.00322   0.00000   0.00215   0.00215   2.06226
   R15        2.05905   0.00370   0.00000   0.00206   0.00206   2.06110
   R16        2.57424   0.00137   0.00000   0.00696   0.00696   2.58120
   R17        2.57273   0.00684   0.00000   0.00786   0.00785   2.58058
   R18        2.29861  -0.04002   0.00000  -0.01399  -0.01399   2.28462
   R19        2.29779  -0.03768   0.00000  -0.01399  -0.01399   2.28381
   R20        2.06835   0.00391   0.00000   0.00248   0.00248   2.07083
   R21        2.06760   0.00545   0.00000   0.00364   0.00364   2.07124
   R22        2.06812   0.00253   0.00000   0.00181   0.00181   2.06993
    A1        1.78125  -0.02049   0.00000  -0.02206  -0.02205   1.75920
    A2        1.54851  -0.00462   0.00000  -0.01440  -0.01441   1.53410
    A3        1.89704   0.01311   0.00000   0.00872   0.00881   1.90585
    A4        2.05026  -0.00102   0.00000   0.00276   0.00242   2.05268
    A5        2.05932   0.00925   0.00000   0.01378   0.01375   2.07307
    A6        2.01957  -0.00197   0.00000  -0.00146  -0.00150   2.01807
    A7        1.93444  -0.00778   0.00000  -0.00175  -0.00175   1.93269
    A8        1.56000   0.00408   0.00000   0.00400   0.00400   1.56400
    A9        1.74366  -0.00443   0.00000  -0.01877  -0.01877   1.72489
   A10        2.17855  -0.00030   0.00000   0.00208   0.00206   2.18061
   A11        1.84543   0.00527   0.00000   0.00623   0.00618   1.85161
   A12        2.11312  -0.00100   0.00000  -0.00018  -0.00023   2.11289
   A13        2.07513   0.00118   0.00000   0.00457   0.00455   2.07968
   A14        2.12068   0.00056   0.00000   0.00161   0.00159   2.12227
   A15        2.07740  -0.00165   0.00000  -0.00772  -0.00774   2.06966
   A16        2.23659  -0.00036   0.00000   0.00001   0.00001   2.23660
   A17        1.86799   0.00195   0.00000   0.00310   0.00309   1.87108
   A18        2.15092  -0.00151   0.00000  -0.00454  -0.00454   2.14638
   A19        2.18629  -0.01248   0.00000  -0.00671  -0.00676   2.17954
   A20        2.03335   0.00476   0.00000   0.00714   0.00709   2.04043
   A21        2.06086   0.00728   0.00000  -0.00162  -0.00166   2.05920
   A22        2.19170  -0.00848   0.00000  -0.00770  -0.00774   2.18396
   A23        2.01738   0.00412   0.00000   0.00886   0.00883   2.02621
   A24        2.07111   0.00395   0.00000  -0.00222  -0.00225   2.06885
   A25        1.94967  -0.01565   0.00000  -0.00723  -0.00723   1.94244
   A26        1.87948   0.00425   0.00000  -0.00082  -0.00080   1.87868
   A27        2.19061   0.01754   0.00000   0.02036   0.02034   2.21094
   A28        2.21279  -0.02172   0.00000  -0.01940  -0.01942   2.19338
   A29        1.87497   0.00453   0.00000  -0.00072  -0.00074   1.87423
   A30        2.19219   0.01990   0.00000   0.02161   0.02162   2.21381
   A31        2.21576  -0.02439   0.00000  -0.02079  -0.02078   2.19498
   A32        1.91718   0.00511   0.00000   0.00686   0.00686   1.92404
   A33        1.92433  -0.00124   0.00000  -0.00204  -0.00204   1.92229
   A34        1.95399  -0.00148   0.00000  -0.00205  -0.00205   1.95194
   A35        1.88538  -0.00184   0.00000  -0.00255  -0.00254   1.88283
   A36        1.88410  -0.00150   0.00000  -0.00136  -0.00136   1.88274
   A37        1.89713   0.00088   0.00000   0.00106   0.00106   1.89820
    D1        0.85053  -0.00142   0.00000   0.00036   0.00049   0.85102
    D2        3.07349  -0.00198   0.00000   0.00406   0.00416   3.07764
    D3       -1.08961  -0.00261   0.00000   0.00289   0.00297  -1.08664
    D4       -1.20623   0.00249   0.00000   0.00277   0.00269  -1.20354
    D5        1.01672   0.00192   0.00000   0.00647   0.00636   1.02308
    D6        3.13681   0.00130   0.00000   0.00530   0.00517  -3.14120
    D7        3.03873   0.00438   0.00000   0.00835   0.00838   3.04711
    D8       -1.02151   0.00381   0.00000   0.01205   0.01205  -1.00945
    D9        1.09858   0.00318   0.00000   0.01088   0.01087   1.10945
   D10       -1.13125   0.01665   0.00000   0.02953   0.02952  -1.10173
   D11        1.92978   0.01046   0.00000   0.01163   0.01158   1.94137
   D12        0.52503  -0.00003   0.00000   0.00168   0.00164   0.52667
   D13       -2.69712  -0.00621   0.00000  -0.01623  -0.01630  -2.71342
   D14        3.07515   0.01010   0.00000   0.02718   0.02728   3.10242
   D15       -0.14700   0.00391   0.00000   0.00928   0.00934  -0.13767
   D16        0.68732   0.00402   0.00000   0.00073   0.00072   0.68804
   D17        2.76316   0.00416   0.00000   0.00060   0.00058   2.76374
   D18       -1.40566   0.00343   0.00000  -0.00084  -0.00086  -1.40652
   D19        2.70215  -0.00687   0.00000  -0.01264  -0.01261   2.68954
   D20       -1.50521  -0.00673   0.00000  -0.01277  -0.01275  -1.51795
   D21        0.60916  -0.00746   0.00000  -0.01422  -0.01419   0.59497
   D22       -1.02072   0.00330   0.00000   0.01371   0.01370  -1.00702
   D23        1.05511   0.00345   0.00000   0.01358   0.01357   1.06868
   D24       -3.11371   0.00272   0.00000   0.01214   0.01213  -3.10158
   D25        1.61730   0.00220   0.00000   0.01833   0.01834   1.63564
   D26       -1.77198   0.00240   0.00000   0.01149   0.01151  -1.76047
   D27       -0.20684   0.00324   0.00000   0.01318   0.01320  -0.19364
   D28        2.68707   0.00344   0.00000   0.00635   0.00637   2.69344
   D29       -2.79204  -0.00355   0.00000  -0.00090  -0.00092  -2.79296
   D30        0.10187  -0.00334   0.00000  -0.00774  -0.00775   0.09412
   D31        1.89526  -0.00680   0.00000  -0.00475  -0.00477   1.89048
   D32       -1.27149  -0.00449   0.00000   0.00045   0.00047  -1.27102
   D33       -0.11375   0.00170   0.00000   0.00250   0.00252  -0.11123
   D34        3.00270   0.00401   0.00000   0.00771   0.00776   3.01046
   D35       -2.72458  -0.00494   0.00000  -0.01170  -0.01170  -2.73629
   D36        0.39186  -0.00262   0.00000  -0.00650  -0.00646   0.38540
   D37        2.79792   0.00279   0.00000   0.01721   0.01719   2.81511
   D38       -0.25894   0.00831   0.00000   0.03220   0.03222  -0.22672
   D39       -0.49654   0.00330   0.00000   0.00482   0.00480  -0.49175
   D40        2.72978   0.00882   0.00000   0.01981   0.01983   2.74961
   D41       -0.05654   0.00270   0.00000   0.01026   0.01027  -0.04627
   D42        3.10840   0.00118   0.00000   0.00578   0.00575   3.11415
   D43        2.85245   0.00306   0.00000   0.00457   0.00459   2.85705
   D44       -0.26579   0.00154   0.00000   0.00008   0.00007  -0.26572
   D45       -0.00917   0.00431   0.00000   0.00580   0.00580  -0.00337
   D46        3.04532  -0.00137   0.00000  -0.00914  -0.00909   3.03623
   D47       -3.06905   0.01071   0.00000   0.02360   0.02355  -3.04550
   D48       -0.01456   0.00502   0.00000   0.00866   0.00866  -0.00590
   D49        0.08219  -0.00138   0.00000   0.00327   0.00326   0.08544
   D50       -3.03385  -0.00447   0.00000  -0.00276  -0.00265  -3.03650
   D51       -0.01733  -0.00150   0.00000  -0.00893  -0.00886  -0.02619
   D52        3.10051   0.00082   0.00000  -0.00363  -0.00367   3.09683
         Item               Value     Threshold  Converged?
 Maximum Force            0.064787     0.000450     NO 
 RMS     Force            0.013716     0.000300     NO 
 Maximum Displacement     0.166044     0.001800     NO 
 RMS     Displacement     0.044753     0.001200     NO 
 Predicted change in Energy=-1.376267D-02
 GradGradGradGradGradGradGradGradGradGradGradGradGradGradGradGradGradGrad

                          Input orientation:                          
 ---------------------------------------------------------------------
 Center     Atomic      Atomic             Coordinates (Angstroms)
 Number     Number       Type             X           Y           Z
 ---------------------------------------------------------------------
      1          6           0       -1.772927    0.772304    0.257941
      2          6           0       -0.164894   -0.700959    1.135021
      3          6           0        0.764480    2.360112    0.311442
      4          6           0        1.095458   -0.075768    1.211380
      5          6           0       -1.083644    1.265024   -0.897259
      6          6           0        0.068105    1.983300   -0.866505
      7          1           0        1.807771    2.656433    0.238020
      8          1           0        0.248613    2.505939    1.254689
      9          1           0        0.558875    2.221689   -1.810919
     10          1           0       -1.471962    0.961476   -1.870912
     11          1           0       -1.689623    1.348461    1.180235
     12          1           0       -0.812417   -0.893705    1.978728
     13          1           0        1.531826    0.441609    2.049282
     14          8           0        1.116963   -1.449232   -0.612314
     15          6           0       -0.084498   -1.645501    0.007114
     16          6           0        1.880825   -0.541143    0.063489
     17          8           0       -0.914924   -2.465374   -0.308802
     18          8           0        3.004741   -0.206733   -0.228999
     19          6           0       -3.066710    0.034626    0.067711
     20          1           0       -3.237998   -0.652251    0.904204
     21          1           0       -3.903360    0.741992    0.036427
     22          1           0       -3.068201   -0.553799   -0.856173
 ---------------------------------------------------------------------
                    Distance matrix (angstroms):
                    1          2          3          4          5
     1  C    0.000000
     2  C    2.350648   0.000000
     3  C    2.993731   3.303358   0.000000
     4  C    3.139411   1.408965   2.617813   0.000000
     5  C    1.432610   2.973105   2.464901   3.315504   0.000000
     6  C    2.473921   3.356433   1.419326   3.100455   1.357715
     7  H    4.046200   3.996011   1.087038   2.986594   3.403697
     8  H    2.843522   3.235662   1.084942   2.717395   2.818805
     9  H    3.437760   4.212396   2.136785   3.834126   2.108992
    10  H    2.158329   3.675290   3.423525   4.143435   1.091299
    11  H    1.090652   2.554792   2.793002   3.128270   2.165676
    12  H    2.580556   1.080869   3.981679   2.213104   3.606241
    13  H    3.773546   2.240579   2.699918   1.077115   4.025022
    14  O    3.747537   2.292652   3.935564   2.283140   3.505859
    15  C    2.959644   1.473363   4.105888   2.303609   3.207388
    16  C    3.887526   2.314884   3.118491   1.466639   3.601853
    17  O    3.397047   2.400069   5.146883   3.473155   3.780293
    18  O    4.901197   3.485885   3.449570   2.395247   4.396308
    19  C    1.501410   3.178171   4.488352   4.317847   2.525391
    20  H    2.143233   3.082145   5.044356   4.382412   3.400361
    21  H    2.142133   4.155135   4.947997   5.199752   3.015979
    22  H    2.162761   3.523592   4.954155   4.673259   2.692262
                    6          7          8          9         10
     6  C    0.000000
     7  H    2.167838   0.000000
     8  H    2.192077   1.867415   0.000000
     9  H    1.090689   2.438625   3.094352   0.000000
    10  H    2.103512   4.251720   3.887818   2.390823   0.000000
    11  H    2.771601   3.851016   2.258774   3.842560   3.083283
    12  H    4.140993   4.743303   3.634225   5.093873   4.323937
    13  H    3.608477   2.874415   2.557239   4.360788   4.965977
    14  O    3.598192   4.249325   4.459048   3.901766   3.754746
    15  C    3.735598   4.705384   4.347628   4.321381   3.499767
    16  C    3.244018   3.203169   3.656198   3.590849   4.152222
    17  O    4.589997   5.826232   5.339689   5.137801   3.807070
    18  O    3.718399   3.138242   4.142000   3.792356   4.909324
    19  C    3.807512   5.537458   4.302054   4.632209   2.675918
    20  H    4.583869   6.070500   4.717357   5.481575   3.663915
    21  H    4.257776   6.026835   4.672745   5.051111   3.098034
    22  H    4.034029   5.939525   4.981867   4.665893   2.423579
                   11         12         13         14         15
    11  H    0.000000
    12  H    2.536609   0.000000
    13  H    3.457652   2.698799   0.000000
    14  O    4.349395   3.277899   3.291122   0.000000
    15  C    3.593946   2.232113   3.337512   1.365914   0.000000
    16  C    4.191160   3.323551   2.242984   1.365584   2.255056
    17  O    4.166860   2.777309   4.471879   2.291993   1.208967
    18  O    5.142141   4.462811   2.789336   2.292256   3.416021
    19  C    2.204595   3.097679   5.023822   4.490812   3.423461
    20  H    2.544897   2.663897   5.025829   4.679818   3.425768
    21  H    2.564514   4.000245   5.803711   5.515974   4.503853
    22  H    3.109023   3.638786   5.531072   4.286825   3.292349
                   16         17         18         19         20
    16  C    0.000000
    17  O    3.414305   0.000000
    18  O    1.208539   4.524555   0.000000
    19  C    4.980926   3.319931   6.083486   0.000000
    20  H    5.188593   3.186766   6.360379   1.095837   0.000000
    21  H    5.924859   4.397400   6.977993   1.096051   1.771907
    22  H    5.033766   2.930927   6.115098   1.095358   1.771285
                   21         22
    21  H    0.000000
    22  H    1.781376   0.000000
 Stoichiometry    C9H10O3
 Framework group  C1[X(C9H10O3)]
 Deg. of freedom    60
 Full point group                 C1      NOp   1
 Largest Abelian subgroup         C1      NOp   1
 Largest concise Abelian subgroup C1      NOp   1
                         Standard orientation:                         
 ---------------------------------------------------------------------
 Center     Atomic      Atomic             Coordinates (Angstroms)
 Number     Number       Type             X           Y           Z
 ---------------------------------------------------------------------
      1          6           0       -1.838810    0.669568    0.296935
      2          6           0       -0.112282   -0.712310    1.093843
      3          6           0        0.577123    2.436045    0.369442
      4          6           0        1.100515    0.000395    1.173567
      5          6           0       -1.208329    1.252357   -0.849896
      6          6           0       -0.111423    2.051510   -0.810610
      7          1           0        1.594622    2.810419    0.290748
      8          1           0        0.069324    2.509945    1.325360
      9          1           0        0.343421    2.358753   -1.753118
     10          1           0       -1.591276    0.956117   -1.827918
     11          1           0       -1.780758    1.217001    1.238459
     12          1           0       -0.728592   -0.981949    1.939854
     13          1           0        1.513369    0.518117    2.023091
     14          8           0        1.188440   -1.301854   -0.699704
     15          6           0        0.015911   -1.607577   -0.069283
     16          6           0        1.896531   -0.364948   -0.002832
     17          8           0       -0.758399   -2.474277   -0.402263
     18          8           0        2.987666    0.061111   -0.300266
     19          6           0       -3.078852   -0.153636    0.099801
     20          1           0       -3.184507   -0.880623    0.912935
     21          1           0       -3.965100    0.491212    0.107704
     22          1           0       -3.054459   -0.707248   -0.845041
 ---------------------------------------------------------------------
 Rotational constants (GHZ):           1.2152461           0.9425329           0.6404023
 Standard basis: STO-3G (5D, 7F)
 There are    70 symmetry adapted cartesian basis functions of A   symmetry.
 There are    70 symmetry adapted basis functions of A   symmetry.
    70 basis functions,   210 primitive gaussians,    70 cartesian basis functions
    44 alpha electrons       44 beta electrons
       nuclear repulsion energy       700.8186584811 Hartrees.
 NAtoms=   22 NActive=   22 NUniq=   22 SFac= 1.00D+00 NAtFMM=   60 NAOKFM=F Big=F
 Integral buffers will be    131072 words long.
 Raffenetti 1 integral format.
 Two-electron integral symmetry is turned on.
 External calculation of energy, first and second derivatives.
 Running external command "~/scripts/MiMe -H 'wb97xd def2svp' -EF 'wb97xd def2svp' -c 12 -m 48GB R"
         input file       "/local/jobs/1158118/Gau-2570629.EIn"
         output file      "/local/jobs/1158118/Gau-2570629.EOu"
         message file     "/local/jobs/1158118/Gau-2570629.EMs"
         fchk file        "/local/jobs/1158118/Gau-2570629.EFC"
         mat. el file     "/local/jobs/1158118/Gau-2570629.EUF"
 Read checkpoint file Gau-2570629_H.chk type G16
 Write formatted file Gau-2570629_H.fchk

deriv: 2

spelevel: wb97xd def2svp
gradlevel: wb97xd def2svp
hesslevel: wb97xd def2svp

runspe: False
runforce: False
runfreq: True

Running Gaussian ...

Parsing files ...
SPE file: Gau-2570629_H.out
FORCE file: Gau-2570629_H.out
HESS file: Gau-2570629_H.out

 ExternalExternalExternalExternalExternalExternalExternalExternalExternalExternal
 Output from external command:
 "~/scripts/MiMe -H 'wb97xd def2svp' -EF 'wb97xd def2svp' -c 12 -m 48GB R /local/jobs/1158118/Gau-2570629.EIn /local/jobs/1158118/Gau-2570629.EOu /local/jobs/1158118/Gau-2570629.EMs /local/jobs/1158118/Gau-2570629.EFC /local/jobs/1158118/Gau-2570629.EUF"
  
 --------------------------------------------------
 Hessian calculation at wb97xd def2svp
 ExternalExternalExternalExternalExternalExternalExternalExternalExternalExternal

 Recovered energy= -573.955399555     dipole=     -3.027400000000      3.286000000000      2.742200000000
 Energy=    -573.955400     NIter=   0.
 Dipole moment=      -3.027400       3.286000       2.742200
 ***** Axes restored to original set *****
 -------------------------------------------------------------------
 Center     Atomic                   Forces (Hartrees/Bohr)
 Number     Number              X              Y              Z
 -------------------------------------------------------------------
      1        6           0.007541726    0.020578025   -0.046827153
      2        6           0.040429994    0.020441940    0.008928002
      3        6          -0.019496940   -0.019843338   -0.037037960
      4        6          -0.043965795   -0.010746076   -0.001815931
      5        6          -0.061047324   -0.033757950    0.035837852
      6        6           0.062080591    0.038669377    0.036713689
      7        1           0.001445530    0.006902831    0.000227668
      8        1          -0.000341224   -0.004504416    0.005352222
      9        1           0.003895377   -0.005515242   -0.002566345
     10        1           0.000360510   -0.004266369   -0.001544323
     11        1           0.007025675   -0.004176734    0.004878916
     12        1          -0.007590898    0.001268057    0.001787316
     13        1           0.003776473    0.003532300    0.004884475
     14        8           0.003089854   -0.010209017   -0.022782137
     15        6          -0.030806472   -0.014087704    0.005069150
     16        6           0.028581188    0.022624504    0.009950081
     17        8           0.027424468    0.016096837   -0.002750513
     18        8          -0.025388890   -0.017442504   -0.004545355
     19        6           0.008352664   -0.005012947    0.006080398
     20        1          -0.002862338   -0.002356091    0.001332141
     21        1          -0.003000607    0.002843844    0.000449903
     22        1           0.000496437   -0.001039326   -0.001622094
 -------------------------------------------------------------------
 Cartesian Forces:  Max     0.062080591 RMS     0.020455687
 FormGI is forming the generalized inverse of G from B-inverse, IUseBI=4.

 GradGradGradGradGradGradGradGradGradGradGradGradGradGradGradGradGradGrad
 Berny optimization.
 Internal  Forces:  Max     0.048738343 RMS     0.010196491
 Search for a saddle point.
 Step number   2 out of a maximum of   50
 All quantities printed in internal units (Hartrees-Bohrs-Radians)
 Swapping is turned off.
 Second derivative matrix not updated -- analytic derivatives used.
 ITU=  0  0
     Eigenvalues ---   -0.06408  -0.00021   0.00391   0.00905   0.01023
     Eigenvalues ---    0.01421   0.01455   0.01971   0.02029   0.02239
     Eigenvalues ---    0.02425   0.02549   0.02842   0.03161   0.03492
     Eigenvalues ---    0.04226   0.04262   0.04366   0.04909   0.05379
     Eigenvalues ---    0.05918   0.06537   0.08338   0.09026   0.09855
     Eigenvalues ---    0.10978   0.11449   0.12233   0.12900   0.13720
     Eigenvalues ---    0.14347   0.14584   0.15614   0.16348   0.17997
     Eigenvalues ---    0.19551   0.23177   0.26065   0.27922   0.30625
     Eigenvalues ---    0.32921   0.33264   0.33675   0.35222   0.35546
     Eigenvalues ---    0.35715   0.36610   0.36766   0.36874   0.37963
     Eigenvalues ---    0.38035   0.38423   0.39222   0.40169   0.41483
     Eigenvalues ---    0.43638   0.44536   0.63459   0.87421   0.88199
 Eigenvectors required to have negative eigenvalues:
                          R1        D39       D10       D40       D12
   1                   -0.63277  -0.30065   0.21867  -0.18826   0.18649
                          R5        D47       D11       D29       R8
   1                    0.16101   0.15733   0.14599   0.14343   0.13637
 RFO step:  Lambda0=9.909222713D-04 Lambda=-3.21035829D-02.
 Linear search not attempted -- option 19 set.
 Maximum step size (   0.100) exceeded in Quadratic search.
    -- Step size scaled by   0.336
 Iteration  1 RMS(Cart)=  0.04564067 RMS(Int)=  0.00056971
 Iteration  2 RMS(Cart)=  0.00075961 RMS(Int)=  0.00005085
 Iteration  3 RMS(Cart)=  0.00000039 RMS(Int)=  0.00005085
 Variable       Old X    -DE/DX   Delta X   Delta X   Delta X     New X
                                 (Linear)    (Quad)   (Total)
    R1        4.44208  -0.01072   0.00000  -0.04872  -0.04872   4.39336
    R2        2.70724  -0.04380   0.00000  -0.03334  -0.03334   2.67390
    R3        2.06103   0.00246   0.00000   0.00206   0.00206   2.06309
    R4        2.83725  -0.00063   0.00000  -0.00107  -0.00107   2.83619
    R5        2.66256  -0.03068   0.00000  -0.01871  -0.01871   2.64385
    R6        2.04255   0.00572   0.00000   0.00448   0.00448   2.04702
    R7        2.78425   0.00871   0.00000   0.00555   0.00557   2.78982
    R8        2.68214  -0.03976   0.00000  -0.02957  -0.02957   2.65256
    R9        2.05421   0.00325   0.00000   0.00297   0.00297   2.05718
   R10        2.05024   0.00421   0.00000   0.00292   0.00292   2.05317
   R11        2.03545   0.00703   0.00000   0.00544   0.00544   2.04089
   R12        2.77155   0.00974   0.00000   0.00947   0.00946   2.78101
   R13        2.56571   0.04874   0.00000   0.02702   0.02702   2.59273
   R14        2.06226   0.00244   0.00000   0.00199   0.00199   2.06424
   R15        2.06110   0.00277   0.00000   0.00168   0.00168   2.06278
   R16        2.58120   0.00150   0.00000   0.00680   0.00681   2.58801
   R17        2.58058   0.00536   0.00000   0.00858   0.00857   2.58915
   R18        2.28462  -0.02903   0.00000  -0.01116  -0.01116   2.27346
   R19        2.28381  -0.02734   0.00000  -0.01165  -0.01165   2.27215
   R20        2.07083   0.00294   0.00000   0.00192   0.00192   2.07275
   R21        2.07124   0.00411   0.00000   0.00345   0.00345   2.07469
   R22        2.06993   0.00192   0.00000   0.00223   0.00223   2.07216
    A1        1.75920  -0.01469   0.00000  -0.01295  -0.01288   1.74633
    A2        1.53410  -0.00389   0.00000  -0.00948  -0.00948   1.52462
    A3        1.90585   0.00875   0.00000  -0.00796  -0.00788   1.89797
    A4        2.05268  -0.00092   0.00000   0.00141   0.00121   2.05389
    A5        2.07307   0.00717   0.00000   0.01278   0.01262   2.08569
    A6        2.01807  -0.00135   0.00000   0.00194   0.00178   2.01985
    A7        1.93269  -0.00503   0.00000   0.00396   0.00392   1.93661
    A8        1.56400   0.00281   0.00000   0.00611   0.00608   1.57007
    A9        1.72489  -0.00434   0.00000  -0.02814  -0.02812   1.69677
   A10        2.18061  -0.00011   0.00000   0.00358   0.00354   2.18415
   A11        1.85161   0.00396   0.00000   0.00548   0.00545   1.85706
   A12        2.11289  -0.00072   0.00000  -0.00085  -0.00091   2.11198
   A13        2.07968   0.00109   0.00000   0.00442   0.00430   2.08399
   A14        2.12227   0.00050   0.00000   0.00095   0.00084   2.12310
   A15        2.06966  -0.00163   0.00000  -0.00943  -0.00955   2.06011
   A16        2.23660  -0.00024   0.00000  -0.00103  -0.00107   2.23553
   A17        1.87108   0.00156   0.00000   0.00246   0.00239   1.87347
   A18        2.14638  -0.00133   0.00000  -0.00555  -0.00558   2.14080
   A19        2.17954  -0.00860   0.00000  -0.00908  -0.00917   2.17037
   A20        2.04043   0.00336   0.00000   0.00768   0.00759   2.04802
   A21        2.05920   0.00480   0.00000  -0.00060  -0.00068   2.05852
   A22        2.18396  -0.00621   0.00000  -0.01120  -0.01127   2.17269
   A23        2.02621   0.00332   0.00000   0.01065   0.01058   2.03679
   A24        2.06885   0.00250   0.00000  -0.00129  -0.00136   2.06749
   A25        1.94244  -0.01148   0.00000  -0.00548  -0.00552   1.93692
   A26        1.87868   0.00305   0.00000  -0.00086  -0.00087   1.87781
   A27        2.21094   0.01358   0.00000   0.01994   0.01993   2.23087
   A28        2.19338  -0.01660   0.00000  -0.01891  -0.01893   2.17445
   A29        1.87423   0.00315   0.00000  -0.00097  -0.00101   1.87322
   A30        2.21381   0.01540   0.00000   0.02147   0.02148   2.23529
   A31        2.19498  -0.01853   0.00000  -0.02040  -0.02039   2.17459
   A32        1.92404   0.00403   0.00000   0.00648   0.00648   1.93052
   A33        1.92229  -0.00099   0.00000  -0.00085  -0.00086   1.92143
   A34        1.95194  -0.00118   0.00000  -0.00473  -0.00473   1.94721
   A35        1.88283  -0.00146   0.00000  -0.00184  -0.00184   1.88099
   A36        1.88274  -0.00115   0.00000  -0.00208  -0.00208   1.88066
   A37        1.89820   0.00070   0.00000   0.00306   0.00306   1.90126
    D1        0.85102  -0.00078   0.00000   0.00077   0.00076   0.85178
    D2        3.07764  -0.00099   0.00000   0.00874   0.00874   3.08638
    D3       -1.08664  -0.00161   0.00000   0.00652   0.00651  -1.08012
    D4       -1.20354   0.00178   0.00000   0.00195   0.00193  -1.20162
    D5        1.02308   0.00157   0.00000   0.00991   0.00991   1.03299
    D6       -3.14120   0.00095   0.00000   0.00770   0.00769  -3.13352
    D7        3.04711   0.00351   0.00000   0.00445   0.00446   3.05157
    D8       -1.00945   0.00330   0.00000   0.01241   0.01244  -0.99702
    D9        1.10945   0.00268   0.00000   0.01020   0.01022   1.11967
   D10       -1.10173   0.01227   0.00000   0.02420   0.02420  -1.07754
   D11        1.94137   0.00717   0.00000  -0.00022  -0.00027   1.94110
   D12        0.52667  -0.00027   0.00000   0.00669   0.00669   0.53337
   D13       -2.71342  -0.00537   0.00000  -0.01774  -0.01777  -2.73119
   D14        3.10242   0.00832   0.00000   0.03701   0.03707   3.13949
   D15       -0.13767   0.00322   0.00000   0.01259   0.01260  -0.12506
   D16        0.68804   0.00259   0.00000   0.04431   0.04432   0.73236
   D17        2.76374   0.00269   0.00000   0.04554   0.04556   2.80930
   D18       -1.40652   0.00210   0.00000   0.04567   0.04569  -1.36083
   D19        2.68954  -0.00534   0.00000   0.02944   0.02940   2.71894
   D20       -1.51795  -0.00524   0.00000   0.03067   0.03063  -1.48732
   D21        0.59497  -0.00584   0.00000   0.03080   0.03077   0.62574
   D22       -1.00702   0.00314   0.00000   0.05892   0.05893  -0.94808
   D23        1.06868   0.00324   0.00000   0.06015   0.06017   1.12885
   D24       -3.10158   0.00265   0.00000   0.06028   0.06030  -3.04128
   D25        1.63564   0.00258   0.00000   0.03314   0.03315   1.66879
   D26       -1.76047   0.00239   0.00000   0.01473   0.01475  -1.74571
   D27       -0.19364   0.00300   0.00000   0.01957   0.01960  -0.17404
   D28        2.69344   0.00280   0.00000   0.00116   0.00120   2.69464
   D29       -2.79296  -0.00256   0.00000   0.00515   0.00514  -2.78782
   D30        0.09412  -0.00275   0.00000  -0.01325  -0.01326   0.08086
   D31        1.89048  -0.00465   0.00000  -0.00155  -0.00156   1.88892
   D32       -1.27102  -0.00276   0.00000   0.00701   0.00705  -1.26397
   D33       -0.11123   0.00129   0.00000   0.00344   0.00345  -0.10777
   D34        3.01046   0.00318   0.00000   0.01200   0.01206   3.02252
   D35       -2.73629  -0.00415   0.00000  -0.01186  -0.01185  -2.74813
   D36        0.38540  -0.00226   0.00000  -0.00330  -0.00324   0.38216
   D37        2.81511   0.00314   0.00000   0.02600   0.02595   2.84106
   D38       -0.22672   0.00762   0.00000   0.04792   0.04795  -0.17878
   D39       -0.49175   0.00268   0.00000  -0.00372  -0.00374  -0.49549
   D40        2.74961   0.00716   0.00000   0.01821   0.01825   2.76786
   D41       -0.04627   0.00252   0.00000   0.01866   0.01866  -0.02761
   D42        3.11415   0.00111   0.00000   0.01303   0.01299   3.12714
   D43        2.85705   0.00250   0.00000   0.00216   0.00220   2.85925
   D44       -0.26572   0.00109   0.00000  -0.00347  -0.00346  -0.26918
   D45       -0.00337   0.00304   0.00000   0.00716   0.00716   0.00379
   D46        3.03623  -0.00151   0.00000  -0.01465  -0.01458   3.02165
   D47       -3.04550   0.00828   0.00000   0.03141   0.03134  -3.01416
   D48       -0.00590   0.00372   0.00000   0.00959   0.00960   0.00370
   D49        0.08544  -0.00072   0.00000   0.00800   0.00798   0.09342
   D50       -3.03650  -0.00302   0.00000  -0.00100  -0.00083  -3.03733
   D51       -0.02619  -0.00154   0.00000  -0.01684  -0.01674  -0.04293
   D52        3.09683   0.00031   0.00000  -0.01072  -0.01076   3.08608
         Item               Value     Threshold  Converged?
 Maximum Force            0.048738     0.000450     NO 
 RMS     Force            0.010196     0.000300     NO 
 Maximum Displacement     0.129308     0.001800     NO 
 RMS     Displacement     0.045688     0.001200     NO 
 Predicted change in Energy=-9.073455D-03
 GradGradGradGradGradGradGradGradGradGradGradGradGradGradGradGradGradGrad

                          Input orientation:                          
 ---------------------------------------------------------------------
 Center     Atomic      Atomic             Coordinates (Angstroms)
 Number     Number       Type             X           Y           Z
 ---------------------------------------------------------------------
      1          6           0       -1.773794    0.776032    0.251365
      2          6           0       -0.171843   -0.659886    1.132785
      3          6           0        0.773680    2.291685    0.328303
      4          6           0        1.077195   -0.033519    1.203133
      5          6           0       -1.083558    1.244614   -0.891496
      6          6           0        0.094095    1.947382   -0.850649
      7          1           0        1.818537    2.592442    0.274522
      8          1           0        0.247285    2.439899    1.267131
      9          1           0        0.603480    2.163984   -1.791474
     10          1           0       -1.457863    0.929245   -1.868055
     11          1           0       -1.685407    1.357599    1.171073
     12          1           0       -0.817740   -0.859676    1.979134
     13          1           0        1.522974    0.470706    2.047779
     14          8           0        1.088850   -1.385260   -0.645300
     15          6           0       -0.107550   -1.590733   -0.011277
     16          6           0        1.863033   -0.490805    0.045943
     17          8           0       -0.928597   -2.402791   -0.348620
     18          8           0        2.981515   -0.175016   -0.262238
     19          6           0       -3.058290    0.018862    0.080192
     20          1           0       -3.244690   -0.626310    0.947424
     21          1           0       -3.900126    0.718534   -0.004087
     22          1           0       -3.034688   -0.618488   -0.811788
 ---------------------------------------------------------------------
                    Distance matrix (angstroms):
                    1          2          3          4          5
     1  C    0.000000
     2  C    2.324867   0.000000
     3  C    2.965256   3.202026   0.000000
     4  C    3.112776   1.399064   2.502802   0.000000
     5  C    1.414965   2.925074   2.456339   3.269549   0.000000
     6  C    2.464854   3.286728   1.403677   3.018025   1.372013
     7  H    4.025509   3.908434   1.088611   2.882286   3.405642
     8  H    2.808023   3.130875   1.086488   2.609720   2.803484
     9  H    3.427978   4.138437   2.130430   3.744476   2.121627
    10  H    2.148309   3.631009   3.414676   4.097027   1.092350
    11  H    1.091739   2.522417   2.762225   3.093252   2.151553
    12  H    2.564131   1.083239   3.897298   2.208052   3.569203
    13  H    3.766830   2.233350   2.614193   1.079994   4.004033
    14  O    3.697286   2.297194   3.816695   2.289988   3.419972
    15  C    2.906360   1.476309   3.995628   2.302896   3.125151
    16  C    3.856629   2.313122   3.001444   1.471645   3.545824
    17  O    3.343540   2.409348   5.039253   3.470532   3.690838
    18  O    4.876602   3.482076   3.362720   2.407024   4.351567
    19  C    1.500845   3.146462   4.462205   4.285554   2.519168
    20  H    2.148161   3.078615   5.004528   4.369837   3.398893
    21  H    2.142394   4.134322   4.942646   5.176552   2.999552
    22  H    2.159823   3.461064   4.926721   4.616241   2.698964
                    6          7          8          9         10
     6  C    0.000000
     7  H    2.157733   0.000000
     8  H    2.179687   1.864772   0.000000
     9  H    1.091577   2.434806   3.091613   0.000000
    10  H    2.116670   4.253429   3.875435   2.404075   0.000000
    11  H    2.757143   3.821815   2.217183   3.829615   3.077591
    12  H    4.088850   4.666131   3.539550   5.037844   4.290788
    13  H    3.552908   2.780928   2.472754   4.295640   4.942611
    14  O    3.483994   4.147364   4.358608   3.761175   3.652097
    15  C    3.641904   4.614157   4.243374   4.215752   3.408997
    16  C    3.142893   3.092028   3.562438   3.465614   4.087577
    17  O    4.496881   5.734754   5.238797   5.028372   3.700172
    18  O    3.631528   3.049500   4.080780   3.669406   4.848311
    19  C    3.810930   5.517655   4.265802   4.638237   2.680640
    20  H    4.583060   6.037336   4.658083   5.485956   3.679596
    21  H    4.263864   6.024306   4.666917   5.056337   3.079517
    22  H    4.046540   5.919792   4.944389   4.683823   2.448991
                   11         12         13         14         15
    11  H    0.000000
    12  H    2.514382   0.000000
    13  H    3.442224   2.693245   0.000000
    14  O    4.303370   3.286180   3.299355   0.000000
    15  C    3.546864   2.236191   3.338839   1.369517   0.000000
    16  C    4.156194   3.325634   2.246661   1.370120   2.257502
    17  O    4.125865   2.794983   4.473244   2.278921   1.203062
    18  O    5.116977   4.463950   2.807218   2.278950   3.407280
    19  C    2.206138   3.065595   5.006350   4.438092   3.362443
    20  H    2.533234   2.647446   5.014463   4.678925   3.419191
    21  H    2.587351   3.990616   5.803584   5.452246   4.440315
    22  H    3.107606   3.572433   5.489604   4.197526   3.186568
                   16         17         18         19         20
    16  C    0.000000
    17  O    3.406548   0.000000
    18  O    1.202373   4.501047   0.000000
    19  C    4.947762   3.253286   6.052610   0.000000
    20  H    5.188435   3.193728   6.358661   1.096851   0.000000
    21  H    5.888889   4.323350   6.944211   1.097876   1.773013
    22  H    4.973900   2.798907   6.057506   1.096539   1.771719
                   21         22
    21  H    0.000000
    22  H    1.785774   0.000000
 Stoichiometry    C9H10O3
 Framework group  C1[X(C9H10O3)]
 Deg. of freedom    60
 Full point group                 C1      NOp   1
 Largest Abelian subgroup         C1      NOp   1
 Largest concise Abelian subgroup C1      NOp   1
                         Standard orientation:                         
 ---------------------------------------------------------------------
 Center     Atomic      Atomic             Coordinates (Angstroms)
 Number     Number       Type             X           Y           Z
 ---------------------------------------------------------------------
      1          6           0       -1.799638    0.751995    0.274517
      2          6           0       -0.155235   -0.662612    1.111077
      3          6           0        0.711692    2.326467    0.358203
      4          6           0        1.079187   -0.008008    1.182336
      5          6           0       -1.132217    1.260028   -0.865035
      6          6           0        0.028730    1.989880   -0.821026
      7          1           0        1.748506    2.653234    0.300645
      8          1           0        0.191339    2.442984    1.304836
      9          1           0        0.523378    2.237632   -1.762028
     10          1           0       -1.508664    0.955591   -1.844236
     11          1           0       -1.715917    1.316788    1.205051
     12          1           0       -0.787695   -0.894924    1.959270
     13          1           0        1.521270    0.489575    2.032842
     14          8           0        1.104507   -1.321408   -0.693400
     15          6           0       -0.080261   -1.568312   -0.052355
     16          6           0        1.864066   -0.422802    0.008602
     17          8           0       -0.885087   -2.392845   -0.398415
     18          8           0        2.971577   -0.074097   -0.303685
     19          6           0       -3.067402   -0.032159    0.100119
     20          1           0       -3.229711   -0.699031    0.955701
     21          1           0       -3.926450    0.648674    0.038193
     22          1           0       -3.037568   -0.650582   -0.804902
 ---------------------------------------------------------------------
 Rotational constants (GHZ):           1.2642206           0.9509666           0.6592916
 Standard basis: STO-3G (5D, 7F)
 There are    70 symmetry adapted cartesian basis functions of A   symmetry.
 There are    70 symmetry adapted basis functions of A   symmetry.
    70 basis functions,   210 primitive gaussians,    70 cartesian basis functions
    44 alpha electrons       44 beta electrons
       nuclear repulsion energy       706.8243835025 Hartrees.
 NAtoms=   22 NActive=   22 NUniq=   22 SFac= 1.00D+00 NAtFMM=   60 NAOKFM=F Big=F
 Integral buffers will be    131072 words long.
 Raffenetti 1 integral format.
 Two-electron integral symmetry is turned on.
 External calculation of energy, first and second derivatives.
 Running external command "~/scripts/MiMe -H 'wb97xd def2svp' -EF 'wb97xd def2svp' -c 12 -m 48GB R"
         input file       "/local/jobs/1158118/Gau-2570629.EIn"
         output file      "/local/jobs/1158118/Gau-2570629.EOu"
         message file     "/local/jobs/1158118/Gau-2570629.EMs"
         fchk file        "/local/jobs/1158118/Gau-2570629.EFC"
         mat. el file     "/local/jobs/1158118/Gau-2570629.EUF"
 Read checkpoint file Gau-2570629_H.chk type G16
 Write formatted file Gau-2570629_H.fchk

deriv: 2

spelevel: wb97xd def2svp
gradlevel: wb97xd def2svp
hesslevel: wb97xd def2svp

runspe: False
runforce: False
runfreq: True

Running Gaussian ...

Parsing files ...
SPE file: Gau-2570629_H.out
FORCE file: Gau-2570629_H.out
HESS file: Gau-2570629_H.out

 ExternalExternalExternalExternalExternalExternalExternalExternalExternalExternal
 Output from external command:
 "~/scripts/MiMe -H 'wb97xd def2svp' -EF 'wb97xd def2svp' -c 12 -m 48GB R /local/jobs/1158118/Gau-2570629.EIn /local/jobs/1158118/Gau-2570629.EOu /local/jobs/1158118/Gau-2570629.EMs /local/jobs/1158118/Gau-2570629.EFC /local/jobs/1158118/Gau-2570629.EUF"
  
 --------------------------------------------------
 Hessian calculation at wb97xd def2svp
 ExternalExternalExternalExternalExternalExternalExternalExternalExternalExternal

 Recovered energy= -573.964331235     dipole=     -2.830400000000      3.435500000000      2.791100000000
 Energy=    -573.964331     NIter=   0.
 Dipole moment=      -2.830400       3.435500       2.791100
 ***** Axes restored to original set *****
 -------------------------------------------------------------------
 Center     Atomic                   Forces (Hartrees/Bohr)
 Number     Number              X              Y              Z
 -------------------------------------------------------------------
      1        6           0.003813827    0.015035784   -0.033554034
      2        6           0.028423925    0.012914759    0.007329609
      3        6          -0.012553532   -0.014297839   -0.025433458
      4        6          -0.031103767   -0.005616396   -0.001968670
      5        6          -0.042614244   -0.021155636    0.024056987
      6        6           0.042507325    0.026866997    0.025043604
      7        1           0.000646961    0.005990644    0.000324534
      8        1          -0.000265972   -0.003202791    0.003707256
      9        1           0.002891662   -0.005079277   -0.001815846
     10        1           0.000615229   -0.003444442   -0.001015623
     11        1           0.005741755   -0.003808088    0.003850964
     12        1          -0.005863862    0.001062695    0.000822391
     13        1           0.003181937    0.001391229    0.003726383
     14        8           0.001707784   -0.006024215   -0.016447332
     15        6          -0.021126624   -0.009842894    0.003902134
     16        6           0.020132119    0.014806315    0.007301338
     17        8           0.018734002    0.010581077   -0.001939809
     18        8          -0.017094844   -0.011890990   -0.003048147
     19        6           0.006347527   -0.004210324    0.005154427
     20        1          -0.002111027   -0.001539473    0.000981671
     21        1          -0.002091373    0.001961731    0.000088448
     22        1           0.000081196   -0.000498864   -0.001066825
 -------------------------------------------------------------------
 Cartesian Forces:  Max     0.042614244 RMS     0.014141116
 FormGI is forming the generalized inverse of G from B-inverse, IUseBI=4.

 GradGradGradGradGradGradGradGradGradGradGradGradGradGradGradGradGradGrad
 Berny optimization.
 Internal  Forces:  Max     0.033841576 RMS     0.006914526
 Search for a saddle point.
 Step number   3 out of a maximum of   50
 All quantities printed in internal units (Hartrees-Bohrs-Radians)
 Swapping is turned off.
 Second derivative matrix not updated -- analytic derivatives used.
 ITU=  0  0  0
     Eigenvalues ---   -0.06303   0.00097   0.00386   0.00995   0.01113
     Eigenvalues ---    0.01497   0.01609   0.02086   0.02149   0.02281
     Eigenvalues ---    0.02508   0.02773   0.03139   0.03725   0.04287
     Eigenvalues ---    0.04357   0.04472   0.04657   0.05023   0.05581
     Eigenvalues ---    0.05981   0.07320   0.09031   0.09666   0.10139
     Eigenvalues ---    0.11487   0.12202   0.12408   0.13238   0.14100
     Eigenvalues ---    0.14652   0.15112   0.16314   0.16886   0.18454
     Eigenvalues ---    0.21164   0.23238   0.26137   0.27703   0.31823
     Eigenvalues ---    0.33242   0.33461   0.34921   0.35283   0.35370
     Eigenvalues ---    0.35520   0.36383   0.36573   0.36957   0.37588
     Eigenvalues ---    0.37699   0.38094   0.38678   0.39515   0.45446
     Eigenvalues ---    0.46262   0.50057   0.62253   0.90791   0.91735
 Eigenvectors required to have negative eigenvalues:
                          R1        D39       D40       D10       D12
   1                    0.62694   0.31840   0.21800  -0.18728  -0.18244
                          R5        D29       D28       D44       R8
   1                   -0.16381  -0.15935   0.14973   0.14791  -0.13939
 RFO step:  Lambda0=1.118684732D-03 Lambda=-1.67884961D-02.
 Linear search not attempted -- option 19 set.
 Maximum step size (   0.100) exceeded in Quadratic search.
    -- Step size scaled by   0.468
 Iteration  1 RMS(Cart)=  0.03850406 RMS(Int)=  0.00036112
 Iteration  2 RMS(Cart)=  0.00060338 RMS(Int)=  0.00012347
 Iteration  3 RMS(Cart)=  0.00000023 RMS(Int)=  0.00012347
 Variable       Old X    -DE/DX   Delta X   Delta X   Delta X     New X
                                 (Linear)    (Quad)   (Total)
    R1        4.39336  -0.00676   0.00000  -0.05408  -0.05408   4.33928
    R2        2.67390  -0.02910   0.00000  -0.02746  -0.02746   2.64644
    R3        2.06309   0.00168   0.00000   0.00173   0.00173   2.06482
    R4        2.83619  -0.00033   0.00000  -0.00164  -0.00164   2.83455
    R5        2.64385  -0.02069   0.00000  -0.01359  -0.01353   2.63032
    R6        2.04702   0.00394   0.00000   0.00440   0.00440   2.05142
    R7        2.78982   0.00623   0.00000   0.00543   0.00546   2.79528
    R8        2.65256  -0.02669   0.00000  -0.02316  -0.02316   2.62941
    R9        2.05718   0.00226   0.00000   0.00307   0.00307   2.06025
   R10        2.05317   0.00289   0.00000   0.00308   0.00308   2.05625
   R11        2.04089   0.00488   0.00000   0.00595   0.00595   2.04684
   R12        2.78101   0.00681   0.00000   0.01020   0.01021   2.79122
   R13        2.59273   0.03384   0.00000   0.02623   0.02623   2.61895
   R14        2.06424   0.00169   0.00000   0.00188   0.00188   2.06612
   R15        2.06278   0.00191   0.00000   0.00159   0.00159   2.06437
   R16        2.58801   0.00138   0.00000   0.00858   0.00853   2.59654
   R17        2.58915   0.00377   0.00000   0.00800   0.00794   2.59709
   R18        2.27346  -0.01938   0.00000  -0.01028  -0.01028   2.26318
   R19        2.27215  -0.01824   0.00000  -0.01058  -0.01058   2.26158
   R20        2.07275   0.00204   0.00000   0.00202   0.00202   2.07477
   R21        2.07469   0.00285   0.00000   0.00377   0.00377   2.07845
   R22        2.07216   0.00116   0.00000   0.00141   0.00141   2.07357
    A1        1.74633  -0.00906   0.00000  -0.00669  -0.00658   1.73974
    A2        1.52462  -0.00301   0.00000  -0.02285  -0.02290   1.50172
    A3        1.89797   0.00497   0.00000  -0.00890  -0.00885   1.88913
    A4        2.05389  -0.00061   0.00000   0.00210   0.00181   2.05570
    A5        2.08569   0.00490   0.00000   0.01712   0.01697   2.10266
    A6        2.01985  -0.00093   0.00000  -0.00059  -0.00093   2.01892
    A7        1.93661  -0.00290   0.00000  -0.00047  -0.00048   1.93612
    A8        1.57007   0.00154   0.00000   0.00261   0.00259   1.57266
    A9        1.69677  -0.00319   0.00000  -0.01866  -0.01866   1.67810
   A10        2.18415   0.00008   0.00000   0.00504   0.00502   2.18917
   A11        1.85706   0.00253   0.00000   0.00487   0.00486   1.86192
   A12        2.11198  -0.00048   0.00000  -0.00240  -0.00248   2.10950
   A13        2.08399   0.00088   0.00000   0.00410   0.00361   2.08760
   A14        2.12310   0.00030   0.00000  -0.00167  -0.00216   2.12094
   A15        2.06011  -0.00137   0.00000  -0.01237  -0.01288   2.04723
   A16        2.23553  -0.00023   0.00000  -0.00471  -0.00512   2.23041
   A17        1.87347   0.00126   0.00000   0.00207   0.00177   1.87524
   A18        2.14080  -0.00117   0.00000  -0.00923  -0.00959   2.13121
   A19        2.17037  -0.00499   0.00000  -0.01157  -0.01172   2.15865
   A20        2.04802   0.00186   0.00000   0.00773   0.00757   2.05559
   A21        2.05852   0.00273   0.00000   0.00053   0.00038   2.05890
   A22        2.17269  -0.00398   0.00000  -0.01432  -0.01446   2.15823
   A23        2.03679   0.00236   0.00000   0.01295   0.01280   2.04959
   A24        2.06749   0.00128   0.00000  -0.00179  -0.00192   2.06557
   A25        1.93692  -0.00770   0.00000  -0.00471  -0.00489   1.93204
   A26        1.87781   0.00205   0.00000  -0.00122  -0.00128   1.87653
   A27        2.23087   0.00981   0.00000   0.02183   0.02184   2.25271
   A28        2.17445  -0.01184   0.00000  -0.02052  -0.02051   2.15394
   A29        1.87322   0.00197   0.00000  -0.00116  -0.00123   1.87199
   A30        2.23529   0.01088   0.00000   0.02103   0.02105   2.25634
   A31        2.17459  -0.01284   0.00000  -0.01978  -0.01976   2.15483
   A32        1.93052   0.00291   0.00000   0.00760   0.00760   1.93812
   A33        1.92143  -0.00081   0.00000  -0.00278  -0.00278   1.91865
[...]
 35150,-0.00011686,-0.00022412,-0.00021182,0.00086118,0.03847311,0.0436
 7082,-0.00073412,0.00266064,-0.00445816,0.15831286,0.02733954,-0.23756
 430,-0.00083677,0.00089748,-0.00126985,-0.00689157,-0.00316554,0.00930
 957,-0.00177660,-0.00093183,0.00148048,0.00176119,0.00077517,0.0008414
 7,0.00002178,-0.00010040,0.00001712,0.00006112,-0.00010738,0.00006920,
 -0.00000251,-0.00005760,0.00004009,-0.00003278,-0.00002972,0.00004270,
 0.00039943,-0.00014728,0.00057326,-0.16178197,-0.03295836,0.23996881,-
 0.00040864,0.00042543,-0.00173375,0.00093240,-0.00622570,-0.01984421,-
 0.00189716,0.00346480,-0.00497697,-0.12121736,-0.06409136,-0.11329091,
 -0.00189702,-0.00095130,0.00107999,0.00169587,0.00147133,0.00180076,0.
 00037956,-0.00050749,0.00026660,-0.00027792,-0.00005440,-0.00043954,0.
 00015256,-0.00020441,0.00008551,0.00000187,-0.00008690,0.00002925,0.00
 005677,-0.00015950,0.00002582,0.00043601,0.00139261,0.00022182,0.11457
 561,0.00151085,-0.00402565,0.00555688,-0.01129125,-0.00276925,-0.01364
 337,0.00803542,-0.01066360,0.01496483,-0.05067830,-0.06031091,-0.09689
 988,0.00638305,0.00304421,-0.00274294,-0.00581230,-0.00333744,-0.00472
 261,-0.00036202,0.00031051,0.00025969,0.00025069,0.00092608,0.00083715
 ,-0.00038157,0.00055104,-0.00010624,-0.00013765,0.00031302,-0.00009004
 ,-0.00038364,0.00066094,-0.00020380,0.00241972,-0.00223291,0.00154936,
 0.05995469,0.07989593,-0.00016757,0.00130121,-0.00142555,0.00660840,0.
 00398478,0.00948080,-0.00229191,0.00343996,-0.00546563,-0.11442593,-0.
 10521130,-0.25176220,-0.00196819,-0.00102487,0.00074211,0.00202405,0.0
 0098582,0.00218996,0.00018158,0.00012882,-0.00026493,-0.00003397,-0.00
 074040,0.00075081,0.00005977,0.00000689,0.00004735,0.00008505,-0.00006
 682,0.00005250,0.00006974,-0.00015432,0.00006696,-0.00113504,0.0004742
 2,-0.00029962,0.12077276,0.10280335,0.25538815,0.00323598,-0.00289953,
 0.00383020,-0.02192709,0.00515720,0.03171719,-0.00065923,0.00258888,-0
 .00439019,0.00633302,-0.01271309,0.00039084,0.00038385,-0.00039207,0.0
 0134460,0.00035223,0.00135844,-0.00114488,0.00003722,0.00106407,0.0002
 1933,0.00052250,-0.00091428,0.00021024,-0.00010334,0.00022267,-0.00029
 475,0.00021702,-0.00010467,0.00025635,-0.00031740,0.00076949,-0.000035
 90,0.00289291,0.00320982,0.00318346,0.00077661,0.00014331,0.00033820,0
 .36736062,-0.00063609,-0.00017374,0.00109141,0.00826238,0.01416318,-0.
 01460575,-0.00095654,0.00478091,-0.00317110,-0.01666475,-0.01762541,-0
 .03406474,0.00096745,-0.00059932,0.00059394,0.00009857,0.00147600,0.00
 012668,0.00019103,0.00025283,0.00001296,0.00022105,-0.00027279,0.00002
 986,0.00014952,0.00010297,-0.00017349,-0.00009424,-0.00008378,0.000102
 49,-0.00015535,0.00048330,-0.00004296,-0.00106634,-0.00070281,-0.00223
 204,0.00463163,0.00042652,-0.00367129,0.12273644,0.21234541,-0.0002701
 5,0.00076257,-0.00195734,0.03063923,-0.01371910,-0.03384863,0.00007009
 ,0.00015924,-0.00177725,-0.00371308,-0.03134903,-0.03385126,-0.0016355
 9,0.00005774,0.00098572,0.00054222,0.00078572,0.00125089,0.00001280,0.
 00017638,-0.00003227,-0.00022503,-0.00027438,0.00039578,-0.00027003,-0
 .00048795,0.00029391,0.00061324,-0.00015542,0.00042101,0.00028129,-0.0
 0001881,0.00046378,-0.00031917,-0.00498853,-0.00244008,0.00433127,-0.0
 0239074,-0.00252233,-0.06896884,0.14341157,0.33963125,-0.00013239,0.00
 546723,-0.00065965,-0.07920619,0.00326762,0.02854640,-0.00163887,-0.00
 250463,0.00174279,-0.00967361,-0.01515243,-0.01826560,-0.00084236,0.00
 147133,-0.00101487,0.00062960,-0.00067617,0.00077236,0.00007446,-0.000
 73674,-0.00015407,-0.00021507,0.00060418,-0.00012225,-0.00023558,-0.00
 079065,0.00045454,0.00018421,0.00034156,-0.00059274,-0.00060642,-0.000
 74500,-0.00078632,0.00102896,0.01235369,0.01236042,-0.00560243,-0.0046
 6452,0.00470780,-0.10921260,0.00797149,0.05765715,0.65954012,0.0161381
 6,-0.01270635,0.00471303,-0.01695451,-0.12089193,-0.07025335,-0.001788
 52,-0.00046843,-0.00196076,-0.01262884,-0.01859523,-0.01315089,0.00204
 190,-0.00114081,0.00135444,-0.00067451,0.00137507,-0.00101952,0.000023
 72,-0.00007472,0.00013234,0.00002623,-0.00006284,0.00001050,0.00007812
 ,-0.00019921,0.00011164,0.00007640,0.00025012,-0.00059549,-0.00144193,
 0.00097478,-0.00009094,0.00218121,0.00668590,0.01142225,-0.00206871,0.
 00349319,-0.00066158,0.00811073,-0.08128432,-0.03289598,0.38067018,0.6
 8314703,0.00552191,-0.00095519,0.00258302,0.02097135,-0.06383956,-0.17
 469073,-0.00513358,0.01086011,-0.01341517,-0.02305694,-0.03254157,-0.0
 0157635,-0.00168902,0.00079351,0.00363220,0.00604841,0.00787441,0.0021
 4861,0.00019291,0.00039546,-0.00002234,0.00101855,-0.00196059,0.000305
 84,0.00053628,-0.00028027,0.00000968,-0.00094536,0.00021209,-0.0011075
 5,-0.00090625,0.00108817,-0.00063169,-0.00369132,-0.01116117,-0.007173
 78,0.00264048,-0.00133764,-0.00131616,0.06063028,-0.03161009,-0.161047
 61,0.09859515,0.27514805,0.48525648,-0.00347663,0.00041708,-0.00086262
 ,-0.02562633,-0.00141007,0.02010712,-0.00439910,0.01444707,-0.00249538
 ,-0.11574416,0.00633886,0.03765321,-0.00082793,-0.00139732,0.00049327,
 0.00150842,0.00241647,0.00170275,0.00079326,-0.00461376,-0.00049849,-0
 .00109711,-0.00072162,0.00005970,0.00070498,-0.00038006,0.00099162,-0.
 00042615,0.00025140,-0.00028286,0.00039388,-0.00031876,0.00018884,-0.0
 0207055,-0.00402668,-0.00210430,0.01278659,-0.00475729,-0.01617798,-0.
 09037635,-0.01454730,-0.00691024,-0.07975380,-0.03286321,0.01076934,1.
 05756535,-0.00096065,0.00003992,-0.00124154,-0.00759515,-0.00079868,0.
 00664815,0.00782099,-0.01662188,0.00202068,0.02996236,-0.08137659,-0.0
 5611943,0.00014522,0.00129030,-0.00129283,0.00062572,-0.00321415,0.000
 73168,-0.00025749,-0.00109744,-0.00027361,-0.00081156,0.00006394,0.000
 74305,0.00027677,-0.00016445,0.00043838,-0.00049569,0.00004155,-0.0003
 4509,0.00014121,-0.00042082,-0.00012010,-0.00668155,0.00004091,-0.0047
 7162,0.00386946,-0.00373953,-0.00306394,-0.01704729,-0.11575440,-0.072
 03562,-0.06463081,-0.01676019,0.04206335,0.16241715,0.33361877,-0.0021
 0504,0.00548525,-0.00795187,0.02902173,0.00360826,-0.00457690,-0.00123
 079,-0.00206909,0.00430714,0.04354915,-0.04503369,-0.16541823,-0.00578
 509,-0.00045745,0.00012287,-0.00133057,0.00188403,0.00279084,-0.000171
 36,0.00051497,0.00029753,-0.00020283,0.00150422,-0.00058745,0.00028263
 ,0.00093498,-0.00098567,-0.00033007,-0.00032416,-0.00018566,0.00051183
 ,-0.00145431,-0.00007395,-0.00036001,-0.00374959,-0.00120747,0.0123940
 2,-0.00392804,-0.00778272,-0.01246255,-0.07449961,-0.16805177,-0.04351
 518,0.01203827,0.04826331,-0.25872835,0.07048165,0.46985353,-0.0051992
 4,-0.00022097,0.00068260,0.00463352,-0.02165253,-0.01209256,0.00166601
 ,-0.00208971,0.00313955,0.00461599,0.00305548,-0.00207241,0.00235403,0
 .00091121,-0.00149161,-0.00282039,-0.00207470,-0.00214859,0.00001961,0
 .00012693,0.00010249,-0.00006452,0.00043183,-0.00015419,-0.00005832,0.
 00046492,-0.00021369,-0.00003893,-0.00011431,0.00044005,0.00064877,-0.
 00010310,0.00044011,-0.00052665,0.00015648,-0.00176939,0.00055755,-0.0
 0021463,-0.00081374,-0.07607632,-0.06325235,-0.00672876,-0.39187380,-0
 .33582402,-0.14843411,0.01200427,0.01511968,0.02249678,0.45679152,-0.0
 0502403,-0.00035104,-0.00146135,-0.02758379,-0.02403898,-0.02306790,0.
 00114823,-0.00183441,0.00300416,0.00291851,0.00226038,-0.00834964,0.00
 244107,0.00033736,-0.00196523,-0.00218284,-0.00197298,-0.00139280,0.00
 003199,0.00002566,0.00004225,-0.00004853,0.00048453,-0.00011169,-0.000
 14633,0.00028370,-0.00009572,-0.00011455,0.00009172,0.00016405,0.00056
 282,-0.00041759,0.00035597,-0.00005040,-0.00026117,-0.00113861,-0.0010
 5756,-0.00214019,0.00085875,-0.04954082,-0.01105722,0.00633344,-0.3341
 2112,-0.44635038,-0.17843611,0.00603179,0.01010908,0.00608702,0.409307
 39,0.47893661,-0.00211968,-0.00023712,0.00033993,-0.02758993,-0.035686
 91,-0.00125390,0.00127069,-0.00277250,0.00379114,0.00446590,0.00148253
 ,-0.00543072,0.00110834,0.00075791,-0.00158406,-0.00245083,-0.00246995
 ,-0.00117059,0.00005533,-0.00020684,0.00007278,-0.00026558,0.00062898,
 -0.00013029,-0.00016073,0.00017007,-0.00006422,0.00030903,-0.00022939,
 0.00051882,0.00028762,-0.00009713,0.00019426,0.00025233,0.00213208,0.0
 0121620,-0.00144006,-0.00050637,0.00061101,0.01379393,0.02067908,0.031
 03370,-0.14505387,-0.17966091,-0.17459252,0.00164887,-0.00659444,-0.00
 632031,0.15220369,0.19994288,0.15138333,0.00106626,0.00115060,-0.00204
 188,0.00147487,0.00386072,0.00835199,-0.00119548,-0.00382700,0.0003343
 5,-0.03517999,-0.00177874,0.02211143,-0.00256212,-0.00060228,0.0012267
 7,0.00125271,0.00158779,0.00148761,-0.00026735,0.00164563,0.00022544,0
 .00039150,0.00047300,-0.00027118,-0.00029071,-0.00001608,-0.00039419,0
 .00019813,-0.00029978,0.00013271,0.00016236,-0.00022370,0.00006107,-0.
 00171530,0.00006263,-0.00012690,-0.00066428,-0.00028127,0.00202270,-0.
 08305937,-0.04808860,-0.00566344,0.02242923,0.00039749,-0.01840733,-0.
 76233491,-0.12159556,0.21851602,-0.00965332,-0.00480094,0.00238016,0.8
 7059551,0.00018609,0.00055051,-0.00043339,0.00210119,0.00136828,-0.002
 25376,0.00062691,0.00018661,-0.00159560,0.00665414,0.01734904,-0.00268
 411,-0.00063951,-0.00039744,0.00056465,0.00041162,0.00007727,-0.000192
 34,-0.00007474,0.00166868,0.00006274,0.00067812,-0.00027372,0.00004745
 ,-0.00016094,0.00023177,-0.00042881,0.00015686,-0.00003656,0.00012015,
 -0.00000707,-0.00005395,0.00007143,0.00131973,0.00031491,0.00123055,0.
 00007398,-0.00041219,0.00066711,-0.06163599,-0.00636204,0.00677420,0.0
 1092265,0.00207391,-0.01631429,-0.12726600,-0.10557528,0.02872956,-0.0
 0559443,-0.00293724,0.00263822,0.17224970,0.09224510,0.00010334,-0.001
 45575,0.00244560,-0.00113536,-0.00339624,-0.00481015,0.00102928,0.0002
 7185,0.00053362,0.04100725,0.00433875,0.00172778,0.00250111,0.00065481
 ,-0.00059737,-0.00096564,-0.00049983,-0.00151329,0.00005416,-0.0002475
 2,-0.00044412,-0.00008577,-0.00016470,0.00011286,0.00007450,-0.0004308
 9,0.00053892,0.00004991,0.00017472,-0.00000365,-0.00022140,0.00044172,
 -0.00004251,0.00117633,0.00122556,0.00065217,-0.00195910,0.00081004,0.
 00144951,-0.02852729,-0.00206840,0.03092692,0.00552441,-0.00447594,-0.
 00672680,0.21455236,0.02271536,-0.16249974,-0.00370437,-0.00073119,0.0
 0136247,-0.22997216,-0.01699709,0.13683085,-0.18634636,-0.08207036,-0.
 00799975,-0.00563555,0.00103117,0.00001953,-0.00184929,0.00083014,-0.0
 0135867,-0.00098772,0.00008845,-0.00020777,-0.01674910,-0.01209999,0.0
 0441497,0.00545369,-0.00178255,0.00129208,0.00018464,-0.00030173,-0.00
 003523,-0.00005856,-0.00026748,-0.00017933,0.00008985,0.00019263,-0.00
 009238,-0.00069509,0.00227061,-0.00153010,-0.00018090,-0.00107508,0.00
 134242,0.00032856,-0.00088853,0.00030130,-0.00028978,0.00013041,0.0000
 5476,-0.00144580,-0.00055034,0.00039768,-0.00120123,-0.00221169,-0.002
 53650,0.00075441,0.00037516,0.00011033,0.00035096,0.00091692,0.0002464
 3,-0.00076160,-0.00020685,0.00035072,0.51326385,-0.08559907,-0.1283866
 9,-0.01123236,0.00227597,0.00157287,-0.00037682,0.00184702,-0.00082821
 ,-0.00045090,0.00070693,0.00004455,0.00044653,-0.01371128,-0.00282588,
 -0.00120079,-0.00238132,0.00550201,0.00164705,-0.00026070,0.00051244,-
 0.00016380,-0.00000180,-0.00008484,0.00042626,-0.00038280,-0.00035005,
 -0.00004624,0.00314872,-0.00248945,-0.00047605,-0.01362045,-0.00460735
 ,0.00098440,0.00082058,0.00002997,0.00007756,0.00029712,-0.00018627,-0
 .00009683,0.00019181,-0.00025713,-0.00005674,0.00121156,0.00138564,0.0
 0108879,-0.00034209,0.00034319,0.00046437,0.00056735,-0.00088873,-0.00
 045864,0.00038677,0.00000135,-0.00031094,-0.01386885,0.55910966,-0.012
 99363,-0.01216344,-0.09105753,-0.00061103,-0.00067369,0.00003720,-0.00
 061332,-0.00058754,-0.00056260,0.00020331,-0.00010807,-0.00014653,0.02
 694755,0.01350285,0.00629001,0.00209269,-0.00116950,-0.00466747,-0.000
 11183,0.00020167,0.00045569,0.00007925,0.00035579,0.00050258,0.0010834
 2,0.00073721,0.00009643,0.00005266,0.00226241,0.00109332,-0.02288419,-
 0.01215274,0.00124461,-0.00071754,-0.00011106,-0.00034433,0.00003522,-
 0.00007650,0.00000797,-0.00037428,-0.00028410,-0.00003154,0.00048056,0
 .00073279,0.00077621,0.00016501,0.00036378,0.00027717,-0.00053865,-0.0
 0025421,-0.00103775,-0.00003685,-0.00007880,-0.00004716,-0.00994781,0.
 00643977,0.59685975,-0.00428743,-0.01602392,0.02518562,-0.00008920,-0.
 00002487,0.00097523,0.00006871,0.00009542,-0.00014374,-0.00012969,-0.0
 0026997,-0.00014645,-0.00372020,-0.00306313,-0.00196970,-0.00078625,0.
 00064845,0.00109843,-0.00001133,-0.00000572,-0.00005493,0.00001768,-0.
 00004146,0.00001660,-0.00035702,-0.00013055,-0.00001753,0.00022062,-0.
 00029662,-0.00009655,0.00069610,0.00072439,-0.00041774,-0.00057086,0.0
 0002066,-0.00062976,-0.00000838,0.00002216,0.00002396,0.00052161,0.000
 16316,-0.00013500,-0.00101350,-0.00067994,-0.00008875,-0.00022396,-0.0
 0007279,-0.00009614,0.00079876,0.00025216,-0.00015389,0.00016996,0.000
 04742,-0.00004529,-0.04555470,-0.01738208,0.02026289,0.05208259,0.0005
 5114,-0.00877973,0.01277863,0.00110618,0.00045240,0.00073313,-0.000365
 41,0.00047828,-0.00057914,-0.00033288,-0.00108475,0.00002845,-0.002983
 47,-0.00152815,-0.00112715,0.00050533,0.00101741,0.00106979,0.00005335
 ,-0.00008978,-0.00003897,0.00000945,-0.00012312,0.00001265,-0.00014528
 ,-0.00016478,-0.00000489,0.00005930,-0.00015741,0.00005854,0.00016618,
 0.00032316,0.00002904,-0.00035431,0.00047872,-0.00017944,-0.00007748,0
 .00013230,-0.00000027,-0.00026041,-0.00010897,-0.00006454,0.00021330,0
 .00018665,-0.00039675,0.00021489,0.00006761,-0.00005216,-0.00015217,-0
 .00006383,0.00026165,-0.00017505,-0.00003065,0.00003618,-0.01885575,-0
 .14334293,0.13142549,0.02191667,0.15059234,0.00083911,-0.00363481,0.00
 372798,-0.00083945,-0.00025066,0.00004471,0.00016586,-0.00009019,0.000
 04857,0.00000398,0.00049614,-0.00009054,-0.00092285,0.00046285,0.00031
 462,-0.00007333,0.00009504,0.00025089,0.00001591,0.00002846,0.00000446
 ,-0.00002032,-0.00002084,-0.00000865,0.00000216,-0.00004819,0.00000854
 ,-0.00027428,0.00006263,0.00033821,0.00047346,-0.00000322,0.00051429,0
 .00013651,-0.00028370,0.00018631,-0.00000796,-0.00006615,0.00001098,-0
 .00063913,-0.00047483,0.00014598,0.00107134,0.00080602,-0.00013328,0.0
 0014510,0.00027960,0.00018542,-0.00088393,-0.00031665,0.00016503,-0.00
 015896,-0.00010105,0.00003042,0.02111389,0.13120451,-0.22744122,-0.022
 60225,-0.14342518,0.23853419,-0.02243502,0.01396860,0.00102965,0.00024
 050,-0.00077421,0.00081363,-0.00061176,0.00034203,0.00013659,-0.000387
 94,-0.00016100,-0.00001488,0.00031901,-0.00073471,-0.00124190,0.000207
 34,-0.00140357,-0.00026472,0.00007182,-0.00017721,0.00004014,0.0000083
 3,0.00002038,-0.00005844,-0.00004854,0.00007250,0.00000207,-0.00051077
 ,0.00079146,-0.00000683,0.00049704,-0.00053030,-0.00025706,0.00006535,
 -0.00004847,0.00000520,-0.00010851,0.00007297,0.00005748,-0.00010505,0
 .00010150,0.00008707,-0.00020358,-0.00104618,-0.00068324,0.00024407,-0
 .00013440,-0.00024425,0.00051158,0.00034518,0.00024168,-0.00025272,0.0
 0000652,0.00015710,-0.21280065,0.13441235,-0.00775638,0.00332584,-0.00
 310352,0.00039606,0.23096391,-0.01498022,0.01231897,0.00001684,-0.0001
 5827,0.00035680,0.00071607,-0.00087282,0.00036608,-0.00059445,-0.00033
 401,-0.00069062,0.00004943,-0.00128076,-0.00078564,0.00070369,0.001253
 04,-0.00014788,0.00009433,0.00008087,-0.00019979,0.00002243,0.00000096
 ,-0.00009038,-0.00004340,0.00002529,0.00007307,0.00001745,-0.00006936,
 0.00024309,0.00008111,0.00088095,0.00011676,-0.00020963,-0.00010080,-0
 .00000131,-0.00014783,-0.00009449,0.00011327,0.00001893,0.00035062,0.0
 0049061,-0.00003879,-0.00143533,-0.00176791,-0.00092848,-0.00009051,-0
 .00024439,-0.00026164,0.00155054,0.00044432,0.00046660,-0.00000321,0.0
 0005489,0.00010127,0.12885658,-0.14515256,0.00372978,0.01418328,-0.010
 37350,-0.00127101,-0.14020413,0.15405988,0.00030850,0.00120985,-0.0008
 1905,-0.00126909,-0.00020855,-0.00043194,0.00010107,-0.00039480,0.0005
 6147,0.00024077,0.00094585,-0.00009183,0.00078917,0.00118509,-0.000098
 24,-0.00081492,-0.00001202,-0.00048701,0.00002709,-0.00012110,0.000012
 90,-0.00001689,0.00015639,-0.00007136,0.00001340,-0.00002475,0.0000001
 8,0.00020155,-0.00018355,-0.00007343,0.00020673,-0.00026812,-0.0000174
 0,0.00018115,-0.00023373,0.00030816,-0.00000629,-0.00008582,0.00003685
 ,0.00013709,0.00018304,0.00005253,-0.00027275,-0.00047942,-0.00021640,
 -0.00009693,-0.00018256,-0.00008871,0.00023299,0.00018953,0.00038099,0
 .00003036,0.00004797,0.00003183,-0.00834111,0.00396697,-0.04418763,-0.
 02085868,0.01454029,0.00001074,0.00800795,-0.00577641,0.04225756,-0.00
 083264,-0.01675892,-0.02578019,0.00059454,0.00037957,0.00036025,-0.000
 17595,0.00000152,-0.00051124,-0.00017333,-0.00033584,0.00030343,0.0007
 9387,0.00064255,-0.00134372,0.00017500,0.00056760,0.00013074,-0.000043
 15,0.00002914,0.00011536,0.00001802,0.00005462,0.00020116,0.00002436,-
 0.00002185,0.00003571,0.00011631,-0.00010072,0.00081722,-0.00418652,-0
 .00309692,0.00023923,0.00001045,-0.00004195,0.00005808,0.00002010,0.00
 004117,0.00000807,0.00064901,0.00051767,0.00020728,-0.00247514,-0.0015
 6209,-0.00135225,-0.00039826,-0.00047076,-0.00032026,0.00135891,0.0007
 1486,0.00097059,0.00019659,0.00015062,0.00003591,-0.04586965,0.0016842
 5,0.00518293,-0.00114936,0.00200996,0.00205910,0.00100976,0.01244175,0
 .02119884,0.05033708,0.00130600,-0.00979026,-0.01391809,-0.00033514,0.
 00004608,0.00012036,0.00007096,-0.00020772,0.00010477,0.00026704,0.000
 16998,-0.00011012,0.00080464,0.00105511,-0.00099876,-0.00010528,0.0001
 0621,-0.00000684,0.00000421,0.00005552,0.00006812,0.00005133,-0.000003
 10,0.00010081,0.00001939,-0.00000903,0.00001144,-0.00044354,-0.0002642
 8,0.00078777,-0.00248733,-0.00062399,0.00051407,-0.00013904,-0.0000551
 7,0.00001512,-0.00000174,-0.00004909,0.00002177,-0.00039534,-0.0002398
 1,0.00001477,0.00096259,0.00073004,0.00023778,0.00019995,0.00015253,0.
 00009716,-0.00039889,-0.00065961,-0.00023979,-0.00012213,-0.00004325,0
 .00000823,-0.00051288,-0.13910161,-0.13209189,-0.00008273,0.01211871,0
 .01655122,-0.00181580,-0.00918376,-0.01445415,0.00315374,0.14579649,-0
 .00128313,0.00007743,-0.00046299,0.00013374,-0.00022052,-0.00007843,0.
 00006178,0.00003029,0.00005081,-0.00005628,0.00011014,0.00017318,0.001
 26190,0.00177340,0.00104223,-0.00043071,0.00023553,0.00000976,0.000024
 15,-0.00009225,0.00003475,0.00004551,0.00010853,-0.00004205,-0.0000446
 7,-0.00006325,-0.00000055,-0.00008220,-0.00044643,0.00013772,0.0003088
 2,-0.00040806,0.00089875,0.00014026,-0.00002828,0.00005208,0.00001528,
 0.00001884,0.00000418,0.00078610,0.00066735,-0.00004139,-0.00147560,-0
 .00122455,-0.00032497,-0.00032003,-0.00044491,-0.00036738,0.00130775,0
 .00034306,0.00051471,0.00019229,0.00012520,0.00004184,0.00258453,-0.13
 187611,-0.23811719,-0.00010632,-0.01510534,-0.01684764,-0.00044691,0.0
 0325371,0.00292979,-0.00261625,0.14316624,0.25039277\\0.00000014,0.000
 00029,-0.00000071,-0.00000050,0.00000122,0.00000114,0.00000023,0.00000
 022,-0.00000249,0.00000009,0.00000113,0.00000029,0.00000011,-0.0000010
 9,-0.00000106,0.00000031,-0.00000137,-0.00000187,0.00000031,0.00000002
 ,-0.00000289,0.00000028,0.00000136,-0.00000260,0.00000019,-0.00000265,
 -0.00000218,0.00000006,-0.00000262,-0.00000068,0.00000009,0.00000154,-
 0.00000127,-0.00000012,0.00000252,0.00000149,0.00000007,0.00000223,-0.
 00000018,0.,-0.00000141,0.00000212,-0.00000056,-0.00000053,0.00000243,
 -0.00000019,-0.00000046,0.00000104,0.00000004,-0.00000074,0.00000363,-
 0.00000008,-0.00000108,0.00000069,0.00000016,0.00000017,0.00000060,-0.
 00000015,0.00000163,0.00000156,0.00000002,0.00000028,-0.00000051,-0.00
 000051,-0.00000067,0.00000143\\\@
 The archive entry for this job was punched.


 HICKORY, DICKORY, DOCK
 TWO MICE RAN UP THE CLOCK
 THE CLOCK STRUCK ONE...
 THE OTHER ESCAPED WITH MINOR INJURIES.
 Job cpu time:       0 days  3 hours 37 minutes 33.8 seconds.
 Elapsed time:       0 days  0 hours 36 minutes 57.5 seconds.
 File lengths (MBytes):  RWF=      6 Int=      0 D2E=      0 Chk=      2 Scr=      1
 Normal termination of Gaussian 16 at Wed Jan 17 20:42:37 2024.
