Unloading slurm/anatra/current
  ERROR: No such file or directory on
    '/cm/local/modulefiles/slurm/anatra/current'
environment: line 0: unalias: gv: not found
environment: line 0: unalias: sl: not found
 Entering Gaussian System, Link 0=g16
 Initial command:
 /apps/gaussian/g16/C.01/g16/l1.exe "/local/jobs/1158120/Gau-1329441.inp" -scrdir="/local/jobs/1158120/"
 Entering Link 1 = /apps/gaussian/g16/C.01/g16/l1.exe PID=   1329444.
  
 Copyright (c) 1988-2019, Gaussian, Inc.  All Rights Reserved.
  
 This is part of the Gaussian(R) 16 program.  It is based on
 the Gaussian(R) 09 system (copyright 2009, Gaussian, Inc.),
 the Gaussian(R) 03 system (copyright 2003, Gaussian, Inc.),
 the Gaussian(R) 98 system (copyright 1998, Gaussian, Inc.),
 the Gaussian(R) 94 system (copyright 1995, Gaussian, Inc.),
 the Gaussian 92(TM) system (copyright 1992, Gaussian, Inc.),
 the Gaussian 90(TM) system (copyright 1990, Gaussian, Inc.),
 the Gaussian 88(TM) system (copyright 1988, Gaussian, Inc.),
 the Gaussian 86(TM) system (copyright 1986, Carnegie Mellon
 University), and the Gaussian 82(TM) system (copyright 1983,
 Carnegie Mellon University). Gaussian is a federally registered
 trademark of Gaussian, Inc.
  
 This software contains proprietary and confidential information,
 including trade secrets, belonging to Gaussian, Inc.
  
 This software is provided under written license and may be
 used, copied, transmitted, or stored only in accord with that
 written license.
  
 The following legend is applicable only to US Government
 contracts under FAR:
  
                    RESTRICTED RIGHTS LEGEND
  
 Use, reproduction and disclosure by the US Government is
 subject to restrictions as set forth in subparagraphs (a)
 and (c) of the Commercial Computer Software - Restricted
 Rights clause in FAR 52.227-19.
  
 Gaussian, Inc.
 340 Quinnipiac St., Bldg. 40, Wallingford CT 06492
  
  
 ---------------------------------------------------------------
 Warning -- This program may not be used in any manner that
 competes with the business of Gaussian, Inc. or will provide
 assistance to any competitor of Gaussian, Inc.  The licensee
 of this program is prohibited from giving any competitor of
 Gaussian, Inc. access to this program.  By using this program,
 the user acknowledges that Gaussian, Inc. is engaged in the
 business of creating and licensing software in the field of
 computational chemistry and represents and warrants to the
 licensee that it is not a competitor of Gaussian, Inc. and that
 it will not use this program in any manner prohibited above.
 ---------------------------------------------------------------
  

 Cite this work as:
 Gaussian 16, Revision C.01,
 M. J. Frisch, G. W. Trucks, H. B. Schlegel, G. E. Scuseria, 
 M. A. Robb, J. R. Cheeseman, G. Scalmani, V. Barone, 
 G. A. Petersson, H. Nakatsuji, X. Li, M. Caricato, A. V. Marenich, 
 J. Bloino, B. G. Janesko, R. Gomperts, B. Mennucci, H. P. Hratchian, 
 J. V. Ortiz, A. F. Izmaylov, J. L. Sonnenberg, D. Williams-Young, 
 F. Ding, F. Lipparini, F. Egidi, J. Goings, B. Peng, A. Petrone, 
 T. Henderson, D. Ranasinghe, V. G. Zakrzewski, J. Gao, N. Rega, 
 G. Zheng, W. Liang, M. Hada, M. Ehara, K. Toyota, R. Fukuda, 
 J. Hasegawa, M. Ishida, T. Nakajima, Y. Honda, O. Kitao, H. Nakai, 
 T. Vreven, K. Throssell, J. A. Montgomery, Jr., J. E. Peralta, 
 F. Ogliaro, M. J. Bearpark, J. J. Heyd, E. N. Brothers, K. N. Kudin, 
 V. N. Staroverov, T. A. Keith, R. Kobayashi, J. Normand, 
 K. Raghavachari, A. P. Rendell, J. C. Burant, S. S. Iyengar, 
 J. Tomasi, M. Cossi, J. M. Millam, M. Klene, C. Adamo, R. Cammi, 
 J. W. Ochterski, R. L. Martin, K. Morokuma, O. Farkas, 
 J. B. Foresman, and D. J. Fox, Gaussian, Inc., Wallingford CT, 2019.
 
 ******************************************
 Gaussian 16:  ES64L-G16RevC.01  3-Jul-2019
                17-Jan-2024 
 ******************************************
 %nprocshared=12
 Will use up to   12 processors via shared memory.
 %mem=48GB
 ----------------------------------------------------------------------
 # external="~/scripts/MiMe -H 'wb97xd def2svp' -EF 'wb97xd def2svp' -c
  12 -m 48GB" opt=(calcall,ts,noeigen,maxcycles=50,maxstep=10,nomicro)
 ----------------------------------------------------------------------
 1/5=1,6=50,8=10,10=4,11=1,18=20,26=1,38=1/1,3;
 2/9=110,12=2,17=6,18=5,40=1/2;
 3/11=9,25=1,30=1,41=9900000,43=2,71=2,140=1/1;
 4/20=17,22=2,24=3,113=1,114=1/2;
 6/7=2,8=2,9=2,10=2,18=1/1;
 7/25=1,44=-1/16;
 1/5=1,6=50,8=10,10=4,11=1,18=20,26=1/3(3);
 2/9=110/2;
 7/8=1,9=1,25=1,44=-1/16;
 99//99;
 2/9=110/2;
 3/11=9,25=1,30=1,41=9900000,43=2,71=2,140=1/1;
 4/16=2,20=17,22=2,24=3,113=1,114=1/2;
 7/25=1,44=-1/16;
 1/5=1,6=50,8=10,10=4,11=1,18=20,26=1/3(-4);
 2/9=110/2;
 6/7=2,8=2,9=2,10=2,18=1/1;
 7/8=1,9=1,25=1,44=-1/16;
 99//99;
 -----
 *****
 -----
 Symbolic Z-matrix:
 Charge =  0 Multiplicity = 1
 C                    -0.2575   -1.9445    0.4924 
 C                     0.3286   -0.0889   -0.7909 
 C                    -2.0352   -0.7041    0.0388 
 C                    -1.115     0.3285   -0.9316 
 C                    -1.0356   -2.7139   -0.451 
 C                    -2.1494   -2.0106   -0.6995 
 H                    -2.9264   -2.2819   -1.3967 
 C                    -3.2574    0.1226    0.3831 
 H                    -3.9683    0.1197   -0.4524 
 H                    -3.7878   -0.245     1.2681 
 C                    -2.7195    1.5396    0.6015 
 H                    -3.4906    2.2903    0.4124 
 H                    -2.3119    1.6634    1.6093 
 C                    -1.5872    1.6666   -0.3986 
 O                    -1.1174    2.7394   -0.7623 
 H                    -0.7421   -3.6634   -0.8684 
 H                    -1.4561    0.2362   -1.9699 
 H                     0.7903   -0.6172   -1.6179 
 C                     1.2158    0.5654    0.1836 
 O                     0.8153    1.1752    1.1624 
 N                    -1.1786   -1.0708    1.1797 
 H                    -0.739    -0.2942    1.6798 
 H                     0.6718   -2.2973    0.9293 
 Br                    3.0542    0.2998    0.0066 
 

 GradGradGradGradGradGradGradGradGradGradGradGradGradGradGradGradGradGrad
 Berny optimization.
 Initialization pass.
                           ----------------------------
                           !    Initial Parameters    !
                           ! (Angstroms and Degrees)  !
 --------------------------                            --------------------------
 ! Name  Definition              Value          Derivative Info.                !
 --------------------------------------------------------------------------------
 ! R1    R(1,5)                  1.4448         calculate D2E/DX2 analytically  !
 ! R2    R(1,21)                 1.4437         calculate D2E/DX2 analytically  !
 ! R3    R(1,23)                 1.0858         calculate D2E/DX2 analytically  !
 ! R4    R(2,4)                  1.5093         calculate D2E/DX2 analytically  !
 ! R5    R(2,18)                 1.0845         calculate D2E/DX2 analytically  !
 ! R6    R(2,19)                 1.4714         calculate D2E/DX2 analytically  !
 ! R7    R(3,4)                  1.6896         calculate D2E/DX2 analytically  !
 ! R8    R(3,6)                  1.505          calculate D2E/DX2 analytically  !
 ! R9    R(3,8)                  1.5152         calculate D2E/DX2 analytically  !
 ! R10   R(3,21)                 1.4731         calculate D2E/DX2 analytically  !
 ! R11   R(4,14)                 1.5158         calculate D2E/DX2 analytically  !
 ! R12   R(4,17)                 1.0968         calculate D2E/DX2 analytically  !
 ! R13   R(5,6)                  1.3405         calculate D2E/DX2 analytically  !
 ! R14   R(5,16)                 1.0779         calculate D2E/DX2 analytically  !
 ! R15   R(6,7)                  1.0786         calculate D2E/DX2 analytically  !
 ! R16   R(8,9)                  1.097          calculate D2E/DX2 analytically  !
 ! R17   R(8,10)                 1.0953         calculate D2E/DX2 analytically  !
 ! R18   R(8,11)                 1.5313         calculate D2E/DX2 analytically  !
 ! R19   R(11,12)                1.0927         calculate D2E/DX2 analytically  !
 ! R20   R(11,13)                1.0941         calculate D2E/DX2 analytically  !
 ! R21   R(11,14)                1.5161         calculate D2E/DX2 analytically  !
 ! R22   R(14,15)                1.2263         calculate D2E/DX2 analytically  !
 ! R23   R(19,20)                1.2208         calculate D2E/DX2 analytically  !
 ! R24   R(19,24)                1.8659         calculate D2E/DX2 analytically  !
 ! R25   R(21,22)                1.023          calculate D2E/DX2 analytically  !
 ! A1    A(5,1,21)             106.8303         calculate D2E/DX2 analytically  !
 ! A2    A(5,1,23)             123.411          calculate D2E/DX2 analytically  !
 ! A3    A(21,1,23)            123.446          calculate D2E/DX2 analytically  !
 ! A4    A(4,2,18)             118.0871         calculate D2E/DX2 analytically  !
 ! A5    A(4,2,19)             121.0305         calculate D2E/DX2 analytically  !
 ! A6    A(18,2,19)            117.7081         calculate D2E/DX2 analytically  !
 ! A7    A(4,3,6)              106.8651         calculate D2E/DX2 analytically  !
 ! A8    A(4,3,8)              103.6727         calculate D2E/DX2 analytically  !
 ! A9    A(4,3,21)             106.2761         calculate D2E/DX2 analytically  !
 ! A10   A(6,3,8)              121.595          calculate D2E/DX2 analytically  !
 ! A11   A(6,3,21)             102.0033         calculate D2E/DX2 analytically  !
 ! A12   A(8,3,21)             115.3978         calculate D2E/DX2 analytically  !
 ! A13   A(2,4,3)              107.3594         calculate D2E/DX2 analytically  !
 ! A14   A(2,4,14)             120.6183         calculate D2E/DX2 analytically  !
 ! A15   A(2,4,17)             111.2501         calculate D2E/DX2 analytically  !
 ! A16   A(3,4,14)              99.6654         calculate D2E/DX2 analytically  !
 ! A17   A(3,4,17)             108.8386         calculate D2E/DX2 analytically  !
 ! A18   A(14,4,17)            108.0768         calculate D2E/DX2 analytically  !
 ! A19   A(1,5,6)              106.8057         calculate D2E/DX2 analytically  !
 ! A20   A(1,5,16)             125.1203         calculate D2E/DX2 analytically  !
 ! A21   A(6,5,16)             128.0684         calculate D2E/DX2 analytically  !
 ! A22   A(3,6,5)              107.5457         calculate D2E/DX2 analytically  !
 ! A23   A(3,6,7)              126.164          calculate D2E/DX2 analytically  !
 ! A24   A(5,6,7)              125.9021         calculate D2E/DX2 analytically  !
 ! A25   A(3,8,9)              110.3785         calculate D2E/DX2 analytically  !
 ! A26   A(3,8,10)             113.0233         calculate D2E/DX2 analytically  !
 ! A27   A(3,8,11)             104.7112         calculate D2E/DX2 analytically  !
 ! A28   A(9,8,10)             107.4987         calculate D2E/DX2 analytically  !
 ! A29   A(9,8,11)             109.7977         calculate D2E/DX2 analytically  !
 ! A30   A(10,8,11)            111.4337         calculate D2E/DX2 analytically  !
 ! A31   A(8,11,12)            111.2954         calculate D2E/DX2 analytically  !
 ! A32   A(8,11,13)            111.5264         calculate D2E/DX2 analytically  !
 ! A33   A(8,11,14)            104.2281         calculate D2E/DX2 analytically  !
 ! A34   A(12,11,13)           110.1556         calculate D2E/DX2 analytically  !
 ! A35   A(12,11,14)           110.8152         calculate D2E/DX2 analytically  !
 ! A36   A(13,11,14)           108.6573         calculate D2E/DX2 analytically  !
 ! A37   A(4,14,11)            112.9969         calculate D2E/DX2 analytically  !
 ! A38   A(4,14,15)            123.2733         calculate D2E/DX2 analytically  !
 ! A39   A(11,14,15)           123.7139         calculate D2E/DX2 analytically  !
 ! A40   A(2,19,20)            123.7344         calculate D2E/DX2 analytically  !
 ! A41   A(2,19,24)            117.9025         calculate D2E/DX2 analytically  !
 ! A42   A(20,19,24)           118.0599         calculate D2E/DX2 analytically  !
 ! A43   A(1,21,3)              98.7979         calculate D2E/DX2 analytically  !
 ! A44   A(1,21,22)            114.7088         calculate D2E/DX2 analytically  !
 ! A45   A(3,21,22)            116.075          calculate D2E/DX2 analytically  !
 ! D1    D(21,1,5,6)            23.0539         calculate D2E/DX2 analytically  !
 ! D2    D(21,1,5,16)         -157.7473         calculate D2E/DX2 analytically  !
 ! D3    D(23,1,5,6)           175.8461         calculate D2E/DX2 analytically  !
 ! D4    D(23,1,5,16)           -4.9552         calculate D2E/DX2 analytically  !
 ! D5    D(5,1,21,3)           -39.4293         calculate D2E/DX2 analytically  !
 ! D6    D(5,1,21,22)         -163.542          calculate D2E/DX2 analytically  !
 ! D7    D(23,1,21,3)          167.7904         calculate D2E/DX2 analytically  !
 ! D8    D(23,1,21,22)          43.6777         calculate D2E/DX2 analytically  !
 ! D9    D(18,2,4,3)           105.9672         calculate D2E/DX2 analytically  !
 ! D10   D(18,2,4,14)         -141.115          calculate D2E/DX2 analytically  !
 ! D11   D(18,2,4,17)          -13.0164         calculate D2E/DX2 analytically  !
 ! D12   D(19,2,4,3)           -94.6272         calculate D2E/DX2 analytically  !
 ! D13   D(19,2,4,14)           18.2907         calculate D2E/DX2 analytically  !
 ! D14   D(19,2,4,17)          146.3893         calculate D2E/DX2 analytically  !
 ! D15   D(4,2,19,20)           21.4039         calculate D2E/DX2 analytically  !
 ! D16   D(4,2,19,24)         -165.0544         calculate D2E/DX2 analytically  !
 ! D17   D(18,2,19,20)        -179.1152         calculate D2E/DX2 analytically  !
 ! D18   D(18,2,19,24)          -5.5735         calculate D2E/DX2 analytically  !
 ! D19   D(6,3,4,2)            -76.816          calculate D2E/DX2 analytically  !
 ! D20   D(6,3,4,14)           156.7037         calculate D2E/DX2 analytically  !
 ! D21   D(6,3,4,17)            43.7068         calculate D2E/DX2 analytically  !
 ! D22   D(8,3,4,2)            153.6026         calculate D2E/DX2 analytically  !
 ! D23   D(8,3,4,14)            27.1224         calculate D2E/DX2 analytically  !
 ! D24   D(8,3,4,17)           -85.8745         calculate D2E/DX2 analytically  !
 ! D25   D(21,3,4,2)            31.5387         calculate D2E/DX2 analytically  !
 ! D26   D(21,3,4,14)          -94.9415         calculate D2E/DX2 analytically  !
 ! D27   D(21,3,4,17)          152.0616         calculate D2E/DX2 analytically  !
 ! D28   D(4,3,6,5)             82.8945         calculate D2E/DX2 analytically  !
 ! D29   D(4,3,6,7)            -90.2677         calculate D2E/DX2 analytically  !
 ! D30   D(8,3,6,5)           -158.6517         calculate D2E/DX2 analytically  !
 ! D31   D(8,3,6,7)             28.1861         calculate D2E/DX2 analytically  !
 ! D32   D(21,3,6,5)           -28.4432         calculate D2E/DX2 analytically  !
 ! D33   D(21,3,6,7)           158.3945         calculate D2E/DX2 analytically  !
 ! D34   D(4,3,8,9)             79.5515         calculate D2E/DX2 analytically  !
 ! D35   D(4,3,8,10)          -160.0256         calculate D2E/DX2 analytically  !
 ! D36   D(4,3,8,11)           -38.5536         calculate D2E/DX2 analytically  !
 ! D37   D(6,3,8,9)            -40.4598         calculate D2E/DX2 analytically  !
 ! D38   D(6,3,8,10)            79.963          calculate D2E/DX2 analytically  !
 ! D39   D(6,3,8,11)          -158.5649         calculate D2E/DX2 analytically  !
 ! D40   D(21,3,8,9)          -164.6758         calculate D2E/DX2 analytically  !
 ! D41   D(21,3,8,10)          -44.2529         calculate D2E/DX2 analytically  !
 ! D42   D(21,3,8,11)           77.2191         calculate D2E/DX2 analytically  !
 ! D43   D(4,3,21,1)           -71.9506         calculate D2E/DX2 analytically  !
 ! D44   D(4,3,21,22)           51.187          calculate D2E/DX2 analytically  !
 ! D45   D(6,3,21,1)            39.8308         calculate D2E/DX2 analytically  !
 ! D46   D(6,3,21,22)          162.9683         calculate D2E/DX2 analytically  !
 ! D47   D(8,3,21,1)           173.7684         calculate D2E/DX2 analytically  !
 ! D48   D(8,3,21,22)          -63.094          calculate D2E/DX2 analytically  !
 ! D49   D(2,4,14,11)         -122.9362         calculate D2E/DX2 analytically  !
 ! D50   D(2,4,14,15)           58.469          calculate D2E/DX2 analytically  !
 ! D51   D(3,4,14,11)           -6.0327         calculate D2E/DX2 analytically  !
 ! D52   D(3,4,14,15)          175.3724         calculate D2E/DX2 analytically  !
 ! D53   D(17,4,14,11)         107.5549         calculate D2E/DX2 analytically  !
 ! D54   D(17,4,14,15)         -71.04           calculate D2E/DX2 analytically  !
 ! D55   D(1,5,6,3)              3.9027         calculate D2E/DX2 analytically  !
 ! D56   D(1,5,6,7)            177.0878         calculate D2E/DX2 analytically  !
 ! D57   D(16,5,6,3)          -175.2648         calculate D2E/DX2 analytically  !
 ! D58   D(16,5,6,7)            -2.0797         calculate D2E/DX2 analytically  !
 ! D59   D(3,8,11,12)          154.3777         calculate D2E/DX2 analytically  !
 ! D60   D(3,8,11,13)          -82.166          calculate D2E/DX2 analytically  !
 ! D61   D(3,8,11,14)           34.8856         calculate D2E/DX2 analytically  !
 ! D62   D(9,8,11,12)           35.8781         calculate D2E/DX2 analytically  !
 ! D63   D(9,8,11,13)          159.3345         calculate D2E/DX2 analytically  !
 ! D64   D(9,8,11,14)          -83.6139         calculate D2E/DX2 analytically  !
 ! D65   D(10,8,11,12)         -83.1103         calculate D2E/DX2 analytically  !
 ! D66   D(10,8,11,13)          40.346          calculate D2E/DX2 analytically  !
 ! D67   D(10,8,11,14)         157.3976         calculate D2E/DX2 analytically  !
 ! D68   D(8,11,14,4)          -16.9278         calculate D2E/DX2 analytically  !
 ! D69   D(8,11,14,15)         161.6599         calculate D2E/DX2 analytically  !
 ! D70   D(12,11,14,4)        -136.7445         calculate D2E/DX2 analytically  !
 ! D71   D(12,11,14,15)         41.8432         calculate D2E/DX2 analytically  !
 ! D72   D(13,11,14,4)         102.0947         calculate D2E/DX2 analytically  !
 ! D73   D(13,11,14,15)        -79.3176         calculate D2E/DX2 analytically  !
 --------------------------------------------------------------------------------
 Trust Radius=1.00D-01 FncErr=1.00D-07 GrdErr=1.00D-07 EigMax=2.50D+02 EigMin=1.00D-04
 Number of steps in this run=     50 maximum allowed number of steps=    144.
 Search for a saddle point of order  1.
 GradGradGradGradGradGradGradGradGradGradGradGradGradGradGradGradGradGrad

                          Input orientation:                          
 ---------------------------------------------------------------------
 Center     Atomic      Atomic             Coordinates (Angstroms)
 Number     Number       Type             X           Y           Z
 ---------------------------------------------------------------------
      1          6           0       -0.257500   -1.944500    0.492400
      2          6           0        0.328600   -0.088900   -0.790900
      3          6           0       -2.035200   -0.704100    0.038800
      4          6           0       -1.115000    0.328500   -0.931600
      5          6           0       -1.035600   -2.713900   -0.451000
      6          6           0       -2.149400   -2.010600   -0.699500
      7          1           0       -2.926400   -2.281900   -1.396700
      8          6           0       -3.257400    0.122600    0.383100
      9          1           0       -3.968300    0.119700   -0.452400
     10          1           0       -3.787800   -0.245000    1.268100
     11          6           0       -2.719500    1.539600    0.601500
     12          1           0       -3.490600    2.290300    0.412400
     13          1           0       -2.311900    1.663400    1.609300
     14          6           0       -1.587200    1.666600   -0.398600
     15          8           0       -1.117400    2.739400   -0.762300
     16          1           0       -0.742100   -3.663400   -0.868400
     17          1           0       -1.456100    0.236200   -1.969900
     18          1           0        0.790300   -0.617200   -1.617900
     19          6           0        1.215800    0.565400    0.183600
     20          8           0        0.815300    1.175200    1.162400
     21          7           0       -1.178600   -1.070800    1.179700
     22          1           0       -0.739000   -0.294200    1.679800
     23          1           0        0.671800   -2.297300    0.929300
     24         35           0        3.054200    0.299800    0.006600
 ---------------------------------------------------------------------
                    Distance matrix (angstroms):
                    1          2          3          4          5
     1  C    0.000000
     2  C    2.331013   0.000000
     3  C    2.214625   2.579617   0.000000
     4  C    2.815957   1.509305   1.689588   0.000000
     5  C    1.444790   2.977784   2.297477   3.081149   0.000000
     6  C    2.237025   3.137159   1.505015   2.568120   1.340498
     7  H    3.287182   3.971306   2.311785   3.211180   2.157799
     8  C    3.644756   3.779207   1.515173   2.522045   3.698358
     9  H    4.350127   4.315257   2.157962   2.900785   4.077992
    10  H    3.994124   4.605279   2.189420   3.508766   4.077423
    11  C    4.267587   3.725816   2.412278   2.528157   4.694203
    12  H    5.328496   4.657769   3.350253   3.361320   5.640435
    13  H    4.299415   3.975394   2.854486   3.109775   5.003452
    14  C    3.949940   2.627921   2.451987   1.515775   4.415404
    15  O    4.924695   3.176636   3.652644   2.416838   5.462790
    16  H    2.245269   3.732219   3.354486   4.009777   1.077922
    17  H    3.500716   2.163535   2.292247   1.096784   3.344692
    18  H    2.704252   1.084526   3.276531   2.235067   3.015247
    19  C    2.926699   1.471354   3.493079   2.594691   4.028067
    20  O    3.366352   2.377016   3.594384   2.971161   4.599347
    21  N    1.443661   2.668154   1.473053   2.533707   2.319355
    22  H    2.089318   2.699310   2.130970   2.710819   3.237781
    23  H    1.085794   2.820267   3.264832   3.681091   2.234726
    24  Br   4.029918   2.866355   5.187566   4.273555   5.100809
                    6          7          8          9         10
     6  C    0.000000
     7  H    1.078620   0.000000
     8  C    2.636329   3.009796   0.000000
     9  H    2.812052   2.782973   1.097018   0.000000
    10  H    3.110168   3.462966   1.095299   1.767967   0.000000
    11  C    3.823812   4.317346   1.531314   2.164792   2.184129
    12  H    4.640353   4.949361   2.180405   2.384865   2.692266
    13  H    4.342262   4.997903   2.184400   3.062234   2.436532
    14  C    3.732078   4.287227   2.405111   2.839970   3.357789
    15  O    4.861221   5.374793   3.569199   3.884134   4.490012
    16  H    2.177331   2.637956   4.714529   4.989315   5.052364
    17  H    2.672581   2.971728   2.965501   2.937265   4.019082
    18  H    3.380364   4.078482   4.575498   4.954360   5.424622
    19  C    4.328997   5.268993   4.499488   5.241950   5.183522
    20  O    4.733438   5.700952   4.278102   5.157954   4.818368
    21  N    2.314534   3.340570   2.525903   3.444338   2.738190
    22  H    3.255200   4.266207   2.863126   3.891782   3.076865
    23  H    3.270223   4.284572   4.646812   5.411239   4.920849
    24  Br   5.737071   6.663483   6.325302   7.039789   6.978621
                   11         12         13         14         15
    11  C    0.000000
    12  H    1.092659   0.000000
    13  H    1.094132   1.793016   0.000000
    14  C    1.516058   2.160938   2.134681   0.000000
    15  O    2.422023   2.685831   2.865151   1.226332   0.000000
    16  H    5.756902   6.681410   6.080959   5.416992   6.414667
    17  H    3.147559   3.746181   3.947147   2.128900   2.799826
    18  H    4.679340   5.558937   5.023903   3.514960   3.954508
    19  C    4.075573   5.017752   3.960163   3.067313   3.326383
    20  O    3.597528   4.510734   3.196473   2.906923   3.144284
    21  N    3.085916   4.151034   2.990782   3.186117   4.277001
    22  H    2.906533   3.982116   2.512207   2.980592   3.912770
    23  H    5.131293   6.216014   5.005198   4.751726   5.606344
    24  Br   5.935202   6.852822   5.763947   4.855401   4.893373
                   16         17         18         19         20
    16  H    0.000000
    17  H    4.114605   0.000000
    18  H    3.491323   2.428685   0.000000
    19  C    4.777324   3.447461   2.196587   0.000000
    20  O    5.473728   3.981492   3.308080   1.220781   0.000000
    21  N    3.332690   3.421291   3.450925   3.066352   3.003407
    22  H    4.224316   3.757109   3.649372   2.607445   2.200611
    23  H    2.664032   4.399084   3.053687   3.007832   3.483272
    24  Br   5.557380   4.924774   2.933451   1.865901   2.667372
                   21         22         23         24
    21  N    0.000000
    22  H    1.022964   0.000000
    23  H    2.234051   2.562424   0.000000
    24  Br   4.601229   4.188174   3.643094   0.000000
 Stoichiometry    C10H10BrNO2
 Framework group  C1[X(C10H10BrNO2)]
 Deg. of freedom    66
 Full point group                 C1      NOp   1
 Largest Abelian subgroup         C1      NOp   1
 Largest concise Abelian subgroup C1      NOp   1
                         Standard orientation:                         
 ---------------------------------------------------------------------
 Center     Atomic      Atomic             Coordinates (Angstroms)
 Number     Number       Type             X           Y           Z
 ---------------------------------------------------------------------
      1          6           0        0.446932    1.980047    0.519236
      2          6           0       -0.283635    0.206262   -0.804993
      3          6           0        2.115130    0.597992    0.059237
      4          6           0        1.119728   -0.332662   -0.939645
      5          6           0        1.299598    2.695819   -0.401661
      6          6           0        2.350805    1.902822   -0.652763
      7          1           0        3.156296    2.118077   -1.337067
      8          6           0        3.256877   -0.338167    0.399487
      9          1           0        3.974763   -0.381967   -0.428866
     10          1           0        3.807153   -0.034363    1.296470
     11          6           0        2.595422   -1.706673    0.585479
     12          1           0        3.300456   -2.518113    0.389529
     13          1           0        2.167209   -1.812853    1.586720
     14          6           0        1.467778   -1.716303   -0.427811
     15          8           0        0.910672   -2.737292   -0.816532
     16          1           0        1.094478    3.674728   -0.803629
     17          1           0        1.479306   -0.251508   -1.972628
     18          1           0       -0.688271    0.787762   -1.626166
     19          6           0       -1.235331   -0.385931    0.148142
     20          8           0       -0.900463   -1.046045    1.118924
     21          7           0        1.280765    1.017048    1.198584
     22          1           0        0.769695    0.272702    1.679430
     23          1           0       -0.453083    2.404428    0.953773
     24         35           0       -3.041567    0.041978   -0.041572
 ---------------------------------------------------------------------
 Rotational constants (GHZ):           0.9200981           0.3747929           0.2995681
 Standard basis: STO-3G (5D, 7F)
 There are    94 symmetry adapted cartesian basis functions of A   symmetry.
 There are    93 symmetry adapted basis functions of A   symmetry.
    93 basis functions,   282 primitive gaussians,    94 cartesian basis functions
    64 alpha electrons       64 beta electrons
       nuclear repulsion energy      1228.8323260561 Hartrees.
 NAtoms=   24 NActive=   24 NUniq=   24 SFac= 1.00D+00 NAtFMM=   60 NAOKFM=F Big=F
 Integral buffers will be    131072 words long.
 Raffenetti 1 integral format.
 Two-electron integral symmetry is turned on.
 External calculation of energy, first and second derivatives.
 Running external command "~/scripts/MiMe -H 'wb97xd def2svp' -EF 'wb97xd def2svp' -c 12 -m 48GB R"
         input file       "/local/jobs/1158120/Gau-1329444.EIn"
         output file      "/local/jobs/1158120/Gau-1329444.EOu"
         message file     "/local/jobs/1158120/Gau-1329444.EMs"
         fchk file        "/local/jobs/1158120/Gau-1329444.EFC"
         mat. el file     "/local/jobs/1158120/Gau-1329444.EUF"
 Read checkpoint file Gau-1329444_H.chk type G16
 Write formatted file Gau-1329444_H.fchk

deriv: 2

spelevel: wb97xd def2svp
gradlevel: wb97xd def2svp
hesslevel: wb97xd def2svp

runspe: False
runforce: False
runfreq: True

Running Gaussian ...

Parsing files ...
SPE file: Gau-1329444_H.out
FORCE file: Gau-1329444_H.out
HESS file: Gau-1329444_H.out

 ExternalExternalExternalExternalExternalExternalExternalExternalExternalExternal
 Output from external command:
 "~/scripts/MiMe -H 'wb97xd def2svp' -EF 'wb97xd def2svp' -c 12 -m 48GB R /local/jobs/1158120/Gau-1329444.EIn /local/jobs/1158120/Gau-1329444.EOu /local/jobs/1158120/Gau-1329444.EMs /local/jobs/1158120/Gau-1329444.EFC /local/jobs/1158120/Gau-1329444.EUF"
  
 --------------------------------------------------
 Hessian calculation at wb97xd def2svp
 ExternalExternalExternalExternalExternalExternalExternalExternalExternalExternal

 Recovered energy= -3165.49200118     dipole=      4.078200000000      4.589500000000     -0.817600000000
 Energy=    -3165.49200     NIter=   0.
 Dipole moment=       4.078200       4.589500      -0.817600
 ***** Axes restored to original set *****
 -------------------------------------------------------------------
 Center     Atomic                   Forces (Hartrees/Bohr)
 Number     Number              X              Y              Z
 -------------------------------------------------------------------
      1        6          -0.020418610    0.038342047    0.018370883
      2        6          -0.007955297   -0.005102196    0.006516904
      3        6          -0.004928871   -0.017152736    0.004066932
      4        6           0.018940459   -0.023022672    0.021107038
      5        6           0.008658751    0.007330187    0.005560014
      6        6          -0.000175980    0.018211766    0.007755130
      7        1          -0.007401127    0.001833437   -0.005234286
      8        6           0.000639058    0.005504250    0.007668460
      9        1          -0.000175561   -0.001635434   -0.003139095
     10        1          -0.000168921   -0.004801504    0.000376207
     11        6          -0.005569663   -0.011659667   -0.012574993
     12        1           0.001755111    0.006989657    0.002741257
     13        1           0.001800005    0.003010236    0.003881241
     14        6           0.024151924    0.053819080   -0.009204346
     15        8          -0.016341428   -0.034847281    0.009179338
     16        1           0.003806040   -0.005508730   -0.004671157
     17        1          -0.000395855   -0.001063587   -0.001050740
     18        1           0.002739953    0.003995288   -0.006062314
     19        6          -0.052583946    0.003425429    0.015409621
     20        8           0.001850873   -0.009166482   -0.015212113
     21        7           0.021843717   -0.025121966   -0.042357255
     22        1           0.001552037    0.000335645   -0.002523572
     23        1           0.001744436    0.002628285    0.007150228
     24       35           0.026632894   -0.006343053   -0.007753387
 -------------------------------------------------------------------
 Cartesian Forces:  Max     0.053819080 RMS     0.015623359
 FormGI is forming the generalized inverse of G from B-inverse, IUseBI=4.

 GradGradGradGradGradGradGradGradGradGradGradGradGradGradGradGradGradGrad
 Berny optimization.
 Internal  Forces:  Max     0.050230308 RMS     0.009308440
 Search for a saddle point.
 Step number   1 out of a maximum of   50
 All quantities printed in internal units (Hartrees-Bohrs-Radians)
 Swapping is turned off.
 Second derivative matrix not updated -- analytic derivatives used.
 ITU=  0
     Eigenvalues ---   -0.06255   0.00266   0.00632   0.01086   0.01128
     Eigenvalues ---    0.01328   0.01483   0.01682   0.01733   0.02160
     Eigenvalues ---    0.02499   0.03034   0.03250   0.03584   0.03902
     Eigenvalues ---    0.04157   0.04288   0.04521   0.04889   0.05216
     Eigenvalues ---    0.05739   0.06075   0.06534   0.07417   0.07866
     Eigenvalues ---    0.08664   0.08873   0.09325   0.10228   0.10438
     Eigenvalues ---    0.11026   0.11784   0.11817   0.14557   0.15909
     Eigenvalues ---    0.17925   0.19977   0.20538   0.20852   0.21371
     Eigenvalues ---    0.21866   0.23343   0.23626   0.25100   0.27261
     Eigenvalues ---    0.28036   0.28568   0.29230   0.31646   0.32312
     Eigenvalues ---    0.32871   0.34865   0.35096   0.35380   0.35724
     Eigenvalues ---    0.36051   0.36192   0.38174   0.38254   0.39611
     Eigenvalues ---    0.39809   0.43439   0.44369   0.59962   0.79980
     Eigenvalues ---    0.80929
 Eigenvectors required to have negative eigenvalues:
                          D43       R7        D47       D5        D45
   1                    0.30393  -0.29831   0.25860  -0.25763   0.23687
                          D1        D28       D12       D8        D13
   1                    0.21251  -0.20054  -0.18833   0.18407  -0.18296
 RFO step:  Lambda0=3.944471821D-03 Lambda=-3.89155065D-02.
 Linear search not attempted -- option 19 set.
 Maximum step size (   0.100) exceeded in Quadratic search.
    -- Step size scaled by   0.289
 Iteration  1 RMS(Cart)=  0.01984704 RMS(Int)=  0.00017699
 Iteration  2 RMS(Cart)=  0.00030143 RMS(Int)=  0.00006755
 Iteration  3 RMS(Cart)=  0.00000007 RMS(Int)=  0.00006755
 Variable       Old X    -DE/DX   Delta X   Delta X   Delta X     New X
                                 (Linear)    (Quad)   (Total)
    R1        2.73026   0.00131   0.00000  -0.00107  -0.00110   2.72916
    R2        2.72812  -0.05023   0.00000  -0.05710  -0.05715   2.67097
    R3        2.05185   0.00352   0.00000   0.00208   0.00208   2.05394
    R4        2.85217  -0.02505   0.00000  -0.02522  -0.02522   2.82696
    R5        2.04946   0.00384   0.00000   0.00174   0.00174   2.05120
    R6        2.78046  -0.02492   0.00000  -0.02625  -0.02625   2.75421
    R7        3.19286  -0.02790   0.00000  -0.00031  -0.00033   3.19253
    R8        2.84407  -0.02106   0.00000  -0.01690  -0.01689   2.82718
    R9        2.86326  -0.00048   0.00000   0.00071   0.00070   2.86396
   R10        2.78367  -0.01817   0.00000  -0.01818  -0.01812   2.76555
   R11        2.86440   0.00936   0.00000   0.01263   0.01265   2.87705
   R12        2.07262   0.00121   0.00000   0.00125   0.00125   2.07387
   R13        2.53317   0.01175   0.00000   0.00710   0.00710   2.54027
   R14        2.03698   0.00770   0.00000   0.00478   0.00478   2.04176
   R15        2.03830   0.00825   0.00000   0.00508   0.00508   2.04337
   R16        2.07306   0.00251   0.00000   0.00181   0.00181   2.07488
   R17        2.06981   0.00200   0.00000   0.00126   0.00126   2.07107
   R18        2.89376   0.00576   0.00000   0.00112   0.00111   2.89488
   R19        2.06483   0.00309   0.00000   0.00242   0.00242   2.06724
   R20        2.06761   0.00459   0.00000   0.00378   0.00378   2.07139
   R21        2.86493   0.00478   0.00000   0.00452   0.00455   2.86949
   R22        2.31743  -0.03947   0.00000  -0.01579  -0.01579   2.30164
   R23        2.30694  -0.01739   0.00000  -0.00502  -0.00502   2.30192
   R24        3.52604   0.02788   0.00000   0.03680   0.03680   3.56285
   R25        1.93312  -0.00031   0.00000   0.00095   0.00095   1.93407
    A1        1.86454   0.00026   0.00000   0.00870   0.00843   1.87297
    A2        2.15393   0.00632   0.00000   0.01349   0.01349   2.16742
    A3        2.15454  -0.00595   0.00000  -0.00833  -0.00852   2.14602
    A4        2.06101   0.00317   0.00000   0.00998   0.00995   2.07096
    A5        2.11238  -0.00944   0.00000  -0.01386  -0.01389   2.09849
    A6        2.05439   0.00604   0.00000   0.00906   0.00903   2.06343
    A7        1.86515  -0.00915   0.00000  -0.01239  -0.01241   1.85274
    A8        1.80943   0.00900   0.00000   0.00299   0.00300   1.81243
    A9        1.85487  -0.01199   0.00000  -0.01476  -0.01469   1.84018
   A10        2.12223   0.00245   0.00000   0.01234   0.01237   2.13460
   A11        1.78029   0.00578   0.00000   0.00401   0.00380   1.78409
   A12        2.01407   0.00029   0.00000   0.00239   0.00227   2.01634
   A13        1.87377  -0.01587   0.00000   0.00769   0.00770   1.88147
   A14        2.10519   0.00870   0.00000  -0.00100  -0.00104   2.10415
   A15        1.94168  -0.00048   0.00000  -0.00060  -0.00061   1.94107
   A16        1.73949   0.00581   0.00000   0.00320   0.00318   1.74267
   A17        1.89959   0.00474   0.00000  -0.00323  -0.00323   1.89636
   A18        1.88630  -0.00261   0.00000  -0.00561  -0.00560   1.88070
   A19        1.86411  -0.00277   0.00000  -0.00336  -0.00350   1.86061
   A20        2.18376   0.00076   0.00000   0.00107   0.00115   2.18491
   A21        2.23522   0.00200   0.00000   0.00229   0.00237   2.23758
   A22        1.87703  -0.01191   0.00000  -0.00392  -0.00406   1.87297
   A23        2.20198   0.00186   0.00000  -0.00551  -0.00542   2.19655
   A24        2.19741   0.00973   0.00000   0.00894   0.00898   2.20639
   A25        1.92647  -0.00195   0.00000  -0.00534  -0.00534   1.92113
   A26        1.97263   0.00209   0.00000  -0.00437  -0.00438   1.96825
   A27        1.82755  -0.00643   0.00000  -0.00041  -0.00042   1.82714
   A28        1.87621  -0.00083   0.00000   0.00055   0.00051   1.87672
   A29        1.91633   0.00294   0.00000   0.00157   0.00155   1.91788
   A30        1.94489   0.00424   0.00000   0.00803   0.00805   1.95293
   A31        1.94247   0.00476   0.00000   0.01004   0.01003   1.95250
   A32        1.94650  -0.00170   0.00000   0.00134   0.00136   1.94786
   A33        1.81912   0.00448   0.00000   0.00703   0.00702   1.82614
   A34        1.92258  -0.00200   0.00000  -0.00815  -0.00819   1.91439
   A35        1.93409  -0.00075   0.00000  -0.00381  -0.00389   1.93020
   A36        1.89643  -0.00473   0.00000  -0.00607  -0.00609   1.89034
   A37        1.97217  -0.01030   0.00000  -0.00831  -0.00829   1.96388
   A38        2.15152   0.00401   0.00000   0.00232   0.00230   2.15383
   A39        2.15921   0.00631   0.00000   0.00585   0.00583   2.16504
   A40        2.15957   0.00032   0.00000   0.00875   0.00875   2.16832
   A41        2.05779  -0.01003   0.00000  -0.01248  -0.01248   2.04531
   A42        2.06053   0.00976   0.00000   0.00389   0.00389   2.06443
   A43        1.72435   0.00993   0.00000   0.02215   0.02218   1.74653
   A44        2.00205  -0.01226   0.00000   0.00032   0.00018   2.00223
   A45        2.02589  -0.00271   0.00000   0.00202   0.00193   2.02782
    D1        0.40237  -0.00127   0.00000  -0.02453  -0.02454   0.37782
    D2       -2.75321  -0.00191   0.00000  -0.02381  -0.02395  -2.77716
    D3        3.06909  -0.00205   0.00000   0.00036   0.00059   3.06968
    D4       -0.08648  -0.00269   0.00000   0.00108   0.00118  -0.08531
    D5       -0.68817   0.00111   0.00000   0.02902   0.02907  -0.65910
    D6       -2.85435   0.00394   0.00000   0.01178   0.01168  -2.84267
    D7        2.92850  -0.00227   0.00000  -0.00329  -0.00307   2.92543
    D8        0.76232   0.00055   0.00000  -0.02052  -0.02046   0.74186
    D9        1.84948   0.00347   0.00000   0.01026   0.01026   1.85974
   D10       -2.46292   0.00388   0.00000   0.01981   0.01980  -2.44312
   D11       -0.22718   0.00778   0.00000   0.00978   0.00977  -0.21740
   D12       -1.65156   0.00407   0.00000   0.02847   0.02849  -1.62307
   D13        0.31923   0.00448   0.00000   0.03802   0.03802   0.35725
   D14        2.55497   0.00839   0.00000   0.02799   0.02799   2.58297
   D15        0.37357   0.00005   0.00000  -0.01076  -0.01076   0.36281
   D16       -2.88074   0.00119   0.00000  -0.00885  -0.00885  -2.88959
   D17       -3.12615   0.00010   0.00000   0.00760   0.00760  -3.11855
   D18       -0.09728   0.00124   0.00000   0.00951   0.00951  -0.08777
   D19       -1.34069   0.01118   0.00000   0.01031   0.01030  -1.33040
   D20        2.73500   0.00531   0.00000   0.00638   0.00636   2.74136
   D21        0.76283   0.00406   0.00000   0.01223   0.01221   0.77504
   D22        2.68087   0.00810   0.00000   0.00088   0.00087   2.68174
   D23        0.47338   0.00223   0.00000  -0.00305  -0.00307   0.47031
   D24       -1.49879   0.00098   0.00000   0.00280   0.00278  -1.49601
   D25        0.55045   0.00893   0.00000   0.00360   0.00367   0.55412
   D26       -1.65704   0.00307   0.00000  -0.00032  -0.00027  -1.65731
   D27        2.65397   0.00182   0.00000   0.00553   0.00558   2.65956
   D28        1.44678  -0.00943   0.00000   0.00002  -0.00005   1.44673
   D29       -1.57547  -0.00719   0.00000   0.00360   0.00356  -1.57191
   D30       -2.76899  -0.00347   0.00000   0.00174   0.00158  -2.76742
   D31        0.49194  -0.00123   0.00000   0.00532   0.00520   0.49714
   D32       -0.49643   0.00458   0.00000   0.01893   0.01880  -0.47763
   D33        2.76451   0.00682   0.00000   0.02251   0.02242   2.78692
   D34        1.38844   0.00132   0.00000   0.00488   0.00487   1.39331
   D35       -2.79297   0.00029   0.00000  -0.00117  -0.00117  -2.79414
   D36       -0.67289   0.00243   0.00000   0.00592   0.00593  -0.66696
   D37       -0.70616   0.00432   0.00000   0.01103   0.01102  -0.69514
   D38        1.39562   0.00329   0.00000   0.00498   0.00497   1.40059
   D39       -2.76748   0.00544   0.00000   0.01207   0.01207  -2.75541
   D40       -2.87414  -0.00730   0.00000  -0.00993  -0.00990  -2.88404
   D41       -0.77236  -0.00833   0.00000  -0.01598  -0.01594  -0.78830
   D42        1.34773  -0.00618   0.00000  -0.00889  -0.00885   1.33888
   D43       -1.25577   0.01700   0.00000  -0.00486  -0.00500  -1.26077
   D44        0.89338   0.00745   0.00000   0.01173   0.01176   0.90514
   D45        0.69518   0.00512   0.00000  -0.02197  -0.02210   0.67307
   D46        2.84433  -0.00443   0.00000  -0.00538  -0.00535   2.83899
   D47        3.03283   0.01361   0.00000  -0.00018  -0.00033   3.03251
   D48       -1.10120   0.00406   0.00000   0.01641   0.01643  -1.08477
   D49       -2.14564   0.00905   0.00000  -0.01121  -0.01119  -2.15683
   D50        1.02048   0.00809   0.00000  -0.00504  -0.00504   1.01544
   D51       -0.10529  -0.00234   0.00000   0.00041   0.00042  -0.10487
   D52        3.06083  -0.00330   0.00000   0.00658   0.00658   3.06740
   D53        1.87719   0.00453   0.00000  -0.00361  -0.00361   1.87358
   D54       -1.23988   0.00357   0.00000   0.00256   0.00255  -1.23733
   D55        0.06812   0.00070   0.00000   0.00715   0.00704   0.07516
   D56        3.09076  -0.00221   0.00000   0.00233   0.00213   3.09290
   D57       -3.05895   0.00138   0.00000   0.00642   0.00644  -3.05250
   D58       -0.03630  -0.00153   0.00000   0.00160   0.00154  -0.03476
   D59        2.69440  -0.00202   0.00000   0.00034   0.00035   2.69475
   D60       -1.43407  -0.00238   0.00000  -0.00194  -0.00195  -1.43601
   D61        0.60887  -0.00622   0.00000  -0.00442  -0.00444   0.60443
   D62        0.62619   0.00236   0.00000   0.00605   0.00608   0.63227
   D63        2.78091   0.00200   0.00000   0.00377   0.00378   2.78469
   D64       -1.45934  -0.00183   0.00000   0.00129   0.00128  -1.45805
   D65       -1.45055  -0.00118   0.00000  -0.00071  -0.00069  -1.45124
   D66        0.70417  -0.00154   0.00000  -0.00299  -0.00299   0.70118
   D67        2.74711  -0.00538   0.00000  -0.00547  -0.00549   2.74162
   D68       -0.29545   0.00334   0.00000   0.00250   0.00249  -0.29295
   D69        2.82150   0.00426   0.00000  -0.00376  -0.00377   2.81773
   D70       -2.38664  -0.00454   0.00000  -0.01155  -0.01153  -2.39817
   D71        0.73030  -0.00361   0.00000  -0.01781  -0.01779   0.71251
   D72        1.78189   0.00148   0.00000   0.00486   0.00483   1.78672
   D73       -1.38435   0.00240   0.00000  -0.00140  -0.00143  -1.38578
         Item               Value     Threshold  Converged?
 Maximum Force            0.050230     0.000450     NO 
 RMS     Force            0.009308     0.000300     NO 
 Maximum Displacement     0.089022     0.001800     NO 
 RMS     Displacement     0.019996     0.001200     NO 
 Predicted change in Energy=-8.927310D-03
 GradGradGradGradGradGradGradGradGradGradGradGradGradGradGradGradGradGrad

                          Input orientation:                          
 ---------------------------------------------------------------------
 Center     Atomic      Atomic             Coordinates (Angstroms)
 Number     Number       Type             X           Y           Z
 ---------------------------------------------------------------------
      1          6           0       -0.263317   -1.929308    0.511569
      2          6           0        0.316988   -0.093721   -0.806277
      3          6           0       -2.037729   -0.708173    0.039288
      4          6           0       -1.114918    0.320558   -0.932437
      5          6           0       -1.018468   -2.699421   -0.448856
      6          6           0       -2.139361   -2.002605   -0.703926
      7          1           0       -2.913022   -2.267698   -1.411315
      8          6           0       -3.256170    0.121581    0.391104
      9          1           0       -3.969784    0.115776   -0.443326
     10          1           0       -3.781807   -0.251306    1.277558
     11          6           0       -2.713351    1.538375    0.602688
     12          1           0       -3.477981    2.299160    0.420347
     13          1           0       -2.298608    1.665522    1.609332
     14          6           0       -1.580453    1.668759   -0.399950
     15          8           0       -1.114279    2.732206   -0.767678
     16          1           0       -0.707896   -3.643811   -0.871995
     17          1           0       -1.464308    0.231349   -1.968947
     18          1           0        0.784043   -0.612275   -1.637635
     19          6           0        1.179533    0.538935    0.183653
     20          8           0        0.773820    1.128092    1.169613
     21          7           0       -1.170754   -1.063645    1.163442
     22          1           0       -0.734840   -0.283296    1.661962
     23          1           0        0.666427   -2.262070    0.965648
     24         35           0        3.037234    0.271918    0.003939
 ---------------------------------------------------------------------
                    Distance matrix (angstroms):
                    1          2          3          4          5
     1  C    0.000000
     2  C    2.332993   0.000000
     3  C    2.205167   2.576282   0.000000
     4  C    2.805758   1.495961   1.689413   0.000000
     5  C    1.444210   2.949723   2.289596   3.059972   0.000000
     6  C    2.236592   3.112550   1.496078   2.549272   1.344253
     7  H    3.291341   3.940205   2.302717   3.187723   2.168420
     8  C    3.630128   3.774591   1.515541   2.525136   3.697417
     9  H    4.339596   4.307208   2.155144   2.903692   4.078681
    10  H    3.972682   4.600796   2.187201   3.510471   4.075514
    11  C    4.246857   3.719123   2.412646   2.528769   4.683726
    12  H    5.312469   4.651051   3.356126   3.365851   5.638309
    13  H    4.274377   3.971328   2.857887   3.109765   4.992757
    14  C    3.938502   2.621396   2.460048   1.522468   4.404454
    15  O    4.908189   3.167945   3.652418   2.417269   5.441820
    16  H    2.247537   3.695653   3.349159   3.985668   1.080451
    17  H    3.501968   2.151857   2.290092   1.097445   3.331496
    18  H    2.729582   1.085447   3.283850   2.230143   3.003069
    19  C    2.877772   1.457463   3.453534   2.560830   3.964622
    20  O    3.294901   2.367628   3.543206   2.939057   4.525659
    21  N    1.413419   2.652154   1.463464   2.512338   2.301838
    22  H    2.062788   2.689700   2.123938   2.690726   3.220816
    23  H    1.086896   2.821979   3.253491   3.666863   2.242982
    24  Br   3.999590   2.861796   5.168857   4.256704   5.048029
                    6          7          8          9         10
     6  C    0.000000
     7  H    1.081307   0.000000
     8  C    2.637900   3.012494   0.000000
     9  H    2.811743   2.781133   1.097977   0.000000
    10  H    3.113030   3.471406   1.095965   1.769612   0.000000
    11  C    3.817753   4.310715   1.531902   2.167154   2.190892
    12  H    4.643390   4.952813   2.189042   2.398951   2.707766
    13  H    4.339547   4.997202   2.187409   3.067237   2.446259
    14  C    3.726082   4.277183   2.414032   2.850007   3.368478
    15  O    4.844924   5.352456   3.570131   3.886492   4.494445
    16  H    2.184239   2.654644   4.718824   4.995815   5.057529
    17  H    2.654529   2.941932   2.965242   2.935692   4.017904
    18  H    3.369143   4.057085   4.580136   4.955332   5.429147
    19  C    4.273439   5.212497   4.460122   5.204579   5.141596
    20  O    4.668836   5.637853   4.226104   5.111569   4.761106
    21  N    2.303673   3.333859   2.519966   3.436177   2.736881
    22  H    3.244399   4.257624   2.852387   3.880253   3.071287
    23  H    3.275248   4.296794   4.625869   5.397576   4.891549
    24  Br   5.698391   6.622548   6.307094   7.023015   6.956666
                   11         12         13         14         15
    11  C    0.000000
    12  H    1.093938   0.000000
    13  H    1.096134   1.790559   0.000000
    14  C    1.518466   2.161228   2.133769   0.000000
    15  O    2.420778   2.680675   2.861927   1.217975   0.000000
    16  H    5.749052   6.682995   6.072591   5.404404   6.389806
    17  H    3.143522   3.746925   3.944234   2.131053   2.796400
    18  H    4.677190   5.556671   5.023335   3.510815   3.942843
    19  C    4.040918   4.984662   3.924185   3.038852   3.313162
    20  O    3.556698   4.473322   3.149920   2.880703   3.145028
    21  N    3.076452   4.145352   2.986507   3.174599   4.259213
    22  H    2.890511   3.966801   2.499207   2.962611   3.891064
    23  H    5.098826   6.186946   4.963038   4.729138   5.578363
    24  Br   5.918754   6.836018   5.743747   4.841211   4.887072
                   16         17         18         19         20
    16  H    0.000000
    17  H    4.097845   0.000000
    18  H    3.464434   2.424160   0.000000
    19  C    4.708732   3.423185   2.190614   0.000000
    20  O    5.397658   3.957768   3.302972   1.218124   0.000000
    21  N    3.318810   3.402211   3.445432   3.008671   2.930036
    22  H    4.208887   3.739048   3.647269   2.554660   2.123788
    23  H    2.678601   4.401025   3.084273   2.953037   3.397990
    24  Br   5.488734   4.915059   2.924625   1.885377   2.686052
                   21         22         23         24
    21  N    0.000000
    22  H    1.023468   0.000000
    23  H    2.202403   2.522687   0.000000
    24  Br   4.564574   4.157625   3.600931   0.000000
 Stoichiometry    C10H10BrNO2
 Framework group  C1[X(C10H10BrNO2)]
 Deg. of freedom    66
 Full point group                 C1      NOp   1
 Largest Abelian subgroup         C1      NOp   1
 Largest concise Abelian subgroup C1      NOp   1
                         Standard orientation:                         
 ---------------------------------------------------------------------
 Center     Atomic      Atomic             Coordinates (Angstroms)
 Number     Number       Type             X           Y           Z
 ---------------------------------------------------------------------
      1          6           0        0.422149    1.960172    0.535126
      2          6           0       -0.282212    0.196141   -0.819468
      3          6           0        2.103610    0.615832    0.057423
      4          6           0        1.115385   -0.323532   -0.940135
      5          6           0        1.243184    2.686584   -0.405071
      6          6           0        2.310573    1.910994   -0.662279
      7          1           0        3.109227    2.128300   -1.358091
      8          6           0        3.252037   -0.309799    0.405540
      9          1           0        3.972458   -0.344324   -0.422321
     10          1           0        3.795412    0.007289    1.302947
     11          6           0        2.601293   -1.684601    0.587688
     12          1           0        3.307876   -2.498119    0.398935
     13          1           0        2.167927   -1.796615    1.588267
     14          6           0        1.471990   -1.711868   -0.427039
     15          8           0        0.930314   -2.730573   -0.817281
     16          1           0        1.009379    3.658744   -0.814481
     17          1           0        1.481016   -0.243881   -1.971811
     18          1           0       -0.700177    0.762430   -1.645795
     19          6           0       -1.200209   -0.385566    0.151665
     20          8           0       -0.850322   -1.020157    1.130798
     21          7           0        1.254720    1.017366    1.179870
     22          1           0        0.755893    0.264190    1.660894
     23          1           0       -0.484257    2.354981    0.986675
     24         35           0       -3.030415    0.024718   -0.039804
 ---------------------------------------------------------------------
 Rotational constants (GHZ):           0.9262838           0.3783224           0.3027493
 Standard basis: STO-3G (5D, 7F)
 There are    94 symmetry adapted cartesian basis functions of A   symmetry.
 There are    93 symmetry adapted basis functions of A   symmetry.
    93 basis functions,   282 primitive gaussians,    94 cartesian basis functions
    64 alpha electrons       64 beta electrons
       nuclear repulsion energy      1233.0348471059 Hartrees.
 NAtoms=   24 NActive=   24 NUniq=   24 SFac= 1.00D+00 NAtFMM=   60 NAOKFM=F Big=F
 Integral buffers will be    131072 words long.
 Raffenetti 1 integral format.
 Two-electron integral symmetry is turned on.
 External calculation of energy, first and second derivatives.
 Running external command "~/scripts/MiMe -H 'wb97xd def2svp' -EF 'wb97xd def2svp' -c 12 -m 48GB R"
         input file       "/local/jobs/1158120/Gau-1329444.EIn"
         output file      "/local/jobs/1158120/Gau-1329444.EOu"
         message file     "/local/jobs/1158120/Gau-1329444.EMs"
         fchk file        "/local/jobs/1158120/Gau-1329444.EFC"
         mat. el file     "/local/jobs/1158120/Gau-1329444.EUF"
 Read checkpoint file Gau-1329444_H.chk type G16
 Write formatted file Gau-1329444_H.fchk

deriv: 2

spelevel: wb97xd def2svp
gradlevel: wb97xd def2svp
hesslevel: wb97xd def2svp

runspe: False
runforce: False
runfreq: True

Running Gaussian ...

Parsing files ...
SPE file: Gau-1329444_H.out
FORCE file: Gau-1329444_H.out
HESS file: Gau-1329444_H.out

 ExternalExternalExternalExternalExternalExternalExternalExternalExternalExternal
 Output from external command:
 "~/scripts/MiMe -H 'wb97xd def2svp' -EF 'wb97xd def2svp' -c 12 -m 48GB R /local/jobs/1158120/Gau-1329444.EIn /local/jobs/1158120/Gau-1329444.EOu /local/jobs/1158120/Gau-1329444.EMs /local/jobs/1158120/Gau-1329444.EFC /local/jobs/1158120/Gau-1329444.EUF"
  
 --------------------------------------------------
 Hessian calculation at wb97xd def2svp
 ExternalExternalExternalExternalExternalExternalExternalExternalExternalExternal

 Recovered energy= -3165.50088290     dipole=      4.269300000000      4.569600000000     -0.732200000000
 Energy=    -3165.50088     NIter=   0.
 Dipole moment=       4.269300       4.569600      -0.732200
 ***** Axes restored to original set *****
 -------------------------------------------------------------------
 Center     Atomic                   Forces (Hartrees/Bohr)
 Number     Number              X              Y              Z
 -------------------------------------------------------------------
      1        6          -0.014058583    0.027778937    0.012777301
      2        6          -0.005508209   -0.004409191    0.004002548
      3        6          -0.005433580   -0.013453623    0.003726073
      4        6           0.013863408   -0.017824549    0.016903333
      5        6           0.005840698    0.005205241    0.004048827
      6        6           0.000160358    0.012593762    0.006094920
      7        1          -0.005279618    0.001712365   -0.004172028
      8        6           0.000732649    0.005383559    0.005883580
      9        1          -0.000024014   -0.001337451   -0.002419463
     10        1           0.000003614   -0.003843523    0.000203835
     11        6          -0.004954100   -0.009482000   -0.010562549
     12        1           0.001669759    0.005586215    0.002524781
     13        1           0.001290129    0.002442425    0.002885638
     14        6           0.018564828    0.039790209   -0.006612664
     15        8          -0.012012938   -0.024989946    0.006431849
     16        1           0.003181152   -0.003726095   -0.003858653
     17        1          -0.000640498   -0.000903903   -0.000682150
     18        1           0.002322912    0.003876661   -0.004782747
     19        6          -0.040107023    0.001801051    0.011685896
     20        8           0.001568572   -0.006095327   -0.011138691
     21        7           0.016257056   -0.017570736   -0.031379552
     22        1           0.000746092    0.000161414   -0.001176623
     23        1           0.001165591    0.002113182    0.005460858
     24       35           0.020651741   -0.004808675   -0.005844318
 -------------------------------------------------------------------
 Cartesian Forces:  Max     0.040107023 RMS     0.011646285
 FormGI is forming the generalized inverse of G from B-inverse, IUseBI=4.

 GradGradGradGradGradGradGradGradGradGradGradGradGradGradGradGradGradGrad
 Berny optimization.
 Internal  Forces:  Max     0.036165062 RMS     0.006847514
 Search for a saddle point.
 Step number   2 out of a maximum of   50
 All quantities printed in internal units (Hartrees-Bohrs-Radians)
 Swapping is turned off.
 Second derivative matrix not updated -- analytic derivatives used.
 ITU=  0  0
     Eigenvalues ---   -0.05077   0.00271   0.00634   0.01115   0.01154
     Eigenvalues ---    0.01378   0.01501   0.01620   0.01748   0.02176
     Eigenvalues ---    0.02477   0.03181   0.03343   0.03641   0.03919
     Eigenvalues ---    0.04137   0.04356   0.04640   0.04939   0.05254
     Eigenvalues ---    0.05933   0.06070   0.06578   0.07656   0.07915
     Eigenvalues ---    0.08834   0.08925   0.09337   0.10282   0.10532
     Eigenvalues ---    0.11112   0.12052   0.12178   0.15025   0.15921
     Eigenvalues ---    0.18297   0.20329   0.20693   0.21347   0.21875
     Eigenvalues ---    0.22332   0.23218   0.24499   0.25766   0.27276
     Eigenvalues ---    0.28374   0.28743   0.29709   0.31892   0.33679
     Eigenvalues ---    0.34674   0.34875   0.34996   0.35244   0.35342
     Eigenvalues ---    0.35806   0.37747   0.37996   0.38067   0.39090
     Eigenvalues ---    0.39300   0.44000   0.45607   0.59325   0.81792
     Eigenvalues ---    0.84493
 Eigenvectors required to have negative eigenvalues:
                          D43       R7        D5        D47       D45
   1                   -0.30059   0.28214   0.27014  -0.25665  -0.24621
                          D1        D12       D13       D8        D28
   1                   -0.21861   0.21007   0.19819  -0.19357   0.19253
 RFO step:  Lambda0=2.107584113D-03 Lambda=-2.28283718D-02.
 Linear search not attempted -- option 19 set.
 Maximum step size (   0.100) exceeded in Quadratic search.
    -- Step size scaled by   0.369
 Iteration  1 RMS(Cart)=  0.02056972 RMS(Int)=  0.00019646
 Iteration  2 RMS(Cart)=  0.00035270 RMS(Int)=  0.00008163
 Iteration  3 RMS(Cart)=  0.00000009 RMS(Int)=  0.00008163
 Variable       Old X    -DE/DX   Delta X   Delta X   Delta X     New X
                                 (Linear)    (Quad)   (Total)
    R1        2.72916   0.00119   0.00000  -0.00117  -0.00123   2.72794
    R2        2.67097  -0.03617   0.00000  -0.04728  -0.04734   2.62363
    R3        2.05394   0.00263   0.00000   0.00207   0.00207   2.05600
    R4        2.82696  -0.01801   0.00000  -0.02350  -0.02350   2.80346
    R5        2.05120   0.00281   0.00000   0.00158   0.00158   2.05278
    R6        2.75421  -0.01814   0.00000  -0.02399  -0.02399   2.73021
    R7        3.19253  -0.02053   0.00000   0.00102   0.00099   3.19352
    R8        2.82718  -0.01511   0.00000  -0.01537  -0.01532   2.81186
    R9        2.86396  -0.00034   0.00000   0.00121   0.00118   2.86514
   R10        2.76555  -0.01320   0.00000  -0.01783  -0.01775   2.74779
   R11        2.87705   0.00718   0.00000   0.01257   0.01259   2.88964
   R12        2.07387   0.00092   0.00000   0.00145   0.00145   2.07532
   R13        2.54027   0.00864   0.00000   0.00711   0.00710   2.54737
   R14        2.04176   0.00568   0.00000   0.00475   0.00475   2.04650
   R15        2.04337   0.00609   0.00000   0.00509   0.00509   2.04847
   R16        2.07488   0.00186   0.00000   0.00183   0.00183   2.07671
   R17        2.07107   0.00147   0.00000   0.00126   0.00126   2.07233
   R18        2.89488   0.00421   0.00000   0.00032   0.00031   2.89518
   R19        2.06724   0.00230   0.00000   0.00246   0.00246   2.06970
   R20        2.07139   0.00342   0.00000   0.00405   0.00405   2.07544
   R21        2.86949   0.00367   0.00000   0.00449   0.00453   2.87402
   R22        2.30164  -0.02836   0.00000  -0.01438  -0.01438   2.28726
   R23        2.30192  -0.01249   0.00000  -0.00551  -0.00551   2.29641
   R24        3.56285   0.02159   0.00000   0.04305   0.04305   3.60590
   R25        1.93407  -0.00013   0.00000   0.00107   0.00107   1.93514
    A1        1.87297   0.00001   0.00000   0.00696   0.00665   1.87962
    A2        2.16742   0.00496   0.00000   0.01582   0.01582   2.18324
    A3        2.14602  -0.00443   0.00000  -0.00871  -0.00893   2.13708
    A4        2.07096   0.00245   0.00000   0.01089   0.01087   2.08183
    A5        2.09849  -0.00693   0.00000  -0.01328  -0.01331   2.08518
    A6        2.06343   0.00433   0.00000   0.00701   0.00698   2.07040
    A7        1.85274  -0.00723   0.00000  -0.01577  -0.01576   1.83698
    A8        1.81243   0.00663   0.00000   0.00116   0.00119   1.81362
    A9        1.84018  -0.00892   0.00000  -0.01530  -0.01523   1.82495
   A10        2.13460   0.00236   0.00000   0.01580   0.01579   2.15040
   A11        1.78409   0.00415   0.00000   0.00385   0.00357   1.78766
   A12        2.01634   0.00004   0.00000   0.00339   0.00322   2.01956
   A13        1.88147  -0.01121   0.00000   0.01118   0.01120   1.89267
   A14        2.10415   0.00631   0.00000  -0.00186  -0.00195   2.10219
   A15        1.94107  -0.00050   0.00000  -0.00063  -0.00065   1.94043
   A16        1.74267   0.00437   0.00000   0.00479   0.00475   1.74742
   A17        1.89636   0.00331   0.00000  -0.00569  -0.00569   1.89068
   A18        1.88070  -0.00200   0.00000  -0.00743  -0.00741   1.87329
   A19        1.86061  -0.00213   0.00000  -0.00238  -0.00254   1.85807
   A20        2.18491   0.00058   0.00000   0.00048   0.00056   2.18546
   A21        2.23758   0.00154   0.00000   0.00185   0.00192   2.23950
   A22        1.87297  -0.00854   0.00000  -0.00280  -0.00292   1.87005
   A23        2.19655   0.00109   0.00000  -0.00720  -0.00714   2.18941
   A24        2.20639   0.00717   0.00000   0.00872   0.00871   2.21510
   A25        1.92113  -0.00154   0.00000  -0.00664  -0.00664   1.91449
   A26        1.96825   0.00135   0.00000  -0.00612  -0.00613   1.96213
   A27        1.82714  -0.00469   0.00000   0.00067   0.00065   1.82779
   A28        1.87672  -0.00058   0.00000   0.00073   0.00067   1.87739
   A29        1.91788   0.00209   0.00000   0.00162   0.00160   1.91948
   A30        1.95293   0.00338   0.00000   0.00963   0.00966   1.96259
   A31        1.95250   0.00380   0.00000   0.01300   0.01299   1.96548
   A32        1.94786  -0.00115   0.00000   0.00126   0.00128   1.94915
   A33        1.82614   0.00343   0.00000   0.00793   0.00791   1.83406
   A34        1.91439  -0.00178   0.00000  -0.01132  -0.01136   1.90303
   A35        1.93020  -0.00074   0.00000  -0.00389  -0.00402   1.92618
   A36        1.89034  -0.00361   0.00000  -0.00676  -0.00679   1.88355
   A37        1.96388  -0.00776   0.00000  -0.00961  -0.00958   1.95430
   A38        2.15383   0.00303   0.00000   0.00293   0.00290   2.15672
   A39        2.16504   0.00474   0.00000   0.00642   0.00638   2.17143
   A40        2.16832   0.00075   0.00000   0.01240   0.01239   2.18071
   A41        2.04531  -0.00778   0.00000  -0.01527  -0.01527   2.03004
   A42        2.06443   0.00708   0.00000   0.00324   0.00324   2.06767
   A43        1.74653   0.00767   0.00000   0.02223   0.02226   1.76879
   A44        2.00223  -0.00897   0.00000   0.00171   0.00150   2.00373
   A45        2.02782  -0.00184   0.00000   0.00435   0.00421   2.03202
    D1        0.37782  -0.00129   0.00000  -0.02776  -0.02776   0.35006
    D2       -2.77716  -0.00198   0.00000  -0.03179  -0.03193  -2.80910
    D3        3.06968  -0.00155   0.00000  -0.00006   0.00021   3.06989
    D4       -0.08531  -0.00223   0.00000  -0.00409  -0.00396  -0.08927
    D5       -0.65910   0.00108   0.00000   0.03203   0.03208  -0.62702
    D6       -2.84267   0.00291   0.00000   0.01049   0.01035  -2.83232
    D7        2.92543  -0.00163   0.00000  -0.00297  -0.00269   2.92274
    D8        0.74186   0.00020   0.00000  -0.02451  -0.02442   0.71744
    D9        1.85974   0.00282   0.00000   0.01414   0.01415   1.87389
   D10       -2.44312   0.00360   0.00000   0.02804   0.02802  -2.41510
   D11       -0.21740   0.00604   0.00000   0.01450   0.01449  -0.20291
   D12       -1.62307   0.00320   0.00000   0.03072   0.03074  -1.59233
   D13        0.35725   0.00397   0.00000   0.04462   0.04461   0.40186
   D14        2.58297   0.00642   0.00000   0.03108   0.03109   2.61406
   D15        0.36281  -0.00022   0.00000  -0.01824  -0.01824   0.34457
   D16       -2.88959   0.00079   0.00000  -0.01418  -0.01418  -2.90376
   D17       -3.11855  -0.00020   0.00000  -0.00096  -0.00097  -3.11952
   D18       -0.08777   0.00081   0.00000   0.00310   0.00309  -0.08468
   D19       -1.33040   0.00855   0.00000   0.01284   0.01283  -1.31756
   D20        2.74136   0.00412   0.00000   0.00734   0.00730   2.74866
   D21        0.77504   0.00332   0.00000   0.01532   0.01529   0.79033
   D22        2.68174   0.00596   0.00000   0.00236   0.00236   2.68410
   D23        0.47031   0.00153   0.00000  -0.00314  -0.00317   0.46714
   D24       -1.49601   0.00073   0.00000   0.00485   0.00482  -1.49118
   D25        0.55412   0.00686   0.00000   0.00502   0.00512   0.55924
   D26       -1.65731   0.00243   0.00000  -0.00048  -0.00041  -1.65772
   D27        2.65956   0.00163   0.00000   0.00751   0.00758   2.66714
   D28        1.44673  -0.00724   0.00000  -0.00270  -0.00275   1.44398
   D29       -1.57191  -0.00527   0.00000   0.00731   0.00728  -1.56463
   D30       -2.76742  -0.00297   0.00000  -0.00430  -0.00449  -2.77191
   D31        0.49714  -0.00100   0.00000   0.00570   0.00553   0.50267
   D32       -0.47763   0.00335   0.00000   0.01789   0.01776  -0.45987
   D33        2.78692   0.00531   0.00000   0.02789   0.02778   2.81470
   D34        1.39331   0.00103   0.00000   0.00575   0.00573   1.39904
   D35       -2.79414   0.00012   0.00000  -0.00202  -0.00201  -2.79615
   D36       -0.66696   0.00194   0.00000   0.00674   0.00675  -0.66021
   D37       -0.69514   0.00350   0.00000   0.01581   0.01581  -0.67933
   D38        1.40059   0.00258   0.00000   0.00804   0.00807   1.40866
   D39       -2.75541   0.00440   0.00000   0.01680   0.01683  -2.73858
   D40       -2.88404  -0.00552   0.00000  -0.01040  -0.01039  -2.89443
   D41       -0.78830  -0.00643   0.00000  -0.01816  -0.01813  -0.80644
   D42        1.33888  -0.00461   0.00000  -0.00941  -0.00937   1.32951
   D43       -1.26077   0.01266   0.00000  -0.00331  -0.00347  -1.26424
   D44        0.90514   0.00600   0.00000   0.01707   0.01711   0.92226
   D45        0.67307   0.00335   0.00000  -0.02421  -0.02434   0.64873
   D46        2.83899  -0.00332   0.00000  -0.00383  -0.00376   2.83523
   D47        3.03251   0.01030   0.00000   0.00340   0.00323   3.03574
   D48       -1.08477   0.00364   0.00000   0.02378   0.02382  -1.06095
   D49       -2.15683   0.00602   0.00000  -0.01735  -0.01732  -2.17415
   D50        1.01544   0.00554   0.00000  -0.00838  -0.00837   1.00707
   D51       -0.10487  -0.00169   0.00000  -0.00052  -0.00049  -0.10536
   D52        3.06740  -0.00217   0.00000   0.00845   0.00845   3.07585
   D53        1.87358   0.00315   0.00000  -0.00718  -0.00717   1.86640
   D54       -1.23733   0.00267   0.00000   0.00179   0.00177  -1.23557
   D55        0.07516   0.00056   0.00000   0.00825   0.00817   0.08332
   D56        3.09290  -0.00198   0.00000  -0.00328  -0.00350   3.08939
   D57       -3.05250   0.00128   0.00000   0.01246   0.01253  -3.03998
   D58       -0.03476  -0.00126   0.00000   0.00093   0.00086  -0.03391
   D59        2.69475  -0.00143   0.00000   0.00229   0.00231   2.69706
   D60       -1.43601  -0.00180   0.00000  -0.00197  -0.00199  -1.43800
   D61        0.60443  -0.00466   0.00000  -0.00478  -0.00482   0.59961
   D62        0.63227   0.00193   0.00000   0.00890   0.00894   0.64121
   D63        2.78469   0.00156   0.00000   0.00464   0.00465   2.78933
   D64       -1.45805  -0.00129   0.00000   0.00183   0.00182  -1.45624
   D65       -1.45124  -0.00089   0.00000   0.00073   0.00076  -1.45048
   D66        0.70118  -0.00126   0.00000  -0.00353  -0.00354   0.69764
   D67        2.74162  -0.00412   0.00000  -0.00634  -0.00637   2.73525
   D68       -0.29295   0.00251   0.00000   0.00361   0.00360  -0.28935
   D69        2.81773   0.00295   0.00000  -0.00550  -0.00551   2.81222
   D70       -2.39817  -0.00365   0.00000  -0.01451  -0.01448  -2.41264
   D71        0.71251  -0.00321   0.00000  -0.02362  -0.02359   0.68893
   D72        1.78672   0.00123   0.00000   0.00596   0.00592   1.79265
   D73       -1.38578   0.00167   0.00000  -0.00315  -0.00319  -1.38897
         Item               Value     Threshold  Converged?
 Maximum Force            0.036165     0.000450     NO 
 RMS     Force            0.006848     0.000300     NO 
 Maximum Displacement     0.085825     0.001800     NO 
 RMS     Displacement     0.020756     0.001200     NO 
 Predicted change in Energy=-6.459160D-03
 GradGradGradGradGradGradGradGradGradGradGradGradGradGradGradGradGradGrad

                          Input orientation:                          
 ---------------------------------------------------------------------
 Center     Atomic      Atomic             Coordinates (Angstroms)
 Number     Number       Type             X           Y           Z
 ---------------------------------------------------------------------
      1          6           0       -0.267656   -1.915525    0.532137
      2          6           0        0.305175   -0.098251   -0.822090
      3          6           0       -2.043282   -0.713749    0.043281
      4          6           0       -1.116751    0.310731   -0.930305
      5          6           0       -0.998427   -2.683860   -0.447405
      6          6           0       -2.128147   -1.995820   -0.707151
      7          1           0       -2.895206   -2.252138   -1.428942
      8          6           0       -3.257256    0.121649    0.399840
      9          1           0       -3.972068    0.111217   -0.434798
     10          1           0       -3.779071   -0.256264    1.287248
     11          6           0       -2.709466    1.538053    0.602200
     12          1           0       -3.465341    2.310982    0.426758
     13          1           0       -2.288549    1.670392    1.607945
     14          6           0       -1.574343    1.670509   -0.401285
     15          8           0       -1.111857    2.724484   -0.775751
     16          1           0       -0.666575   -3.618540   -0.882210
     17          1           0       -1.477027    0.223780   -1.964092
     18          1           0        0.778201   -0.602497   -1.659940
     19          6           0        1.145394    0.510573    0.183254
     20          8           0        0.740122    1.082675    1.175819
     21          7           0       -1.166309   -1.057133    1.151127
     22          1           0       -0.736926   -0.274016    1.652129
     23          1           0        0.662271   -2.226179    1.003786
     24         35           0        3.024094    0.233827   -0.003754
 ---------------------------------------------------------------------
                    Distance matrix (angstroms):
                    1          2          3          4          5
     1  C    0.000000
     2  C    2.337638   0.000000
     3  C    2.199112   2.577393   0.000000
     4  C    2.795696   1.483526   1.689938   0.000000
     5  C    1.443561   2.919785   2.283381   3.035584   0.000000
     6  C    2.236897   3.087885   1.487970   2.528417   1.348011
     7  H    3.295931   3.905117   2.293438   3.159088   2.178892
     8  C    3.620124   3.772583   1.516166   2.527212   3.700137
     9  H    4.331895   4.299846   2.151591   2.904852   4.081072
    10  H    3.956435   4.599493   2.183967   3.510979   4.078508
    11  C    4.230194   3.714047   2.413877   2.528167   4.674812
    12  H    5.300911   4.645515   3.364269   3.370237   5.638996
    13  H    4.254430   3.969959   2.862248   3.108779   4.984816
    14  C    3.929166   2.614990   2.470269   1.529133   4.392531
    15  O    4.894174   3.158791   3.655108   2.418701   5.419489
    16  H    2.249394   3.652444   3.345096   3.955268   1.082962
    17  H    3.502908   2.141055   2.286734   1.098214   3.314177
    18  H    2.760989   1.086283   3.297591   2.226476   2.993112
    19  C    2.829201   1.444767   3.418511   2.529279   3.898475
    20  O    3.227871   2.361230   3.501017   2.911982   4.454683
    21  N    1.388367   2.641648   1.454069   2.491158   2.286860
    22  H    2.041850   2.690470   2.118567   2.674914   3.206833
    23  H    1.087990   2.826556   3.245001   3.652608   2.252409
    24  Br   3.967683   2.858753   5.155425   4.243938   4.989028
                    6          7          8          9         10
     6  C    0.000000
     7  H    1.084003   0.000000
     8  C    2.642725   3.018343   0.000000
     9  H    2.813152   2.780899   1.098948   0.000000
    10  H    3.119172   3.484597   1.096632   1.771365   0.000000
    11  C    3.813212   4.304135   1.532065   2.169191   2.198390
    12  H    4.649988   4.958905   2.199364   2.416200   2.725734
    13  H    4.338953   4.997696   2.190095   3.072143   2.456930
    14  C    3.720513   4.264729   2.423420   2.860350   3.380004
    15  O    4.828956   5.326702   3.572044   3.889244   4.500539
    16  H    2.190904   2.670725   4.726976   5.003753   5.069426
    17  H    2.632581   2.903065   2.961052   2.928591   4.012613
    18  H    3.360954   4.033435   4.588246   4.957360   5.438246
    19  C    4.217926   5.153465   4.425099   5.170096   5.104626
    20  O    4.609737   5.578653   4.183868   5.073712   4.714688
    21  N    2.293352   3.327744   2.515158   3.428189   2.736137
    22  H    3.235167   4.250193   2.841979   3.869084   3.064001
    23  H    3.281280   4.309813   4.608660   5.386097   4.866871
    24  Br   5.657886   6.576420   6.295302   7.010500   6.941896
                   11         12         13         14         15
    11  C    0.000000
    12  H    1.095239   0.000000
    13  H    1.098275   1.786168   0.000000
    14  C    1.520865   2.161420   2.132393   0.000000
    15  O    2.420480   2.675051   2.859672   1.210364   0.000000
    16  H    5.741718   6.686234   6.066669   5.387891   6.359526
    17  H    3.135614   3.745126   3.938364   2.131868   2.792673
    18  H    4.675794   5.554306   5.024943   3.505029   3.927202
    19  C    4.011381   4.955769   3.894470   3.013985   3.303979
    20  O    3.526481   4.444744   3.115285   2.861740   3.151824
    21  N    3.068818   4.141794   2.984543   3.164886   4.244579
    22  H    2.876953   3.953226   2.488013   2.949399   3.876362
    23  H    5.069450   6.160842   4.924999   4.707530   5.551878
    24  Br   5.911166   6.827348   5.734585   4.834015   4.889319
                   16         17         18         19         20
    16  H    0.000000
    17  H    4.073172   0.000000
    18  H    3.433476   2.421011   0.000000
    19  C    4.633359   3.401535   2.184289   0.000000
    20  O    5.321250   3.938590   3.298906   1.215209   0.000000
    21  N    3.308323   3.382584   3.448175   2.956088   2.865985
    22  H    4.196864   3.724595   3.656954   2.513226   2.061348
    23  H    2.694713   4.403090   3.121733   2.897670   3.314238
    24  Br   5.406797   4.909492   2.913146   1.908159   2.707113
                   21         22         23         24
    21  N    0.000000
    22  H    1.024034   0.000000
    23  H    2.175335   2.487779   0.000000
    24  Br   4.534292   4.140667   3.555977   0.000000
 Stoichiometry    C10H10BrNO2
 Framework group  C1[X(C10H10BrNO2)]
 Deg. of freedom    66
 Full point group                 C1      NOp   1
 Largest Abelian subgroup         C1      NOp   1
 Largest concise Abelian subgroup C1      NOp   1
                         Standard orientation:                         
 ---------------------------------------------------------------------
 Center     Atomic      Atomic             Coordinates (Angstroms)
 Number     Number       Type             X           Y           Z
 ---------------------------------------------------------------------
      1          6           0        0.391640    1.940208    0.552011
      2          6           0       -0.281054    0.181365   -0.833090
      3          6           0        2.093938    0.638775    0.057495
      4          6           0        1.113900   -0.312626   -0.937618
      5          6           0        1.175771    2.676273   -0.410910
      6          6           0        2.263136    1.923932   -0.673121
      7          1           0        3.050067    2.143041   -1.385716
      8          6           0        3.251562   -0.274728    0.409886
      9          1           0        3.972138   -0.296169   -0.419570
     10          1           0        3.788661    0.057518    1.306401
     11          6           0        2.616346   -1.657566    0.587315
     12          1           0        3.324718   -2.472871    0.405560
     13          1           0        2.180293   -1.778327    1.588056
     14          6           0        1.483075   -1.705470   -0.425815
     15          8           0        0.959724   -2.723499   -0.819138
     16          1           0        0.905281    3.635776   -0.833989
     17          1           0        1.486862   -0.233030   -1.967491
     18          1           0       -0.715721    0.725803   -1.666554
     19          6           0       -1.164838   -0.389153    0.157256
     20          8           0       -0.803163   -0.999387    1.143936
     21          7           0        1.231094    1.019339    1.164286
     22          1           0        0.750590    0.256924    1.650582
[...]
 0.00002427,0.00003185,-0.00028362,0.00010045,0.00006250,0.00005276,0.0
 0008242,0.00002628,0.00000917,0.00002225,0.00002248,0.00006169,0.00006
 323,-0.00011675,0.00003730,0.00017051,-0.00002530,0.08724102,0.0071082
 8,-0.00339453,-0.00018329,-0.00003554,-0.00000639,-0.00014722,0.004899
 70,0.00229024,-0.00387592,-0.00009076,0.00113747,0.00064776,0.09395456
 ,-0.24988290,-0.12352130,-0.00008676,-0.00339436,-0.00612929,-0.001748
 54,-0.00130168,0.00212950,-0.00053333,-0.00048635,-0.00040320,-0.00003
 932,0.00002618,0.00005210,0.00000916,-0.00004001,-0.00000999,0.0002017
 7,-0.00009527,0.00005187,-0.00004911,-0.00007552,-0.00000130,-0.000019
 18,0.00000584,-0.00000210,0.00042472,-0.00001997,-0.00034604,-0.000086
 39,0.00021347,0.00007193,-0.10302730,0.25484470,0.01160884,-0.01130309
 ,-0.00429167,-0.00034266,-0.00005787,0.00006886,-0.00551250,-0.0015196
 5,0.00318315,0.00008981,-0.00077399,-0.00038432,0.04517507,-0.12482409
 ,-0.11033515,-0.00403815,0.00796640,0.00764212,0.00236374,0.00145879,-
 0.00209640,0.00039219,0.00044921,0.00073381,0.00009449,-0.00005233,-0.
 00004929,-0.00005684,0.00005392,-0.00000015,-0.00011354,0.00008617,-0.
 00001951,0.00003139,0.00006987,0.00002337,0.00001157,0.00003976,0.0000
 2534,-0.00030486,-0.00006939,0.00023746,0.00005317,-0.00013363,-0.0000
 4964,-0.04800331,0.13203971,0.10670832,-0.00153023,0.00033315,0.001626
 96,-0.01228579,-0.00332829,-0.02938311,0.00340246,0.00000288,0.0113385
 5,-0.07450631,-0.00573378,-0.08952333,-0.00020711,0.00013511,-0.000286
 18,0.00081600,-0.00003768,0.00151524,0.00001251,-0.00007853,-0.0001535
 6,0.00014434,0.00003318,-0.00025444,-0.00039951,-0.00000153,0.00014405
 ,-0.00007335,-0.00011600,-0.00019533,-0.00192293,0.00058250,-0.0016256
 2,-0.00028145,-0.00001522,0.00030095,0.00037126,-0.00023107,-0.0003309
 5,0.00297931,0.00125270,0.00668246,0.00016700,-0.00031427,0.00007627,-
 0.00001407,-0.00000465,-0.00000322,0.08624740,-0.00052238,0.00027439,0
 .00403362,0.00177911,0.00335325,0.00606600,0.00410392,-0.00190266,0.01
 430583,-0.00861594,-0.04300163,-0.03640916,-0.00050585,0.00067430,-0.0
 0069954,-0.00004683,-0.00108561,0.00352830,-0.00018763,-0.00007714,-0.
 00016950,0.00051137,0.00008928,-0.00096807,-0.00004198,0.00017865,0.00
 000372,-0.00003383,0.00008049,-0.00010471,0.00306284,-0.00171098,0.002
 42452,0.00068159,0.00026522,-0.00057424,-0.00078340,-0.00008052,0.0005
 1534,-0.01124853,-0.00207168,-0.02787313,0.00185898,-0.00078054,0.0033
 1220,-0.00002407,-0.00011538,0.00001928,0.00891619,0.05154495,0.001112
 06,0.00000496,-0.00133914,0.00362190,-0.00194792,0.00231169,-0.0034270
 3,0.00093036,-0.00921401,-0.09899921,-0.02807461,-0.28572813,-0.000928
 03,-0.00067497,0.00002463,0.00080178,-0.00168432,0.00010779,0.00012627
 ,0.00034398,0.00008130,-0.00029859,-0.00016489,0.00014322,0.00044040,-
 0.00000358,0.00001326,0.00017933,0.00002652,0.00017831,0.00161998,-0.0
 0145806,0.00080426,0.00030409,-0.00005296,-0.00037237,-0.00036696,0.00
 014593,0.00022527,-0.00373156,-0.00122677,-0.01062489,0.00079372,0.000
 72372,0.00149249,0.00001622,0.00007417,-0.00000705,0.09833861,0.030056
 73,0.30129768,-0.00107316,-0.00079388,0.00116860,-0.11295781,0.0629484
 8,0.11343925,-0.00226222,0.00008826,0.00085851,-0.00781336,0.01084483,
 0.01757639,0.00075092,-0.00016315,0.00045346,-0.00012886,0.00101049,0.
 00005569,-0.00005891,-0.00002504,0.00000352,-0.00015804,0.00003065,0.0
 0037379,-0.00000718,-0.00000322,-0.00002286,-0.00015740,0.00007178,0.0
 0003100,-0.00034004,0.00065978,0.00057078,-0.00012306,0.00004737,0.000
 15772,-0.00012122,0.00002194,0.00013618,-0.00272446,-0.00304517,-0.000
 00213,0.00055859,0.00093191,-0.00032270,0.00002185,-0.00012171,0.00005
 980,0.00053491,-0.00022394,0.00056950,0.11980938,-0.00114542,-0.000286
 38,0.00270295,0.05541920,-0.07128276,-0.10606848,-0.00145249,-0.004108
 49,0.00435547,0.00596062,0.00043401,-0.00595089,0.00172273,0.00020304,
 0.00178990,-0.00014705,0.00171782,-0.00023088,-0.00004265,-0.00000600,
 -0.00005113,0.00004713,0.00016183,-0.00036964,-0.00004062,0.00004497,0
 .00000173,0.00009028,-0.00002321,-0.00005567,0.00004464,-0.00033539,-0
 .00041884,0.00005165,0.00001189,-0.00005929,0.00008914,-0.00004057,-0.
 00009693,0.00259549,0.00120236,-0.00096225,-0.00057938,0.00019524,0.00
 031751,-0.00006471,-0.00016005,-0.00006479,-0.00116218,-0.00073491,0.0
 0089428,-0.06162322,0.07914523,0.00036822,-0.00014547,-0.00131822,0.10
 893216,-0.11180036,-0.24637433,-0.00005565,0.00238920,-0.00188348,-0.0
 0738469,0.00222098,0.00741896,-0.00141034,-0.00030883,-0.00025536,0.00
 042663,-0.00114380,0.00003025,-0.00001787,0.00000539,0.00003474,-0.000
 11288,-0.00014635,0.00029328,0.00001087,-0.00001385,-0.00000506,-0.000
 11286,0.00004263,0.00004530,-0.00012545,0.00018357,0.00035515,-0.00002
 146,0.00001584,0.00004266,-0.00009282,0.00003324,0.00009732,-0.0019706
 1,-0.00009656,0.00058321,0.00025563,-0.00012753,-0.00010039,0.00009616
 ,0.00015788,0.00000478,0.00068132,0.00080728,0.00049710,-0.11240447,0.
 11391299,0.25414493,-0.01293826,-0.01004857,0.01522553,-0.15483373,-0.
 03725648,-0.10039714,-0.00464737,0.00281497,-0.00185501,-0.02959774,-0
 .01208331,-0.01781746,0.00188547,0.00036962,-0.00094103,0.00329710,0.0
 0350649,-0.00164324,-0.00031614,-0.00029965,0.00036484,-0.00072670,-0.
 00019086,0.00026078,0.00023349,-0.00007672,0.00016840,-0.00006294,0.00
 014593,-0.00004904,0.00024888,-0.00045499,-0.00053870,0.00023201,-0.00
 017689,0.00013101,-0.00031047,0.00035448,0.00039204,-0.00614923,0.0033
 7248,-0.00205190,0.00111964,-0.00277307,0.00086545,0.00028101,0.000219
 81,0.00041752,-0.00309129,0.00129994,-0.00020201,0.01068808,0.00765411
 ,0.01572274,0.39170533,-0.01786651,-0.01229226,0.01850929,-0.03601313,
 -0.07417665,-0.07944713,0.00241618,0.00328611,-0.00092583,-0.00173877,
 -0.00139506,0.00721170,0.00056760,0.00023513,-0.00279419,0.00094177,-0
 .00087104,-0.00313772,-0.00007619,-0.00033669,0.00018618,-0.00056472,0
 .00097531,-0.00008174,-0.00008132,-0.00030689,-0.00008819,0.00017510,-
 0.00030065,-0.00010195,0.00053592,-0.00007440,0.00099492,-0.00024024,-
 0.00044429,-0.00032077,0.00059260,-0.00015895,-0.00085273,0.00635655,0
 .00749833,0.00584087,-0.00279873,-0.00558731,-0.00147998,-0.00002790,0
 .00001826,0.00002964,0.00349382,0.00003146,-0.00163232,-0.00839904,-0.
 00995503,-0.00319303,-0.03997785,0.33763287,-0.02850145,-0.00805713,0.
 03002223,-0.06847749,-0.05472961,-0.19942933,0.00136142,0.00943599,-0.
 00493597,-0.03174125,-0.00671759,0.00428523,0.00069812,-0.00176185,-0.
 00279473,0.00642013,0.00105944,-0.00707487,0.00007728,-0.00023706,-0.0
 0028220,-0.00121485,0.00043195,0.00017531,-0.00005408,-0.00047513,-0.0
 0005166,-0.00010360,-0.00026112,0.00003866,0.00066397,-0.00059355,0.00
 008219,-0.00037717,-0.00068041,-0.00049344,0.00154324,-0.00016570,-0.0
 0160662,0.00764997,0.00787565,0.00558089,-0.00313148,-0.00515736,-0.00
 212079,-0.00012138,0.00009391,-0.00003550,-0.00131863,-0.00115245,0.00
 072004,-0.01783804,-0.00933913,-0.01301105,-0.04873543,0.32427398,0.76
 972275,-0.00807957,0.00091642,0.00861076,0.02903321,0.00304500,-0.0076
 7724,0.00224275,0.00251112,-0.00030108,-0.00510127,-0.00214107,0.00043
 841,-0.00116366,-0.00022413,-0.00250577,0.00108142,-0.00192842,-0.0026
 1437,0.00021206,0.00003150,-0.00027768,-0.00017551,0.00041462,0.000002
 76,-0.00011690,-0.00020010,-0.00009438,0.00000366,-0.00017543,0.000047
 64,-0.00023096,0.00011958,0.00032617,-0.00037752,-0.00031886,-0.000433
 80,0.00044223,-0.00026560,-0.00120625,0.00340581,0.00175332,0.00263183
 ,-0.00183375,-0.00047038,-0.00183374,-0.00013732,-0.00004723,-0.000166
 55,0.00013277,-0.00097461,-0.00012476,-0.00212178,-0.00312084,-0.00339
 592,-0.14480995,0.09104541,0.16040069,0.15869953,0.00340670,0.00266089
 ,-0.00815383,-0.00390860,-0.01212074,-0.03600385,-0.00066183,-0.003087
 92,0.00129067,0.00419819,0.00146161,0.00064781,-0.00166103,-0.00004603
 ,0.00104598,-0.00133143,-0.00124548,0.00041040,0.00032305,0.00035814,-
 0.00043026,0.00039335,-0.00061365,0.00003408,0.00002502,0.00028012,0.0
 0009853,-0.00007280,0.00024208,0.00001754,-0.00021821,0.00018757,-0.00
 085163,0.00010893,0.00031315,0.00032702,-0.00042075,-0.00006095,0.0008
 8303,-0.00381071,-0.00636006,-0.00228795,0.00347508,0.00358337,0.00197
 854,-0.00004197,0.00001580,-0.00011940,-0.00043532,0.00016530,0.000646
 70,-0.00178411,0.00462667,-0.00358283,0.08793138,-0.21549168,-0.266041
 57,-0.10451987,0.23009733,0.01803509,0.00397565,-0.02026213,-0.0134943
 6,-0.05314742,-0.05202599,-0.00088967,-0.00282225,-0.00026629,0.015331
 11,0.00561516,-0.00258394,-0.00118310,0.00070750,0.00270133,-0.0028664
 8,-0.00088116,0.00452725,0.00005829,0.00034605,0.00016910,0.00065739,-
 0.00031743,0.00021985,0.00015751,0.00026543,0.00008651,-0.00012531,0.0
 0011832,-0.00002321,-0.00039031,0.00036159,0.00002271,0.00024505,0.000
 37667,0.00042840,-0.00138235,0.00022721,0.00115735,-0.00268256,-0.0058
 5529,-0.00431332,0.00099486,0.00366806,0.00045381,0.00013265,0.0000913
 0,0.00006599,0.00056746,0.00005369,0.00040564,-0.00297508,-0.00250979,
 -0.00116745,0.14901379,-0.25678522,-0.52878660,-0.17665791,0.32009528,
 0.59054216,-0.21470305,0.13076986,0.03727884,-0.03162514,-0.02055377,0
 .01991687,-0.13214348,0.03127037,-0.08463060,0.00328794,0.00386767,-0.
 01064577,0.01126275,-0.00103406,0.00763994,-0.01240244,-0.00509295,-0.
 03179004,0.00114956,-0.00048794,-0.00234362,-0.02000217,0.00713552,-0.
 02749404,-0.00395922,0.00491912,0.00102758,0.00321113,-0.00152578,-0.0
 0076631,0.00085302,-0.00162939,-0.00070271,0.00031292,0.00017408,-0.00
 031158,0.00009997,-0.00004379,-0.00034162,-0.00411523,0.00008475,0.004
 34004,0.00211580,0.00010719,-0.00124619,-0.00147405,-0.00074009,-0.002
 79638,0.00080181,0.00095456,0.00009750,-0.00004833,-0.00448319,0.00195
 358,0.00745104,0.00726369,0.02907854,0.00345484,-0.00544675,-0.0092133
 6,0.51234411,0.14438638,-0.20059577,-0.10238544,0.00973425,-0.00170232
 ,0.01016309,0.02416041,-0.09321904,-0.00391678,-0.00607494,-0.01144547
 ,0.04237133,-0.00116793,-0.02856928,-0.05533010,-0.00665916,-0.0162488
 9,-0.03395435,0.00156728,-0.00468099,-0.00205439,0.01213687,-0.0058085
 2,0.02021103,0.00270750,-0.00279031,-0.00057354,-0.00180703,0.00110755
 ,0.00006297,0.00023848,0.00084632,-0.00017897,-0.00002439,0.00017875,0
 .00003089,0.00018576,-0.00019474,-0.00002955,0.00193374,0.00152484,-0.
 00239746,-0.00008392,0.00110389,0.00024239,-0.00190676,0.00029858,-0.0
 0369391,-0.00298867,-0.00484630,0.00286699,-0.00000958,-0.00039527,0.0
 0032315,-0.00354218,-0.00897500,-0.01111778,-0.01140718,-0.00080356,0.
 01172315,-0.06966940,0.64083336,0.03197853,-0.09977147,-0.11741799,0.0
 0744641,0.02523742,-0.02030689,-0.07875314,-0.01985179,-0.14987262,0.0
 2181808,0.01909739,-0.04093270,0.00906696,-0.02483340,-0.03027740,-0.0
 1395344,-0.01083936,-0.03996196,0.00211596,-0.00165526,-0.00156987,0.0
 0494371,0.00353727,0.00968920,0.00316428,-0.00232236,0.00053464,-0.000
 90593,0.00032545,0.00098615,-0.00103518,0.00182478,0.00157951,-0.00023
 133,-0.00032172,0.00028254,-0.00004720,0.00065199,0.00005514,0.0009576
 8,-0.00325408,0.00034607,-0.00158196,-0.00113231,0.00072454,-0.0037172
 6,-0.00104762,-0.00123458,0.00194243,0.00279969,-0.00122192,-0.0007737
 5,0.00133271,-0.00040269,-0.00591567,-0.00821060,-0.02150576,-0.004398
 08,0.00128519,0.01375363,0.14100916,0.27637913,0.52238696,0.01737113,0
 .01844505,0.01442978,-0.00494247,-0.00392764,-0.00232867,-0.00417036,-
 0.01892259,-0.00418944,0.00297561,0.00088075,-0.00103921,-0.00312232,0
 .00364216,0.00320599,-0.00301808,0.00161005,-0.00305138,0.00057662,-0.
 00028438,-0.00063722,0.00007188,-0.00035247,0.00029294,0.00019137,-0.0
 0009034,0.00028129,-0.00058066,0.00002976,0.00008163,-0.00047124,0.000
 34070,-0.00008151,0.00011740,0.00000703,0.00041104,-0.00019367,0.00126
 400,0.00047672,0.00156801,-0.00032996,-0.00130736,-0.00076087,-0.00006
 152,0.00039657,0.00087085,0.00046150,0.00079939,-0.00011024,-0.0000176
 6,-0.00000816,-0.00019328,0.00016702,-0.00036809,-0.00377572,0.0067629
 5,0.01720412,0.00332820,-0.00174350,-0.01156639,-0.10918481,-0.0947647
 0,-0.10372313,0.10259364,-0.00787961,-0.01390748,-0.01300570,-0.004228
 00,-0.00442603,-0.00200634,0.00196988,0.01341393,0.00805366,0.00222004
 ,0.00107502,-0.00041002,0.00270986,-0.00122623,-0.00095831,0.00232675,
 -0.00090334,0.00366802,-0.00006878,0.00098014,0.00046780,-0.00002570,0
 .00054095,0.00014318,0.00007719,-0.00031678,-0.00002143,-0.00023409,-0
 .00001413,-0.00009374,0.00046718,0.00031220,0.00042373,-0.00027670,-0.
 00017137,-0.00035183,0.00094641,-0.00108856,-0.00053667,-0.00007032,-0
 .00003883,0.00170522,-0.00003672,-0.00034875,-0.00027963,-0.00004627,0
 .00045886,-0.00074755,-0.00009638,-0.00031202,0.00003510,-0.00006377,0
 .00023271,-0.00032720,-0.00300347,0.00781649,0.01397816,0.00433558,-0.
 00540316,-0.01015787,-0.08854942,-0.26361609,-0.17123171,0.08774922,0.
 26739925,0.00129134,-0.01149476,-0.01505016,-0.00177288,-0.00317746,0.
 00012063,-0.00239214,-0.01439125,-0.01292640,-0.00151084,-0.00080794,-
 0.00022654,0.00225311,-0.00368406,0.00507460,-0.00357736,0.00294042,-0
 .00030270,-0.00012400,-0.00103287,0.00010270,-0.00008049,0.00034036,0.
 00010506,0.00006705,0.00004517,-0.00015721,0.00044171,0.00005098,-0.00
 004502,-0.00014756,0.00002243,-0.00035146,0.00010362,-0.00000843,-0.00
 004403,0.00017632,-0.00028217,0.00034714,-0.00109755,0.00191282,0.0000
 1027,0.00034792,-0.00046405,-0.00012829,-0.00038794,-0.00024603,-0.000
 03155,0.00003079,0.00001945,0.00029201,0.00004385,-0.00020041,0.000309
 99,0.00529664,0.00140567,0.00146502,-0.00082816,-0.00093594,-0.0027521
 3,-0.08908618,-0.14450284,-0.13988575,0.09126785,0.17200732,0.16494203
 ,-0.26786409,0.06710964,-0.12474437,-0.00070955,-0.00204627,0.00058808
 ,0.00175564,0.00152874,0.00331557,0.00018491,-0.00015567,-0.00058501,-
 0.00214046,0.00414318,-0.00046835,0.00064445,-0.00014647,-0.00195828,-
 0.00014563,0.00000242,0.00005313,0.00011493,0.00046034,-0.00089376,-0.
 00012533,0.00017298,0.00006318,0.00015330,-0.00007082,0.00000813,-0.00
 013626,-0.00012675,-0.00006675,0.00004166,0.00004565,-0.00001285,0.000
 02404,0.00000089,-0.00001373,0.00006176,0.00028615,0.00038175,0.000030
 54,-0.00011561,-0.00008404,-0.00033201,-0.00058278,0.00040830,0.000150
 47,-0.00006375,0.00000150,0.00006800,-0.00003215,0.00006961,0.00297600
 ,-0.00070368,0.00274757,-0.00055229,0.00028246,-0.00084021,-0.01341277
 ,0.00353144,-0.01120099,-0.00041143,-0.00031025,0.00110630,0.28009010,
 0.07017603,-0.06426759,0.01918760,-0.00099623,-0.00376107,0.00134847,0
 .00639933,-0.00128929,-0.00291279,-0.00024948,0.00033965,-0.00089971,-
 0.01422180,0.01045870,-0.00518279,-0.00114771,-0.00206114,-0.00408886,
 -0.00086249,0.00051290,-0.00001374,0.00098432,0.00091355,0.00101357,0.
 00034916,-0.00030072,-0.00012100,0.00007347,-0.00002091,0.00001874,-0.
 00024250,0.00003509,-0.00002183,0.00001889,0.00002106,-0.00002855,0.00
 002305,-0.00001155,-0.00002117,0.00040650,0.00028969,0.00007492,-0.000
 09106,-0.00001439,-0.00000883,0.00017284,-0.00040227,0.00106657,0.0001
 0230,-0.00000502,0.00001865,-0.00000795,-0.00006617,0.00009661,0.00259
 240,-0.00096372,0.00551892,-0.00024262,0.00027125,-0.00219223,0.011279
 58,-0.00206156,0.01219408,-0.00031048,0.00039153,0.00191195,-0.0737923
 1,0.06151799,-0.13633335,0.02483420,-0.12163113,0.00007663,0.00209394,
 -0.00105535,-0.00187061,-0.00322270,-0.00247482,0.00047961,-0.00013115
 ,0.00060010,-0.01005022,0.00894876,-0.00004945,-0.00331126,-0.00216513
 ,-0.00163709,-0.00072024,0.00050018,0.00033346,0.00016982,-0.00050723,
 0.00078580,0.00018944,-0.00017602,0.00001222,-0.00013948,0.00006937,-0
 .00002033,0.00010210,0.00017446,0.00005578,-0.00002999,-0.00002797,0.0
 0002168,-0.00000804,0.00001460,0.00001133,-0.00011732,-0.00019121,-0.0
 0016797,0.00000186,0.00002856,0.00004183,0.00078868,0.00046919,-0.0001
 4626,-0.00017244,-0.00006733,0.00006988,-0.00004719,0.00011966,-0.0001
 4528,-0.00218238,0.00060975,-0.00208006,0.00041387,0.00006141,0.000695
 46,0.01977352,-0.00486268,0.01363787,0.00003151,0.00048510,-0.00077242
 ,0.13234795,-0.02658841,0.11390866,0.00073903,0.00191399,-0.00502148,-
 0.03777006,0.00417836,0.00091085,0.00029305,-0.00180712,0.00089809,0.0
 0253179,-0.00166332,-0.00416090,0.00037956,-0.00015168,0.00089489,-0.0
 0150831,0.00012944,0.00062576,0.00014264,0.00017131,-0.00015376,0.0002
 0258,0.00001161,0.00015089,-0.00003137,-0.00000549,-0.00009628,-0.0000
 3844,0.00001080,0.00009204,-0.00037334,0.00040469,0.00019332,-0.000192
 23,0.00001058,-0.00011643,0.00029669,-0.00016392,-0.00038016,0.0020637
 5,-0.00283793,0.00135583,-0.00017074,0.00182415,-0.00091265,-0.0000680
 1,-0.00006682,-0.00016728,-0.00133794,0.00012192,0.00006345,-0.0021426
 4,0.00005190,-0.00104381,-0.05885853,-0.01166354,-0.02623021,-0.037336
 00,0.02591273,0.03907388,-0.00327422,-0.00047626,0.00179386,0.00127042
 ,0.00208736,-0.00142139,-0.00046600,-0.00041326,0.00060755,0.13564832,
 -0.00089497,-0.00005924,0.00119732,-0.00136460,0.00716794,-0.00140728,
 0.00009684,0.00139851,-0.00099437,-0.00243228,0.00187877,-0.00064352,-
 0.00041125,0.00008107,-0.00008822,0.00061844,-0.00027152,-0.00026397,0
 .00000427,0.00003760,-0.00002008,-0.00000587,-0.00007096,-0.00001225,0
 .00002654,0.00000703,0.00001274,-0.00001475,-0.00000955,0.00001238,0.0
 0008458,-0.00008214,0.00012526,0.00006310,0.00001969,0.00002524,-0.000
 16673,0.00003752,0.00012500,-0.00034647,-0.00015555,-0.00090250,0.0000
 1255,0.00012836,0.00012765,0.00006607,0.00006528,0.00008037,-0.0003082
 5,0.00006710,0.00015232,-0.00039171,-0.00058155,0.00069707,-0.00037759
 ,-0.02616436,0.00381945,0.02186378,0.00096994,-0.01295639,0.00143014,0
 .00005981,-0.00019343,-0.00055495,-0.00084832,0.00057163,0.00058260,0.
 00047399,-0.00046935,-0.01757951,0.01585057,0.00073176,-0.00024483,-0.
 00042696,-0.01360748,0.00067454,0.00359123,-0.00044577,-0.00027837,-0.
 00005769,-0.00098852,-0.00124235,0.00015582,0.00049991,0.00006415,0.00
 013839,-0.00026742,0.00035153,0.00026441,-0.00002180,-0.00003034,0.000
 04902,-0.00003941,-0.00007880,0.00011109,0.00002747,0.00002610,0.00001
 353,-0.00003553,0.00004372,0.00001125,-0.00003987,-0.00000152,-0.00003
 544,0.00002594,0.00002960,0.00006578,-0.00010850,0.00003558,0.00016223
 ,-0.00049807,-0.00057053,-0.00065468,0.00024160,0.00017048,0.00029567,
 0.00002619,0.00003398,-0.00001214,0.00000172,0.00007247,-0.00015708,-0
 .00111181,0.00095091,0.00080562,-0.00552973,-0.00001060,-0.02788373,0.
 02964356,-0.01041491,-0.00304812,-0.00074716,0.00062366,0.00061388,-0.
 00057828,-0.00083928,-0.00009581,-0.00022274,-0.00037015,0.00000608,-0
 .00695606,0.01100495,0.02608763\\-0.00000029,0.00000065,-0.00000064,-0
 .00000032,-0.00000080,-0.00000105,0.00000069,0.00000070,0.00000023,-0.
 00000059,-0.00000027,-0.00000034,-0.00000117,0.00000071,0.00000155,-0.
 00000092,-0.00000054,0.00000128,-0.00000155,-0.00000012,0.00000184,0.0
 0000057,0.00000113,0.00000106,-0.00000012,0.00000078,0.00000146,0.0000
 0072,0.00000154,0.00000146,0.00000080,0.00000058,-0.00000001,0.0000011
 9,0.00000097,0.00000013,0.00000148,0.00000111,-0.00000022,0.00000025,-
 0.00000034,-0.00000086,0.00000078,-0.00000034,-0.00000099,-0.00000170,
 -0.00000061,0.00000119,-0.00000099,-0.00000077,-0.00000006,-0.00000112
 ,-0.00000140,-0.00000096,0.00000157,0.00000023,-0.00000181,0.00000100,
 -0.00000082,-0.00000144,0.00000105,-0.00000027,0.00000135,-0.00000123,
 -0.00000049,-0.00000039,-0.00000004,-0.00000020,-0.00000015,-0.0000000
 5,-0.00000143,-0.00000262\\\@
 The archive entry for this job was punched.


 IT IS THE BEHAVIOR AND DISTRIBUTION OF THE ELECTRONS 
 AROUND THE NUCLEUS THAT GIVES THE FUNDAMENTAL 
 CHARACTER OF AN ATOM:  IT MUST BE THE SAME FOR MOLECULES.

                               -- C. A. COULSON, 1951
 Job cpu time:       0 days  3 hours 55 minutes 27.4 seconds.
 Elapsed time:       0 days  0 hours 40 minutes 15.6 seconds.
 File lengths (MBytes):  RWF=      6 Int=      0 D2E=      0 Chk=      2 Scr=      1
 Normal termination of Gaussian 16 at Wed Jan 17 20:55:57 2024.
