Unloading slurm/anatra/current
  ERROR: No such file or directory on
    '/cm/local/modulefiles/slurm/anatra/current'
environment: line 0: unalias: gv: not found
environment: line 0: unalias: sl: not found
 Entering Gaussian System, Link 0=g16
 Initial command:
 /apps/gaussian/g16/C.01/g16/l1.exe "/local/jobs/1151653/Gau-2045277.inp" -scrdir="/local/jobs/1151653/"
 Entering Link 1 = /apps/gaussian/g16/C.01/g16/l1.exe PID=   2045280.
  
 Copyright (c) 1988-2019, Gaussian, Inc.  All Rights Reserved.
  
 This is part of the Gaussian(R) 16 program.  It is based on
 the Gaussian(R) 09 system (copyright 2009, Gaussian, Inc.),
 the Gaussian(R) 03 system (copyright 2003, Gaussian, Inc.),
 the Gaussian(R) 98 system (copyright 1998, Gaussian, Inc.),
 the Gaussian(R) 94 system (copyright 1995, Gaussian, Inc.),
 the Gaussian 92(TM) system (copyright 1992, Gaussian, Inc.),
 the Gaussian 90(TM) system (copyright 1990, Gaussian, Inc.),
 the Gaussian 88(TM) system (copyright 1988, Gaussian, Inc.),
 the Gaussian 86(TM) system (copyright 1986, Carnegie Mellon
 University), and the Gaussian 82(TM) system (copyright 1983,
 Carnegie Mellon University). Gaussian is a federally registered
 trademark of Gaussian, Inc.
  
 This software contains proprietary and confidential information,
 including trade secrets, belonging to Gaussian, Inc.
  
 This software is provided under written license and may be
 used, copied, transmitted, or stored only in accord with that
 written license.
  
 The following legend is applicable only to US Government
 contracts under FAR:
  
                    RESTRICTED RIGHTS LEGEND
  
 Use, reproduction and disclosure by the US Government is
 subject to restrictions as set forth in subparagraphs (a)
 and (c) of the Commercial Computer Software - Restricted
 Rights clause in FAR 52.227-19.
  
 Gaussian, Inc.
 340 Quinnipiac St., Bldg. 40, Wallingford CT 06492
  
  
 ---------------------------------------------------------------
 Warning -- This program may not be used in any manner that
 competes with the business of Gaussian, Inc. or will provide
 assistance to any competitor of Gaussian, Inc.  The licensee
 of this program is prohibited from giving any competitor of
 Gaussian, Inc. access to this program.  By using this program,
 the user acknowledges that Gaussian, Inc. is engaged in the
 business of creating and licensing software in the field of
 computational chemistry and represents and warrants to the
 licensee that it is not a competitor of Gaussian, Inc. and that
 it will not use this program in any manner prohibited above.
 ---------------------------------------------------------------
  

 Cite this work as:
 Gaussian 16, Revision C.01,
 M. J. Frisch, G. W. Trucks, H. B. Schlegel, G. E. Scuseria, 
 M. A. Robb, J. R. Cheeseman, G. Scalmani, V. Barone, 
 G. A. Petersson, H. Nakatsuji, X. Li, M. Caricato, A. V. Marenich, 
 J. Bloino, B. G. Janesko, R. Gomperts, B. Mennucci, H. P. Hratchian, 
 J. V. Ortiz, A. F. Izmaylov, J. L. Sonnenberg, D. Williams-Young, 
 F. Ding, F. Lipparini, F. Egidi, J. Goings, B. Peng, A. Petrone, 
 T. Henderson, D. Ranasinghe, V. G. Zakrzewski, J. Gao, N. Rega, 
 G. Zheng, W. Liang, M. Hada, M. Ehara, K. Toyota, R. Fukuda, 
 J. Hasegawa, M. Ishida, T. Nakajima, Y. Honda, O. Kitao, H. Nakai, 
 T. Vreven, K. Throssell, J. A. Montgomery, Jr., J. E. Peralta, 
 F. Ogliaro, M. J. Bearpark, J. J. Heyd, E. N. Brothers, K. N. Kudin, 
 V. N. Staroverov, T. A. Keith, R. Kobayashi, J. Normand, 
 K. Raghavachari, A. P. Rendell, J. C. Burant, S. S. Iyengar, 
 J. Tomasi, M. Cossi, J. M. Millam, M. Klene, C. Adamo, R. Cammi, 
 J. W. Ochterski, R. L. Martin, K. Morokuma, O. Farkas, 
 J. B. Foresman, and D. J. Fox, Gaussian, Inc., Wallingford CT, 2019.
 
 ******************************************
 Gaussian 16:  ES64L-G16RevC.01  3-Jul-2019
                22-Dec-2023 
 ******************************************
 %chk=imda-2_1_hf.chk
 %nprocshared=12
 Will use up to   12 processors via shared memory.
 %mem=48GB
 ----------------------------------------------------------------------
 # wb97xd def2svp geom=allchk scrf=(iefpcm,solvent=toluene) opt=(readfc
 ,ts,noeigen,maxcycles=50,maxstep=10)
 ----------------------------------------------------------------------
 1/5=1,6=50,8=10,10=3,11=1,18=20,26=3,29=7,38=1/1,3;
 2/9=110,12=2,40=1/2;
 3/5=43,7=101,11=2,14=-4,25=1,30=1,70=2201,71=1,72=13,74=-58/1,2,3;
 4//1;
 5/5=2,38=5,53=13/2;
 6/7=2,8=2,9=2,10=2,28=1/1;
 7//1,2,3,16;
 1/5=1,6=50,8=10,11=1,18=20,26=3/3(2);
 2/9=110/2;
 99//99;
 2/9=110/2;
 3/5=43,7=101,11=2,14=-2,25=1,30=1,70=2205,71=1,72=13,74=-58/1,2,3;
 4/5=5,16=3,69=1/1;
 5/5=2,38=5,53=13/2;
 7//1,2,3,16;
 1/5=1,6=50,8=10,11=1,18=20,26=3/3(-5);
 2/9=110/2;
 6/7=2,8=2,9=2,10=2,19=2,28=1/1;
 99/9=1/99;
 Structure from the checkpoint file:  "imda-2_1_hf.chk"
 ---------------------
 3g_exo_ts_6_reopt.out
 ---------------------
 Charge =  0 Multiplicity = 1
 Redundant internal coordinates found in file.  (old form).
 C,0,-4.8346,3.7854,0.0365
 C,0,-1.7865,3.9793,0.0384
 C,0,-4.3729,3.35,2.1885
 C,0,-1.7487,3.3478,1.2425
 C,0,-4.9631,2.4172,0.2144
 C,0,-4.6895,2.15,1.5606
 C,0,-3.8414,3.6679,3.5752
 H,0,-4.0576,4.7027,3.8491
 H,0,-4.3733,3.0742,4.3204
 C,0,-2.3142,3.4105,3.7246
 H,0,-1.9484,3.8447,4.6553
 H,0,-2.1374,2.3406,3.8284
 C,0,-1.4469,3.9039,2.5597
 O,0,-0.5628,4.731,2.7637
 H,0,-1.9814,2.2945,1.2663
 H,0,-2.0203,3.4106,-0.8485
 C,0,-1.5289,5.3718,-0.2522
 O,0,-0.9114,5.7109,-1.2583
 N,0,-4.5968,4.3433,1.2654
 H,0,-4.4649,5.3309,1.4421
 H,0,-4.9629,4.4127,-0.8356
 Br,0,-2.3577,6.7474,0.943
 H,0,-5.2134,1.6881,-0.5458
 H,0,-4.6699,1.1716,2.0208
 Recover connectivity data from disk.

 GradGradGradGradGradGradGradGradGradGradGradGradGradGradGradGradGradGrad
 Berny optimization.
 Initialization pass.
 Force constant matrix read from checkpoint file:
 "imda-2_1_hf.chk"
                           ----------------------------
                           !    Initial Parameters    !
                           ! (Angstroms and Degrees)  !
 --------------------------                            --------------------------
 ! Name  Definition              Value          Derivative Info.                !
 --------------------------------------------------------------------------------
 ! R1    R(1,5)                  1.3857         D2E/DX2 =    0.4129             !
 ! R2    R(1,19)                 1.3704         D2E/DX2 =    0.3789             !
 ! R3    R(1,21)                 1.0819         D2E/DX2 =    0.3906             !
 ! R4    R(2,4)                  1.3602         D2E/DX2 =    0.5854             !
 ! R5    R(2,16)                 1.0792         D2E/DX2 =    0.3952             !
 ! R6    R(2,17)                 1.4456         D2E/DX2 =    0.4235             !
 ! R7    R(3,6)                  1.3909         D2E/DX2 =    0.4002             !
 ! R8    R(3,7)                  1.5187         D2E/DX2 =    0.3208             !
 ! R9    R(3,19)                 1.3744         D2E/DX2 =    0.375              !
 ! R10   R(4,13)                 1.4613         D2E/DX2 =    0.3846             !
 ! R11   R(4,15)                 1.079          D2E/DX2 =    0.3955             !
 ! R12   R(5,6)                  1.3995         D2E/DX2 =    0.3925             !
 ! R13   R(5,23)                 1.0827         D2E/DX2 =    0.3872             !
 ! R14   R(6,24)                 1.0814         D2E/DX2 =    0.3889             !
 ! R15   R(7,8)                  1.0921         D2E/DX2 =    0.3576             !
 ! R16   R(7,9)                  1.0912         D2E/DX2 =    0.3594             !
 ! R17   R(7,10)                 1.5559         D2E/DX2 =    0.3102             !
 ! R18   R(10,11)                1.0902         D2E/DX2 =    0.3649             !
 ! R19   R(10,12)                1.0894         D2E/DX2 =    0.3625             !
 ! R20   R(10,13)                1.5338         D2E/DX2 =    0.3026             !
 ! R21   R(13,14)                1.2277         D2E/DX2 =    0.8223             !
 ! R22   R(17,18)                1.2282         D2E/DX2 =    0.728              !
 ! R23   R(17,22)                2.0019         D2E/DX2 =    0.1184             !
 ! R24   R(19,20)                1.0119         D2E/DX2 =    0.4859             !
 ! A1    A(5,1,19)             107.6339         D2E/DX2 =    0.1037             !
 ! A2    A(5,1,21)             131.6809         D2E/DX2 =    0.0838             !
 ! A3    A(19,1,21)            120.4894         D2E/DX2 =    0.0944             !
 ! A4    A(4,2,16)             119.2666         D2E/DX2 =    0.1228             !
 ! A5    A(4,2,17)             128.3318         D2E/DX2 =    0.2035             !
 ! A6    A(16,2,17)            112.3956         D2E/DX2 =    0.1218             !
 ! A7    A(6,3,7)              132.2577         D2E/DX2 =    0.1061             !
 ! A8    A(6,3,19)             106.4546         D2E/DX2 =    0.1071             !
 ! A9    A(7,3,19)             121.2652         D2E/DX2 =    0.1228             !
 ! A10   A(2,4,13)             128.8308         D2E/DX2 =    0.1373             !
 ! A11   A(2,4,15)             117.8248         D2E/DX2 =    0.1086             !
 ! A12   A(13,4,15)            113.3386         D2E/DX2 =    0.1082             !
 ! A13   A(1,5,6)              107.0909         D2E/DX2 =    0.1018             !
 ! A14   A(1,5,23)             126.6004         D2E/DX2 =    0.0852             !
 ! A15   A(6,5,23)             126.3031         D2E/DX2 =    0.085              !
 ! A16   A(3,6,5)              108.3027         D2E/DX2 =    0.1033             !
 ! A17   A(3,6,24)             125.7573         D2E/DX2 =    0.0865             !
 ! A18   A(5,6,24)             125.8487         D2E/DX2 =    0.0863             !
 ! A19   A(3,7,8)              110.982          D2E/DX2 =    0.0884             !
 ! A20   A(3,7,9)              109.8207         D2E/DX2 =    0.0979             !
 ! A21   A(3,7,10)             113.3627         D2E/DX2 =    0.4922             !
 ! A22   A(8,7,9)              104.3456         D2E/DX2 =    0.0291             !
 ! A23   A(8,7,10)             109.0866         D2E/DX2 =    0.088              !
 ! A24   A(9,7,10)             108.8361         D2E/DX2 =    0.1142             !
 ! A25   A(7,10,11)            110.2076         D2E/DX2 =    0.123              !
 ! A26   A(7,10,12)            109.3249         D2E/DX2 =    0.1095             !
 ! A27   A(7,10,13)            115.3956         D2E/DX2 =    0.6854             !
 ! A28   A(11,10,12)           104.7948         D2E/DX2 =    0.0317             !
 ! A29   A(11,10,13)           109.2999         D2E/DX2 =    0.1354             !
 ! A30   A(12,10,13)           107.249          D2E/DX2 =    0.0955             !
 ! A31   A(4,13,10)            116.4481         D2E/DX2 =    0.2756             !
 ! A32   A(4,13,14)            123.7019         D2E/DX2 =    0.189              !
 ! A33   A(10,13,14)           119.8476         D2E/DX2 =    0.2108             !
 ! A34   A(2,17,18)            121.3453         D2E/DX2 =    0.18               !
 ! A35   A(2,17,22)            117.9109         D2E/DX2 =    0.253              !
 ! A36   A(18,17,22)           120.4965         D2E/DX2 =    0.1736             !
 ! A37   A(1,19,3)             109.6542         D2E/DX2 =    0.1108             !
 ! A38   A(1,19,20)            125.207          D2E/DX2 =    0.0914             !
 ! A39   A(3,19,20)            124.5306         D2E/DX2 =    0.0919             !
 ! D1    D(19,1,5,6)            -4.7198         D2E/DX2 =    0.0175             !
 ! D2    D(19,1,5,23)          176.104          D2E/DX2 =    0.0101             !
 ! D3    D(21,1,5,6)          -179.5082         D2E/DX2 =    0.0098             !
 ! D4    D(21,1,5,23)            1.3156         D2E/DX2 =    0.0075             !
 ! D5    D(5,1,19,3)             8.9252         D2E/DX2 =    0.0166             !
 ! D6    D(5,1,19,20)         -179.7054         D2E/DX2 =    0.0082             !
 ! D7    D(21,1,19,3)         -175.5901         D2E/DX2 =    0.0094             !
 ! D8    D(21,1,19,20)          -4.2208         D2E/DX2 =    0.0051             !
 ! D9    D(16,2,4,13)          179.4107         D2E/DX2 =    0.0304             !
 ! D10   D(16,2,4,15)           -1.5237         D2E/DX2 =    0.0297             !
 ! D11   D(17,2,4,13)            0.3772         D2E/DX2 =    0.0588             !
 ! D12   D(17,2,4,15)          179.4428         D2E/DX2 =    0.0652             !
 ! D13   D(4,2,17,18)          140.4718         D2E/DX2 =    0.0321             !
 ! D14   D(4,2,17,22)          -45.2152         D2E/DX2 =    0.0419             !
 ! D15   D(16,2,17,18)         -38.6163         D2E/DX2 =    0.032              !
 ! D16   D(16,2,17,22)         135.6967         D2E/DX2 =    0.0679             !
 ! D17   D(7,3,6,5)           -171.8547         D2E/DX2 =    0.0165             !
 ! D18   D(7,3,6,24)             4.8279         D2E/DX2 =    0.0092             !
 ! D19   D(19,3,6,5)             6.3832         D2E/DX2 =    0.0147             !
 ! D20   D(19,3,6,24)         -176.9342         D2E/DX2 =    0.0085             !
 ! D21   D(6,3,7,8)           -158.945          D2E/DX2 =    0.023              !
 ! D22   D(6,3,7,9)            -44.0913         D2E/DX2 =    0.0189             !
 ! D23   D(6,3,7,10)            77.8829         D2E/DX2 =    0.0284             !
 ! D24   D(19,3,7,8)            23.0322         D2E/DX2 =    0.0169             !
 ! D25   D(19,3,7,9)           137.8858         D2E/DX2 =    0.0313             !
 ! D26   D(19,3,7,10)         -100.14           D2E/DX2 =    0.0448             !
 ! D27   D(6,3,19,1)            -9.4763         D2E/DX2 =    0.0143             !
 ! D28   D(6,3,19,20)          179.0831         D2E/DX2 =    0.0068             !
 ! D29   D(7,3,19,1)           168.998          D2E/DX2 =    0.0154             !
 ! D30   D(7,3,19,20)           -2.4426         D2E/DX2 =    0.0057             !
 ! D31   D(2,4,13,10)          139.0379         D2E/DX2 =    0.0639             !
 ! D32   D(2,4,13,14)          -40.3933         D2E/DX2 =    0.0382             !
 ! D33   D(15,4,13,10)         -40.0622         D2E/DX2 =    0.0501             !
 ! D34   D(15,4,13,14)         140.5067         D2E/DX2 =    0.0365             !
 ! D35   D(1,5,6,3)             -1.0649         D2E/DX2 =    0.0168             !
 ! D36   D(1,5,6,24)          -177.7436         D2E/DX2 =    0.01               !
 ! D37   D(23,5,6,3)           178.1145         D2E/DX2 =    0.01               !
 ! D38   D(23,5,6,24)            1.4357         D2E/DX2 =    0.0075             !
 ! D39   D(3,7,10,11)          168.2009         D2E/DX2 =    0.0368             !
 ! D40   D(3,7,10,12)          -77.1265         D2E/DX2 =    0.0214             !
 ! D41   D(3,7,10,13)           43.826          D2E/DX2 =    0.0263             !
 ! D42   D(8,7,10,11)           43.992          D2E/DX2 =    0.0187             !
 ! D43   D(8,7,10,12)          158.6646         D2E/DX2 =    0.033              !
 ! D44   D(8,7,10,13)          -80.3829         D2E/DX2 =    0.0177             !
 ! D45   D(9,7,10,11)          -69.2774         D2E/DX2 =    0.0244             !
 ! D46   D(9,7,10,12)           45.3951         D2E/DX2 =    0.0194             !
 ! D47   D(9,7,10,13)          166.3476         D2E/DX2 =    0.0238             !
 ! D48   D(7,10,13,4)          -58.9378         D2E/DX2 =    0.0496             !
 ! D49   D(7,10,13,14)         120.5166         D2E/DX2 =    0.0439             !
 ! D50   D(11,10,13,4)         176.2149         D2E/DX2 =    0.0347             !
 ! D51   D(11,10,13,14)         -4.3308         D2E/DX2 =    0.023              !
 ! D52   D(12,10,13,4)          63.1336         D2E/DX2 =    0.0235             !
 ! D53   D(12,10,13,14)       -117.412          D2E/DX2 =    0.0342             !
 --------------------------------------------------------------------------------
 Trust Radius=1.00D-01 FncErr=1.00D-07 GrdErr=1.00D-06 EigMax=2.50D+02 EigMin=1.00D-04
 Number of steps in this run=     50 maximum allowed number of steps=    144.
 Search for a saddle point of order  1.
 GradGradGradGradGradGradGradGradGradGradGradGradGradGradGradGradGradGrad

                          Input orientation:                          
 ---------------------------------------------------------------------
 Center     Atomic      Atomic             Coordinates (Angstroms)
 Number     Number       Type             X           Y           Z
 ---------------------------------------------------------------------
      1          6           0       -4.834600    3.785400    0.036500
      2          6           0       -1.786500    3.979300    0.038400
      3          6           0       -4.372900    3.350000    2.188500
      4          6           0       -1.748700    3.347800    1.242500
      5          6           0       -4.963100    2.417200    0.214400
      6          6           0       -4.689500    2.150000    1.560600
      7          6           0       -3.841400    3.667900    3.575200
      8          1           0       -4.057600    4.702700    3.849100
      9          1           0       -4.373300    3.074200    4.320400
     10          6           0       -2.314200    3.410500    3.724600
     11          1           0       -1.948400    3.844700    4.655300
     12          1           0       -2.137400    2.340600    3.828400
     13          6           0       -1.446900    3.903900    2.559700
     14          8           0       -0.562800    4.731000    2.763700
     15          1           0       -1.981400    2.294500    1.266300
     16          1           0       -2.020300    3.410600   -0.848500
     17          6           0       -1.528900    5.371800   -0.252200
     18          8           0       -0.911400    5.710900   -1.258300
     19          7           0       -4.596800    4.343300    1.265400
     20          1           0       -4.464900    5.330900    1.442100
     21          1           0       -4.962900    4.412700   -0.835600
     22         35           0       -2.357700    6.747400    0.943000
     23          1           0       -5.213400    1.688100   -0.545800
     24          1           0       -4.669900    1.171600    2.020800
 ---------------------------------------------------------------------
                    Distance matrix (angstroms):
                    1          2          3          4          5
     1  C    0.000000
     2  C    3.054262   0.000000
     3  C    2.243623   3.421756   0.000000
     4  C    3.341962   1.360176   2.789506   0.000000
     5  C    1.385688   3.544280   2.261752   3.500768   0.000000
     6  C    2.240194   3.753777   1.390861   3.191272   1.399467
     7  C    3.677316   4.102260   1.518713   3.150134   3.757318
     8  H    3.997635   4.494734   2.164903   3.736460   4.387993
     9  H    4.366967   5.083922   2.149666   4.054239   4.199851
    10  C    4.482750   3.766971   2.569340   2.546476   4.508306
    11  H    5.446740   4.621698   3.493999   3.454561   5.554076
    12  H    4.872457   4.143980   2.950529   2.802217   4.588185
    13  C    4.225765   2.545185   3.001012   1.461282   4.480443
    14  O    5.155585   3.080545   4.093272   2.373531   5.587060
    15  H    3.446149   2.093866   2.771968   1.078961   3.164188
    16  H    2.973884   1.079201   3.842105   2.109500   3.282784
    17  C    3.677997   1.445636   4.258289   2.525671   4.554240
    18  O    4.558021   2.333596   5.425519   3.541089   5.425272
    19  N    1.370400   3.088011   1.374369   3.017154   2.224553
    20  H    2.121547   3.312253   2.118854   3.369016   3.200796
    21  H    1.081908   3.322834   3.259235   3.972857   2.254888
    22  Br   3.966134   2.967650   4.141815   3.466679   5.105840
    23  H    2.209351   4.163476   3.308285   4.237543   1.082655
    24  H    3.285806   4.486322   2.204940   3.724917   2.213722
                    6          7          8          9         10
     6  C    0.000000
     7  C    2.661185   0.000000
     8  H    3.486088   1.092051   0.000000
     9  H    2.927563   1.091201   1.724472   0.000000
    10  C    3.451638   1.555929   2.173643   2.169785   0.000000
    11  H    4.467976   2.186624   2.415543   2.566314   1.090203
    12  H    3.419424   2.174730   3.044193   2.404055   1.089366
    13  C    3.819531   2.611621   3.019336   3.514582   1.533833
    14  O    5.013847   3.540894   3.659579   4.437140   2.394671
    15  H    2.727874   3.267544   4.096448   3.956848   2.720193
    16  H    3.810184   4.790796   5.280867   5.689227   4.582534
    17  C    4.863706   4.785386   4.864430   5.854763   4.503147
    18  O    5.907643   6.010114   6.082810   7.075227   5.664714
    19  N    2.215017   2.522295   2.663721   3.315659   3.482534
    20  H    3.191021   2.775687   2.520749   3.658647   3.677398
    21  H    3.307013   4.611686   4.780176   5.359435   5.368002
    22  Br   5.191802   4.314297   3.939020   5.381624   4.344432
    23  H    2.219176   4.773325   5.453332   5.129030   5.441354
    24  H    1.081404   3.055174   4.023215   2.999336   3.669459
                   11         12         13         14         15
    11  H    0.000000
    12  H    1.726789   0.000000
    13  C    2.155585   2.128449   0.000000
    14  O    2.506704   3.054008   1.227739   0.000000
    15  H    3.726866   2.567259   2.132778   3.192360   0.000000
    16  H    5.521361   4.799167   3.491126   4.112876   2.391563
    17  C    5.156702   5.119545   3.173048   3.231041   3.461268
    18  O    6.287188   6.223867   4.257832   4.154300   4.380673
    19  N    4.330594   4.077797   3.433679   4.320691   3.322333
    20  H    4.343526   4.478122   3.520466   4.163279   3.926627
    21  H    6.289660   5.833519   4.914183   5.693607   4.218305
    22  Br   4.730155   5.271997   3.395404   3.256145   4.480451
    23  H    6.508655   5.387129   5.361009   6.468393   3.754631
    24  H    4.636013   3.323783   4.259531   5.485390   3.009686
                   16         17         18         19         20
    16  H    0.000000
    17  C    2.107926   0.000000
    18  O    2.586305   1.228223   0.000000
    19  N    3.460759   3.573924   4.671356   0.000000
    20  H    3.861408   3.390047   4.479277   1.011916   0.000000
    21  H    3.108579   3.612836   4.275354   2.133787   2.505796
    22  Br   3.802308   2.001921   2.830519   3.301092   2.587637
    23  H    3.640676   5.218370   5.932772   3.272725   4.216870
    24  H    4.501820   5.716125   6.744187   3.261235   4.204366
                   21         22         23         24
    21  H    0.000000
    22  Br   3.924450   0.000000
    23  H    2.751396   5.997338   0.000000
    24  H    4.330081   6.131677   2.673874   0.000000
 Stoichiometry    C10H10BrNO2
 Framework group  C1[X(C10H10BrNO2)]
 Deg. of freedom    66
 Full point group                 C1      NOp   1
 Largest Abelian subgroup         C1      NOp   1
 Largest concise Abelian subgroup C1      NOp   1
                         Standard orientation:                         
 ---------------------------------------------------------------------
 Center     Atomic      Atomic             Coordinates (Angstroms)
 Number     Number       Type             X           Y           Z
 ---------------------------------------------------------------------
      1          6           0       -1.379697   -2.143047   -0.353390
      2          6           0        0.429416   -0.570145    1.539122
      3          6           0       -2.192377   -0.066515   -0.601199
      4          6           0       -0.442862    0.472897    1.503458
      5          6           0       -2.559081   -2.075504    0.370919
      6          6           0       -3.071791   -0.784274    0.202508
      7          6           0       -2.129704    1.400214   -0.990133
      8          1           0       -1.547139    1.538022   -1.903479
      9          1           0       -3.127698    1.757179   -1.249563
     10          6           0       -1.545494    2.310673    0.128204
     11          1           0       -1.329172    3.302798   -0.268577
     12          1           0       -2.304648    2.475911    0.891814
     13          6           0       -0.299154    1.765116    0.836476
     14          8           0        0.747521    2.406371    0.811854
     15          1           0       -1.385296    0.359043    2.016305
     16          1           0        0.167044   -1.458643    2.092662
     17          6           0        1.736040   -0.667535    0.928293
     18          8           0        2.674046   -1.207629    1.508790
     19          7           0       -1.239514   -0.959440   -1.029717
     20          1           0       -0.470441   -0.726473   -1.644719
     21          1           0       -0.672652   -2.948093   -0.503434
     22         35           0        1.933319   -0.050448   -0.965901
     23          1           0       -2.996428   -2.866081    0.967457
     24          1           0       -3.967439   -0.393129    0.665385
 ---------------------------------------------------------------------
 Rotational constants (GHZ):           0.7534360           0.4482985           0.3879509
 Standard basis: def2SVP (5D, 7F)
 There are   280 symmetry adapted cartesian basis functions of A   symmetry.
 There are   264 symmetry adapted basis functions of A   symmetry.
   264 basis functions,   475 primitive gaussians,   280 cartesian basis functions
    64 alpha electrons       64 beta electrons
       nuclear repulsion energy      1242.6543910295 Hartrees.
 NAtoms=   24 NActive=   24 NUniq=   24 SFac= 1.00D+00 NAtFMM=   60 NAOKFM=F Big=F
 Integral buffers will be    131072 words long.
 Raffenetti 2 integral format.
 Two-electron integral symmetry is turned on.
 Nuclear repulsion after empirical dispersion term =     1242.6336201186 Hartrees.
 ------------------------------------------------------------------------------
 Polarizable Continuum Model (PCM)
 =================================
 Model                : PCM.
 Atomic radii         : UFF (Universal Force Field).
 Polarization charges : Total charges.
 Charge compensation  : None.
 Solution method      : On-the-fly selection.
 Cavity type          : Scaled VdW (van der Waals Surface) (Alpha=1.100).
 Cavity algorithm     : GePol (No added spheres)
                        Default sphere list used, NSphG=   24.
                        Lebedev-Laikov grids with approx.  5.0 points / Ang**2.
                        Smoothing algorithm: York/Karplus (Gamma=1.0000).
                        Polarization charges: spherical gaussians, with
                                              point-specific exponents (IZeta= 3).
                        Self-potential: point-specific (ISelfS= 7).
                        Self-field    : sphere-specific E.n sum rule (ISelfD= 2).
 1st derivatives      : Analytical E(r).r(x)/FMM algorithm (CHGder, D1EAlg=3).
                        Cavity 1st derivative terms included.
 Solvent              : Toluene, Eps=   2.374100 Eps(inf)=   2.238315
 ------------------------------------------------------------------------------
 One-electron integrals computed using PRISM.
   1 Symmetry operations used in ECPInt.
 ECPInt:  NShTT=    7260 NPrTT=   28205 LenC2=    7047 LenP2D=   20225.
 LDataN:  DoStor=T MaxTD1= 4 Len=   56
 NBasis=   264 RedAO= T EigKep=  5.60D-04  NBF=   264
 NBsUse=   264 1.00D-06 EigRej= -1.00D+00 NBFU=   264
 ExpMin= 1.22D-01 ExpMax= 1.13D+05 ExpMxC= 1.70D+04 IAcc=3 IRadAn=         5 AccDes= 0.00D+00
 Harris functional with IExCor= 4639 and IRadAn=       5 diagonalized for initial guess.
 HarFok:  IExCor= 4639 AccDes= 0.00D+00 IRadAn=         5 IDoV= 1 UseB2=F ITyADJ=14
 ICtDFT=  3500011 ScaDFX=  1.000000  1.000000  1.000000  1.000000
 FoFCou: FMM=F IPFlag=           0 FMFlag=      100000 FMFlg1=           0
         NFxFlg=           0 DoJE=T BraDBF=F KetDBF=T FulRan=T
         wScrn=  0.000000 ICntrl=       500 IOpCl=  0 I1Cent=   200000004 NGrid=           0
         NMat0=    1 NMatS0=      1 NMatT0=    0 NMatD0=    1 NMtDS0=    0 NMtDT0=    0
 Petite list used in FoFCou.
 Requested convergence on RMS density matrix=1.00D-08 within 128 cycles.
 Requested convergence on MAX density matrix=1.00D-06.
 Requested convergence on             energy=1.00D-06.
 No special actions if energy rises.
 Inv3:  Mode=1 IEnd=    11607267.
 Iteration    1 A*A^-1 deviation from unit magnitude is 3.11D-15 for      2.
 Iteration    1 A*A^-1 deviation from orthogonality  is 2.06D-15 for   1532    939.
 Iteration    1 A^-1*A deviation from unit magnitude is 3.11D-15 for      2.
 Iteration    1 A^-1*A deviation from orthogonality  is 1.56D-15 for   1924    225.
 Error on total polarization charges =  0.00786
 SCF Done:  E(RwB97XD) =  -3165.52644361     A.U. after   16 cycles
            NFock= 16  Conv=0.41D-08     -V/T= 2.0028

 **********************************************************************

            Population analysis using the SCF Density.

 **********************************************************************

 Orbital symmetries:
       Occupied  (A) (A) (A) (A) (A) (A) (A) (A) (A) (A) (A) (A)
                 (A) (A) (A) (A) (A) (A) (A) (A) (A) (A) (A) (A)
                 (A) (A) (A) (A) (A) (A) (A) (A) (A) (A) (A) (A)
                 (A) (A) (A) (A) (A) (A) (A) (A) (A) (A) (A) (A)
                 (A) (A) (A) (A) (A) (A) (A) (A) (A) (A) (A) (A)
                 (A) (A) (A) (A)
       Virtual   (A) (A) (A) (A) (A) (A) (A) (A) (A) (A) (A) (A)
                 (A) (A) (A) (A) (A) (A) (A) (A) (A) (A) (A) (A)
                 (A) (A) (A) (A) (A) (A) (A) (A) (A) (A) (A) (A)
                 (A) (A) (A) (A) (A) (A) (A) (A) (A) (A) (A) (A)
                 (A) (A) (A) (A) (A) (A) (A) (A) (A) (A) (A) (A)
                 (A) (A) (A) (A) (A) (A) (A) (A) (A) (A) (A) (A)
                 (A) (A) (A) (A) (A) (A) (A) (A) (A) (A) (A) (A)
                 (A) (A) (A) (A) (A) (A) (A) (A) (A) (A) (A) (A)
                 (A) (A) (A) (A) (A) (A) (A) (A) (A) (A) (A) (A)
                 (A) (A) (A) (A) (A) (A) (A) (A) (A) (A) (A) (A)
                 (A) (A) (A) (A) (A) (A) (A) (A) (A) (A) (A) (A)
                 (A) (A) (A) (A) (A) (A) (A) (A) (A) (A) (A) (A)
                 (A) (A) (A) (A) (A) (A) (A) (A) (A) (A) (A) (A)
                 (A) (A) (A) (A) (A) (A) (A) (A) (A) (A) (A) (A)
                 (A) (A) (A) (A) (A) (A) (A) (A) (A) (A) (A) (A)
                 (A) (A) (A) (A) (A) (A) (A) (A) (A) (A) (A) (A)
                 (A) (A) (A) (A) (A) (A) (A) (A)
 The electronic state is 1-A.
 Alpha  occ. eigenvalues -- -483.07191 -62.65402 -56.46145 -56.45839 -56.45808
 Alpha  occ. eigenvalues --  -19.30022 -19.26417 -14.49485 -10.46260 -10.40591
 Alpha  occ. eigenvalues --  -10.34855 -10.34296 -10.33549 -10.32611 -10.32511
 Alpha  occ. eigenvalues --  -10.31633 -10.28960 -10.28919  -8.82333  -6.64786
 Alpha  occ. eigenvalues --   -6.63653  -6.63552  -2.75165  -2.74868  -2.74790
 Alpha  occ. eigenvalues --   -2.73889  -2.73887  -1.17140  -1.14192  -1.08108
 Alpha  occ. eigenvalues --   -0.93194  -0.90493  -0.88500  -0.87435  -0.82499
 Alpha  occ. eigenvalues --   -0.79349  -0.74148  -0.68805  -0.68217  -0.66491
 Alpha  occ. eigenvalues --   -0.62388  -0.60568  -0.59399  -0.58134  -0.56124
 Alpha  occ. eigenvalues --   -0.54766  -0.54116  -0.53152  -0.52687  -0.51242
 Alpha  occ. eigenvalues --   -0.50299  -0.49363  -0.48188  -0.47670  -0.47440
 Alpha  occ. eigenvalues --   -0.45398  -0.44042  -0.39366  -0.38849  -0.38013
 Alpha  occ. eigenvalues --   -0.37026  -0.34934  -0.33701  -0.29434
 Alpha virt. eigenvalues --   -0.03575   0.02998   0.05409   0.08972   0.10829
 Alpha virt. eigenvalues --    0.13460   0.14485   0.15536   0.15950   0.17902
 Alpha virt. eigenvalues --    0.19927   0.20211   0.20528   0.22089   0.22804
 Alpha virt. eigenvalues --    0.24667   0.26288   0.27632   0.28946   0.30358
 Alpha virt. eigenvalues --    0.32040   0.32300   0.33775   0.35508   0.38516
 Alpha virt. eigenvalues --    0.39157   0.41241   0.41986   0.44869   0.47170
 Alpha virt. eigenvalues --    0.47883   0.48977   0.49952   0.51730   0.52661
 Alpha virt. eigenvalues --    0.52972   0.53482   0.54780   0.55698   0.56457
 Alpha virt. eigenvalues --    0.57294   0.57906   0.59203   0.60452   0.60583
 Alpha virt. eigenvalues --    0.62478   0.64423   0.65307   0.65938   0.66221
 Alpha virt. eigenvalues --    0.66636   0.68230   0.69989   0.71381   0.71556
 Alpha virt. eigenvalues --    0.72110   0.73279   0.73825   0.74577   0.75303
 Alpha virt. eigenvalues --    0.75856   0.76616   0.77208   0.78075   0.78455
 Alpha virt. eigenvalues --    0.79583   0.80675   0.81533   0.82366   0.83344
 Alpha virt. eigenvalues --    0.84519   0.85357   0.87798   0.88671   0.90958
 Alpha virt. eigenvalues --    0.91809   0.93733   0.95643   0.97163   0.99752
 Alpha virt. eigenvalues --    1.01734   1.03239   1.03933   1.05963   1.09467
 Alpha virt. eigenvalues --    1.11534   1.12939   1.13860   1.16426   1.20265
 Alpha virt. eigenvalues --    1.21088   1.23717   1.24075   1.26573   1.27133
 Alpha virt. eigenvalues --    1.29530   1.30294   1.32773   1.34848   1.37348
 Alpha virt. eigenvalues --    1.42405   1.43740   1.44596   1.49546   1.50105
 Alpha virt. eigenvalues --    1.51468   1.53837   1.55586   1.59047   1.65295
 Alpha virt. eigenvalues --    1.71484   1.71816   1.73857   1.74940   1.76405
 Alpha virt. eigenvalues --    1.77280   1.78653   1.80099   1.80924   1.82716
 Alpha virt. eigenvalues --    1.83988   1.84803   1.86258   1.88866   1.89512
 Alpha virt. eigenvalues --    1.90198   1.91707   1.93536   1.94231   1.94962
 Alpha virt. eigenvalues --    1.96257   1.97768   1.98110   2.01267   2.02026
 Alpha virt. eigenvalues --    2.02229   2.04069   2.05654   2.06737   2.07400
 Alpha virt. eigenvalues --    2.10551   2.12833   2.14554   2.18660   2.22402
 Alpha virt. eigenvalues --    2.23195   2.24273   2.25116   2.27741   2.30736
 Alpha virt. eigenvalues --    2.33551   2.36676   2.37402   2.40908   2.42618
 Alpha virt. eigenvalues --    2.44174   2.46267   2.48266   2.49987   2.53084
 Alpha virt. eigenvalues --    2.54194   2.56825   2.59117   2.66829   2.67720
 Alpha virt. eigenvalues --    2.71956   2.72224   2.74622   2.75917   2.77185
 Alpha virt. eigenvalues --    2.78374   2.80598   2.82650   2.84090   2.85227
 Alpha virt. eigenvalues --    2.87842   2.89245   2.92598   2.94946   2.96684
 Alpha virt. eigenvalues --    3.03434   3.05608   3.10652   3.11817   3.12378
 Alpha virt. eigenvalues --    3.14418   3.21816   3.25825   3.32586   3.40010
 Alpha virt. eigenvalues --    3.51851   3.54170   3.54876   3.55967   3.58724
 Alpha virt. eigenvalues --    3.63584   3.66408   3.68308   3.70762   3.87769
          Condensed to atoms (all electrons):
               1          2          3          4          5          6
     1  C    4.957345   0.007288  -0.149166  -0.013019   0.409301  -0.010825
     2  C    0.007288   5.067165  -0.010130   0.517507   0.002081  -0.005836
     3  C   -0.149166  -0.010130   5.203616   0.024430  -0.005936   0.411942
     4  C   -0.013019   0.517507   0.024430   5.150258  -0.007565  -0.004202
     5  C    0.409301   0.002081  -0.005936  -0.007565   5.016585   0.348468
     6  C   -0.010825  -0.005836   0.411942  -0.004202   0.348468   5.114200
     7  C    0.007902   0.000699   0.341184  -0.004292   0.009533  -0.080144
     8  H    0.000199   0.000517  -0.007347  -0.002314  -0.000711   0.009905
     9  H   -0.000272  -0.000114   0.005093   0.000455   0.000084  -0.009652
    10  C    0.000780   0.003885  -0.055658  -0.184132   0.000606   0.000706
    11  H   -0.000020  -0.000443   0.007984   0.014986   0.000010  -0.000157
    12  H    0.000012   0.001397  -0.009648   0.000960  -0.000282   0.004211
    13  C    0.001454  -0.009372  -0.015034   0.209453  -0.000219  -0.004360
    14  O    0.000012  -0.008675  -0.000391  -0.091330  -0.000005   0.000006
    15  H   -0.000594   0.003018   0.006237   0.361188   0.000690   0.006159
    16  H    0.006166   0.396728  -0.000786  -0.005774   0.001655   0.000656
    17  C    0.002882   0.243112  -0.000848  -0.022581   0.000143   0.000250
    18  O   -0.000034  -0.079768  -0.000005   0.005168  -0.000008   0.000000
    19  N    0.387392  -0.002184   0.417470  -0.004966  -0.054407  -0.098688
    20  H   -0.027502   0.002203  -0.021879  -0.001824   0.007248   0.010049
    21  H    0.435588  -0.001953   0.004422   0.000023  -0.052943   0.009820
    22  Br   0.000391  -0.121089  -0.002048   0.011547  -0.000018  -0.000142
    23  H   -0.062555   0.000134   0.013593  -0.000062   0.460430  -0.061563
    24  H    0.013316  -0.000010  -0.059715  -0.000242  -0.063279   0.459889
               7          8          9         10         11         12
     1  C    0.007902   0.000199  -0.000272   0.000780  -0.000020   0.000012
     2  C    0.000699   0.000517  -0.000114   0.003885  -0.000443   0.001397
     3  C    0.341184  -0.007347   0.005093  -0.055658   0.007984  -0.009648
     4  C   -0.004292  -0.002314   0.000455  -0.184132   0.014986   0.000960
     5  C    0.009533  -0.000711   0.000084   0.000606   0.000010  -0.000282
     6  C   -0.080144   0.009905  -0.009652   0.000706  -0.000157   0.004211
     7  C    4.627021   0.367898   0.358426   0.371601  -0.010521  -0.005904
     8  H    0.367898   0.650356  -0.025607  -0.023003  -0.010289   0.007497
     9  H    0.358426  -0.025607   0.639767  -0.015992  -0.000731  -0.013028
    10  C    0.371601  -0.023003  -0.015992   4.957701   0.341504   0.359835
    11  H   -0.010521  -0.010289  -0.000731   0.341504   0.621086  -0.016725
    12  H   -0.005904   0.007497  -0.013028   0.359835  -0.016725   0.627848
    13  C   -0.033936  -0.003519   0.006546   0.348199  -0.004634  -0.020646
    14  O    0.002765   0.000761  -0.000157  -0.086183   0.007962   0.002573
    15  H   -0.005863   0.000041   0.000036   0.008414  -0.000312   0.000417
    16  H    0.000009   0.000008  -0.000004  -0.000108   0.000003   0.000017
    17  C   -0.000417  -0.000129   0.000009   0.001755  -0.000015  -0.000086
    18  O    0.000001   0.000000   0.000000  -0.000006   0.000000   0.000000
    19  N   -0.049670  -0.007574   0.004638  -0.008759  -0.000011  -0.000062
    20  H   -0.010149   0.004603  -0.000036   0.000481  -0.000046   0.000012
    21  H   -0.000341  -0.000001   0.000010   0.000012  -0.000000  -0.000000
    22  Br   0.002713   0.000853   0.000016  -0.004053   0.000058   0.000040
    23  H   -0.000232   0.000006   0.000001   0.000006  -0.000000   0.000001
    24  H   -0.006642   0.000022   0.002100  -0.000452  -0.000009   0.000304
              13         14         15         16         17         18
     1  C    0.001454   0.000012  -0.000594   0.006166   0.002882  -0.000034
     2  C   -0.009372  -0.008675   0.003018   0.396728   0.243112  -0.079768
     3  C   -0.015034  -0.000391   0.006237  -0.000786  -0.000848  -0.000005
     4  C    0.209453  -0.091330   0.361188  -0.005774  -0.022581   0.005168
     5  C   -0.000219  -0.000005   0.000690   0.001655   0.000143  -0.000008
     6  C   -0.004360   0.000006   0.006159   0.000656   0.000250   0.000000
     7  C   -0.033936   0.002765  -0.005863   0.000009  -0.000417   0.000001
     8  H   -0.003519   0.000761   0.000041   0.000008  -0.000129   0.000000
     9  H    0.006546  -0.000157   0.000036  -0.000004   0.000009   0.000000
    10  C    0.348199  -0.086183   0.008414  -0.000108   0.001755  -0.000006
    11  H   -0.004634   0.007962  -0.000312   0.000003  -0.000015   0.000000
    12  H   -0.020646   0.002573   0.000417   0.000017  -0.000086   0.000000
    13  C    4.832981   0.690531  -0.030755   0.006900  -0.021172  -0.000264
    14  O    0.690531   7.702995   0.002402  -0.000096   0.010994  -0.000062
    15  H   -0.030755   0.002402   0.589987  -0.012015   0.008412  -0.000104
    16  H    0.006900  -0.000096  -0.012015   0.558767  -0.040084   0.000530
    17  C   -0.021172   0.010994   0.008412  -0.040084   4.759756   0.655835
    18  O   -0.000264  -0.000062  -0.000104   0.000530   0.655835   7.666642
    19  N    0.004293   0.000021  -0.001810  -0.001612  -0.003762  -0.000001
    20  H   -0.000109  -0.000043  -0.000038  -0.000025  -0.001591   0.000021
    21  H    0.000012   0.000000  -0.000021   0.000042   0.000540   0.000010
    22  Br   0.001188  -0.005253  -0.000143   0.003758   0.254726  -0.058897
    23  H   -0.000014  -0.000000  -0.000020  -0.000010  -0.000014  -0.000000
    24  H    0.000119  -0.000000   0.000812  -0.000012   0.000004  -0.000000
              19         20         21         22         23         24
     1  C    0.387392  -0.027502   0.435588   0.000391  -0.062555   0.013316
     2  C   -0.002184   0.002203  -0.001953  -0.121089   0.000134  -0.000010
     3  C    0.417470  -0.021879   0.004422  -0.002048   0.013593  -0.059715
     4  C   -0.004966  -0.001824   0.000023   0.011547  -0.000062  -0.000242
     5  C   -0.054407   0.007248  -0.052943  -0.000018   0.460430  -0.063279
     6  C   -0.098688   0.010049   0.009820  -0.000142  -0.061563   0.459889
     7  C   -0.049670  -0.010149  -0.000341   0.002713  -0.000232  -0.006642
     8  H   -0.007574   0.004603  -0.000001   0.000853   0.000006   0.000022
     9  H    0.004638  -0.000036   0.000010   0.000016   0.000001   0.002100
    10  C   -0.008759   0.000481   0.000012  -0.004053   0.000006  -0.000452
    11  H   -0.000011  -0.000046  -0.000000   0.000058  -0.000000  -0.000009
    12  H   -0.000062   0.000012  -0.000000   0.000040   0.000001   0.000304
    13  C    0.004293  -0.000109   0.000012   0.001188  -0.000014   0.000119
    14  O    0.000021  -0.000043   0.000000  -0.005253  -0.000000  -0.000000
    15  H   -0.001810  -0.000038  -0.000021  -0.000143  -0.000020   0.000812
    16  H   -0.001612  -0.000025   0.000042   0.003758  -0.000010  -0.000012
    17  C   -0.003762  -0.001591   0.000540   0.254726  -0.000014   0.000004
    18  O   -0.000001   0.000021   0.000010  -0.058897  -0.000000  -0.000000
    19  N    6.218097   0.366304  -0.036089  -0.011592   0.004406   0.005381
    20  H    0.366304   0.506863  -0.004802   0.022506  -0.000175  -0.000199
    21  H   -0.036089  -0.004802   0.608460   0.000870  -0.004030  -0.000192
    22  Br  -0.011592   0.022506   0.000870  35.027055   0.000001   0.000001
    23  H    0.004406  -0.000175  -0.004030   0.000001   0.634327  -0.006485
    24  H    0.005381  -0.000199  -0.000192   0.000001  -0.006485   0.646462
 Mulliken charges:
               1
     1  C    0.033959
     2  C   -0.006160
     3  C   -0.097378
     4  C    0.046328
     5  C   -0.071463
     6  C   -0.100692
     7  C    0.118358
     8  H    0.037827
     9  H    0.048414
    10  C   -0.017141
    11  H    0.050319
    12  H    0.061257
    13  C    0.042358
    14  O   -0.228827
    15  H    0.063860
    16  H    0.085288
    17  C    0.152280
    18  O   -0.189058
    19  N   -0.126817
    20  H    0.148127
    21  H    0.040564
    22  Br  -0.122488
    23  H    0.022256
    24  H    0.008827
 Sum of Mulliken charges =  -0.00000
 Mulliken charges with hydrogens summed into heavy atoms:
               1
     1  C    0.074523
     2  C    0.079128
     3  C   -0.097378
     4  C    0.110188
     5  C   -0.049206
     6  C   -0.091866
     7  C    0.204599
    10  C    0.094436
    13  C    0.042358
    14  O   -0.228827
    17  C    0.152280
    18  O   -0.189058
    19  N    0.021310
    22  Br  -0.122488
 Electronic spatial extent (au):  <R**2>=           3106.9129
 Charge=             -0.0000 electrons
 Dipole moment (field-independent basis, Debye):
    X=             -4.6564    Y=             -0.1996    Z=             -0.8535  Tot=              4.7382
 Quadrupole moment (field-independent basis, Debye-Ang):
   XX=           -101.9459   YY=            -94.4657   ZZ=            -89.9334
   XY=             -6.5162   XZ=             -7.8475   YZ=             -2.5549
 Traceless Quadrupole moment (field-independent basis, Debye-Ang):
   XX=             -6.4976   YY=              0.9826   ZZ=              5.5149
   XY=             -6.5162   XZ=             -7.8475   YZ=             -2.5549
 Octapole moment (field-independent basis, Debye-Ang**2):
  XXX=             41.4922  YYY=            -13.5944  ZZZ=            -33.6797  XYY=              4.6678
  XXY=             24.7943  XXZ=             -8.4610  XZZ=             15.9766  YZZ=              4.3931
  YYZ=            -11.9211  XYZ=              7.7949
 Hexadecapole moment (field-independent basis, Debye-Ang**3):
 XXXX=          -2078.1960 YYYY=          -1170.8580 ZZZZ=           -625.9909 XXXY=            -18.4836
 XXXZ=           -119.5389 YYYX=            -50.2937 YYYZ=            -26.3305 ZZZX=            -71.0829
 ZZZY=             -2.2636 XXYY=           -545.7325 XXZZ=           -461.5876 YYZZ=           -301.4311
 XXYZ=             -7.7135 YYXZ=            -44.0274 ZZXY=             -4.0225
 N-N= 1.242633620119D+03 E-N=-1.001362891201D+04  KE= 3.156738349271D+03
   1 Symmetry operations used in ECPInt.
 ECPInt:  NShTT=    7260 NPrTT=   28205 LenC2=    7047 LenP2D=   20225.
 LDataN:  DoStor=T MaxTD1= 5 Len=  102
 D1PCM: PCM CHGder 1st derivatives, ID1Alg=3 FixD1E=F DoIter=F DoCFld=F I1PDM=0.
 Calling FoFJK, ICntrl=      2127 FMM=F ISym2X=0 I1Cent= 0 IOpClX= 0 NMat=1 NMatS=1 NMatT=0.
 ***** Axes restored to original set *****
 -------------------------------------------------------------------
 Center     Atomic                   Forces (Hartrees/Bohr)
 Number     Number              X              Y              Z
 -------------------------------------------------------------------
      1        6          -0.012510632    0.002442579    0.008033072
      2        6          -0.003776658   -0.019605864    0.036306126
      3        6          -0.011646536    0.010062875    0.007858096
      4        6           0.001050866    0.005776876   -0.028856114
      5        6           0.001585506    0.009406928   -0.011173690
      6        6           0.010284781    0.000279037    0.013584346
      7        6           0.004864483   -0.006440751   -0.011494521
      8        1          -0.000574314    0.007030982   -0.003591295
      9        1          -0.001335593   -0.005496761    0.003308686
     10        6          -0.006413238    0.000711511   -0.007554757
     11        1           0.003425889    0.006456090    0.002045850
     12        1          -0.000307362   -0.011118340   -0.002601564
     13        6           0.013402642    0.033230360    0.033701002
     14        8          -0.015174890   -0.019280747   -0.010774748
     15        1          -0.001561300   -0.009930276   -0.004350547
     16        1           0.001249581   -0.006247075   -0.007574574
     17        6           0.036685586    0.033157204   -0.059850093
     18        8          -0.036861767   -0.008915144    0.060440401
     19        7           0.007851640   -0.013206785   -0.002086858
     20        1           0.002960614   -0.000415922   -0.001497797
     21        1          -0.002808584    0.001498206   -0.003656159
     22       35           0.008872310   -0.003444243   -0.010139066
     23        1          -0.000436791   -0.001518532   -0.003716598
     24        1           0.001173768   -0.004432208    0.003640801
 -------------------------------------------------------------------
 Cartesian Forces:  Max     0.060440401 RMS     0.016329453

 GradGradGradGradGradGradGradGradGradGradGradGradGradGradGradGradGradGrad
 Berny optimization.
 FormGI is forming the generalized inverse of G from B-inverse, IUseBI=4.
 Internal  Forces:  Max     0.070505149 RMS     0.010405699
 Search for a saddle point.
 Step number   1 out of a maximum of   50
 All quantities printed in internal units (Hartrees-Bohrs-Radians)
 Swapping is turned off.
 Second derivative matrix not updated -- first step.
 ITU=  0
     Eigenvalues ---   -0.01300  -0.00454  -0.00284   0.00703   0.01320
     Eigenvalues ---    0.01417   0.01561   0.01816   0.01909   0.02567
     Eigenvalues ---    0.02925   0.02969   0.03507   0.04634   0.05548
     Eigenvalues ---    0.05662   0.05825   0.06154   0.06443   0.08237
     Eigenvalues ---    0.08527   0.09081   0.09473   0.11057   0.11091
     Eigenvalues ---    0.11980   0.12185   0.12606   0.13283   0.13336
     Eigenvalues ---    0.13896   0.15547   0.17407   0.18810   0.20888
     Eigenvalues ---    0.23005   0.23830   0.24304   0.25156   0.25816
     Eigenvalues ---    0.28169   0.30941   0.32259   0.35451   0.36135
     Eigenvalues ---    0.36207   0.36467   0.36911   0.37785   0.38358
     Eigenvalues ---    0.38781   0.39133   0.39575   0.39701   0.39899
     Eigenvalues ---    0.40760   0.42139   0.45307   0.46803   0.48129
     Eigenvalues ---    0.55925   0.57991   0.70463   0.75259   0.83803
     Eigenvalues ---    1.88978
 Eigenvectors required to have negative eigenvalues:
                          D41       D39       D40       D52       D50
   1                   -0.28073  -0.24791  -0.24500  -0.23698  -0.23256
                          D48       D31       D33       D23       D26
   1                   -0.23226   0.22058   0.21537   0.20833   0.19102
 RFO step:  Lambda0=2.506562217D-04 Lambda=-2.26465133D-02.
 Linear search not attempted -- option 19 set.
 Maximum step size (   0.100) exceeded in Quadratic search.
    -- Step size scaled by   0.467
 Iteration  1 RMS(Cart)=  0.05633807 RMS(Int)=  0.00133490
 Iteration  2 RMS(Cart)=  0.00325187 RMS(Int)=  0.00006279
 Iteration  3 RMS(Cart)=  0.00000515 RMS(Int)=  0.00006277
 Iteration  4 RMS(Cart)=  0.00000000 RMS(Int)=  0.00006277
 Variable       Old X    -DE/DX   Delta X   Delta X   Delta X     New X
                                 (Linear)    (Quad)   (Total)
    R1        2.61857  -0.00356   0.00000  -0.00498  -0.00497   2.61360
    R2        2.58968  -0.00438   0.00000  -0.00428  -0.00431   2.58537
    R3        2.04451   0.00415   0.00000   0.00441   0.00441   2.04892
    R4        2.57036  -0.01950   0.00000  -0.01883  -0.01883   2.55153
    R5        2.03939   0.00924   0.00000   0.01240   0.01240   2.05179
    R6        2.73186   0.02351   0.00000   0.02857   0.02857   2.76042
    R7        2.62835  -0.00361   0.00000  -0.00507  -0.00506   2.62328
    R8        2.86995  -0.00964   0.00000  -0.01551  -0.01551   2.85444
    R9        2.59718  -0.00507   0.00000  -0.00762  -0.00766   2.58952
   R10        2.76142   0.01496   0.00000   0.02520   0.02520   2.78663
   R11        2.03894   0.00993   0.00000   0.01048   0.01048   2.04942
   R12        2.64461   0.01542   0.00000   0.01677   0.01682   2.66143
   R13        2.04592   0.00374   0.00000   0.00432   0.00432   2.05024
   R14        2.04356   0.00558   0.00000   0.00601   0.00601   2.04956
   R15        2.06368   0.00587   0.00000   0.00752   0.00752   2.07119
   R16        2.06207   0.00590   0.00000   0.00695   0.00695   2.06902
   R17        2.94028   0.00051   0.00000  -0.01028  -0.01028   2.93000
   R18        2.06018   0.00547   0.00000   0.00728   0.00728   2.06746
   R19        2.05860   0.01062   0.00000   0.01085   0.01085   2.06945
   R20        2.89853  -0.00304   0.00000  -0.01247  -0.01247   2.88605
   R21        2.32009  -0.02571   0.00000  -0.01612  -0.01612   2.30397
   R22        2.32101  -0.07051   0.00000  -0.04609  -0.04609   2.27492
   R23        3.78308  -0.01209   0.00000  -0.01656  -0.01656   3.76652
   R24        1.91224  -0.00028   0.00000   0.00063   0.00063   1.91288
    A1        1.87857  -0.00152   0.00000   0.00052   0.00030   1.87886
    A2        2.29827  -0.00041   0.00000  -0.00249  -0.00247   2.29580
    A3        2.10294   0.00218   0.00000   0.00350   0.00353   2.10646
    A4        2.08160  -0.00395   0.00000  -0.00154  -0.00167   2.07993
    A5        2.23981   0.00621   0.00000   0.00933   0.00921   2.24902
    A6        1.96167  -0.00232   0.00000  -0.00820  -0.00832   1.95335
    A7        2.30833  -0.00583   0.00000  -0.00862  -0.00859   2.29974
    A8        1.85798   0.00040   0.00000   0.00513   0.00490   1.86288
    A9        2.11648   0.00546   0.00000   0.00297   0.00300   2.11948
   A10        2.24852  -0.00593   0.00000  -0.01117  -0.01117   2.23735
   A11        2.05643  -0.00148   0.00000  -0.00588  -0.00588   2.05055
   A12        1.97813   0.00745   0.00000   0.01708   0.01708   1.99521
   A13        1.86909  -0.00077   0.00000   0.00008  -0.00003   1.86906
   A14        2.20959  -0.00109   0.00000  -0.00399  -0.00395   2.20565
   A15        2.20440   0.00189   0.00000   0.00400   0.00404   2.20845
   A16        1.89024  -0.00357   0.00000  -0.00524  -0.00537   1.88487
   A17        2.19488   0.00002   0.00000  -0.00108  -0.00106   2.19382
   A18        2.19647   0.00370   0.00000   0.00697   0.00700   2.20348
   A19        1.93700  -0.01006   0.00000  -0.00706  -0.00706   1.92994
   A20        1.91673  -0.00926   0.00000  -0.00228  -0.00228   1.91445
   A21        1.97855   0.02819   0.00000   0.00360   0.00360   1.98216
   A22        1.82117   0.00585   0.00000   0.01053   0.01053   1.83171
   A23        1.90392  -0.00428   0.00000  -0.00052  -0.00052   1.90340
   A24        1.89955  -0.01252   0.00000  -0.00371  -0.00371   1.89584
   A25        1.92349  -0.00840   0.00000  -0.00154  -0.00171   1.92178
   A26        1.90808  -0.00993   0.00000   0.00410   0.00413   1.91221
   A27        2.01403   0.03300   0.00000  -0.01205  -0.01213   2.00190
   A28        1.82901   0.00660   0.00000   0.01434   0.01436   1.84337
   A29        1.90764  -0.01535   0.00000  -0.01012  -0.01023   1.89741
   A30        1.87185  -0.00822   0.00000   0.00822   0.00826   1.88011
   A31        2.03240   0.01264   0.00000  -0.01073  -0.01077   2.02163
   A32        2.15900  -0.01459   0.00000  -0.01207  -0.01211   2.14689
   A33        2.09173   0.00202   0.00000   0.02295   0.02291   2.11464
   A34        2.11787   0.00863   0.00000   0.02010   0.02010   2.13798
   A35        2.05793   0.00867   0.00000   0.00245   0.00245   2.06038
   A36        2.10306  -0.01693   0.00000  -0.02267  -0.02267   2.08039
   A37        1.91383   0.00677   0.00000   0.00698   0.00673   1.92055
   A38        2.18527  -0.00358   0.00000  -0.00460  -0.00454   2.18073
   A39        2.17347  -0.00246   0.00000   0.00001   0.00007   2.17354
    D1       -0.08238   0.00476   0.00000   0.02099   0.02092  -0.06146
    D2        3.07360   0.00271   0.00000   0.01456   0.01451   3.08811
    D3       -3.13301   0.00134   0.00000   0.00045   0.00044  -3.13257
    D4        0.02296  -0.00070   0.00000  -0.00598  -0.00596   0.01700
    D5        0.15577  -0.00690   0.00000  -0.03848  -0.03849   0.11728
    D6       -3.13645  -0.00185   0.00000  -0.02154  -0.02155   3.12518
    D7       -3.06463  -0.00407   0.00000  -0.02103  -0.02102  -3.08565
    D8       -0.07367   0.00098   0.00000  -0.00409  -0.00409  -0.07775
    D9        3.13131  -0.00152   0.00000  -0.00950  -0.00951   3.12179
   D10       -0.02659   0.00218   0.00000  -0.00669  -0.00672  -0.03331
   D11        0.00658   0.00334   0.00000   0.02286   0.02289   0.02947
   D12        3.13187   0.00705   0.00000   0.02567   0.02568  -3.12564
   D13        2.45170  -0.00264   0.00000  -0.05069  -0.05067   2.40102
   D14       -0.78915   0.00055   0.00000  -0.05338  -0.05336  -0.84252
   D15       -0.67398   0.00197   0.00000  -0.02020  -0.02022  -0.69420
   D16        2.36835   0.00516   0.00000  -0.02289  -0.02291   2.34544
   D17       -2.99943  -0.00545   0.00000  -0.00726  -0.00724  -3.00667
   D18        0.08426  -0.00285   0.00000   0.00464   0.00459   0.08886
   D19        0.11141  -0.00432   0.00000  -0.02734  -0.02728   0.08413
   D20       -3.08808  -0.00171   0.00000  -0.01544  -0.01544  -3.10353
   D21       -2.77411   0.00135   0.00000  -0.01467  -0.01466  -2.78877
   D22       -0.76954  -0.00279   0.00000  -0.00727  -0.00726  -0.77680
   D23        1.35931  -0.00618   0.00000  -0.01124  -0.01123   1.34809
   D24        0.40199   0.00019   0.00000   0.00786   0.00785   0.40984
   D25        2.40656  -0.00394   0.00000   0.01526   0.01525   2.42181
   D26       -1.74777  -0.00734   0.00000   0.01130   0.01128  -1.73649
   D27       -0.16539   0.00642   0.00000   0.04014   0.04026  -0.12514
   D28        3.12559   0.00154   0.00000   0.02383   0.02389  -3.13370
   D29        2.94957   0.00717   0.00000   0.02250   0.02249   2.97206
   D30       -0.04263   0.00229   0.00000   0.00619   0.00612  -0.03651
   D31        2.42667   0.01068   0.00000   0.06658   0.06648   2.49315
   D32       -0.70500   0.00363   0.00000   0.04944   0.04955  -0.65545
   D33       -0.69922   0.00718   0.00000   0.06404   0.06393  -0.63529
   D34        2.45230   0.00013   0.00000   0.04689   0.04699   2.49930
   D35       -0.01859  -0.00022   0.00000   0.00423   0.00421  -0.01438
   D36       -3.10221  -0.00267   0.00000  -0.00734  -0.00737  -3.10958
   D37        3.10868   0.00179   0.00000   0.01055   0.01054   3.11922
   D38        0.02506  -0.00067   0.00000  -0.00102  -0.00104   0.02402
   D39        2.93566   0.00331   0.00000   0.01089   0.01090   2.94656
   D40       -1.34611   0.00096   0.00000   0.02959   0.02960  -1.31651
   D41        0.76491   0.00553   0.00000   0.03510   0.03508   0.79999
   D42        0.76781  -0.00043   0.00000   0.01791   0.01792   0.78572
   D43        2.76922  -0.00279   0.00000   0.03661   0.03661   2.80583
   D44       -1.40295   0.00178   0.00000   0.04212   0.04210  -1.36085
   D45       -1.20912   0.00145   0.00000   0.00770   0.00771  -1.20141
   D46        0.79229  -0.00090   0.00000   0.02640   0.02641   0.81870
   D47        2.90331   0.00366   0.00000   0.03191   0.03189   2.93520
   D48       -1.02866  -0.00422   0.00000  -0.08443  -0.08444  -1.11310
   D49        2.10341   0.00243   0.00000  -0.06818  -0.06805   2.03536
   D50        3.07553  -0.00533   0.00000  -0.06492  -0.06506   3.01047
   D51       -0.07559   0.00133   0.00000  -0.04868  -0.04867  -0.12425
   D52        1.10189  -0.00134   0.00000  -0.08093  -0.08100   1.02089
   D53       -2.04923   0.00532   0.00000  -0.06469  -0.06461  -2.11384
         Item               Value     Threshold  Converged?
 Maximum Force            0.070505     0.000450     NO 
 RMS     Force            0.010406     0.000300     NO 
 Maximum Displacement     0.258913     0.001800     NO 
 RMS     Displacement     0.057580     0.001200     NO 
 Predicted change in Energy=-8.707592D-03
 GradGradGradGradGradGradGradGradGradGradGradGradGradGradGradGradGradGrad

                          Input orientation:                          
 ---------------------------------------------------------------------
 Center     Atomic      Atomic             Coordinates (Angstroms)
 Number     Number       Type             X           Y           Z
 ---------------------------------------------------------------------
      1          6           0       -4.896850    3.797735    0.066982
      2          6           0       -1.732649    3.970572    0.037696
      3          6           0       -4.388283    3.343687    2.204634
      4          6           0       -1.729890    3.355695    1.239774
      5          6           0       -5.002718    2.428287    0.229023
      6          6           0       -4.694808    2.145641    1.573939
      7          6           0       -3.843709    3.645686    3.580808
      8          1           0       -4.060373    4.682689    3.861804
      9          1           0       -4.365436    3.036267    4.325909
     10          6           0       -2.319725    3.393034    3.713675
     11          1           0       -1.949759    3.811043    4.654604
     12          1           0       -2.130561    2.316127    3.774922
     13          6           0       -1.478355    3.948335    2.566428
     14          8           0       -0.649856    4.822213    2.757212
     15          1           0       -1.948794    2.293689    1.259298
     16          1           0       -1.919595    3.383740   -0.856484
     17          6           0       -1.456862    5.370241   -0.276422
     18          8           0       -0.786387    5.701405   -1.219827
     19          7           0       -4.614085    4.339663    1.290953
     20          1           0       -4.468841    5.325484    1.469031
     21          1           0       -5.053595    4.433769   -0.797007
     22         35           0       -2.371804    6.771647    0.805989
     23          1           0       -5.265607    1.707962   -0.538519
     24          1           0       -4.656360    1.162391    2.030076
 ---------------------------------------------------------------------
                    Distance matrix (angstroms):
                    1          2          3          4          5
     1  C    0.000000
     2  C    3.169054   0.000000
     3  C    2.243737   3.484394   0.000000
     4  C    3.405948   1.350212   2.828101   0.000000
     5  C    1.383059   3.620581   2.262416   3.548677   0.000000
     6  C    2.245252   3.803262   1.388181   3.219726   1.408366
     7  C    3.671403   4.137121   1.510503   3.167455   3.749643
     8  H    3.985413   4.533124   2.155612   3.750615   4.378064
     9  H    4.358978   5.117935   2.143556   4.070917   4.190494
    10  C    4.483719   3.767099   2.560971   2.543519   4.502443
    11  H    5.452688   4.624762   3.488148   3.452065   5.551427
    12  H    4.857607   4.106383   2.935813   2.769155   4.564567
    13  C    4.237455   2.541583   2.994024   1.474620   4.493901
    14  O    5.130678   3.048524   4.057983   2.370605   5.574050
    15  H    3.517784   2.085897   2.819089   1.084508   3.225838
    16  H    3.144555   1.085762   3.932743   2.105011   3.405417
    17  C    3.797923   1.460754   4.342325   2.536097   4.635048
    18  O    4.709114   2.339350   5.500857   3.527349   5.530816
    19  N    1.368118   3.163788   1.370317   3.047851   2.220831
    20  H    2.117298   3.372129   2.115448   3.381491   3.196310
    21  H    1.084244   3.455425   3.262019   4.044470   2.253283
    22  Br   3.970661   2.974023   4.215840   3.502706   5.110712
    23  H    2.206753   4.234763   3.312126   4.287032   1.084942
    24  H    3.294937   4.517028   2.204629   3.741575   2.228508
                    6          7          8          9         10
     6  C    0.000000
     7  C    2.646135   0.000000
     8  H    3.474687   1.096028   0.000000
     9  H    2.911192   1.094881   1.737573   0.000000
    10  C    3.431542   1.550489   2.171407   2.164958   0.000000
    11  H    4.449646   2.183444   2.417228   2.558087   1.094054
    12  H    3.383601   2.177220   3.054888   2.411816   1.095108
    13  C    3.818417   2.591422   2.980620   3.501839   1.527233
    14  O    4.992576   3.501889   3.587648   4.410890   2.397048
    15  H    2.767943   3.287554   4.115717   3.974378   2.714796
    16  H    3.891227   4.843593   5.341577   5.741086   4.587652
    17  C    4.930129   4.852767   4.937197   5.923569   4.535940
    18  O    5.976984   6.051389   6.130233   7.118127   5.658547
    19  N    2.213669   2.513667   2.652083   3.312344   3.468397
    20  H    3.189587   2.769858   2.511055   3.662370   3.659439
    21  H    3.314460   4.609790   4.770008   5.354516   5.376191
    22  Br   5.233166   4.431451   4.068540   5.506129   4.457844
    23  H    2.231558   4.769216   5.446506   5.122241   5.440482
    24  H    1.084583   3.038408   4.012845   2.977733   3.642820
                   11         12         13         14         15
    11  H    0.000000
    12  H    1.743933   0.000000
    13  C    2.145122   2.133057   0.000000
    14  O    2.512431   3.083616   1.219210   0.000000
    15  H    3.718934   2.522283   2.160499   3.213164   0.000000
    16  H    5.527711   4.757545   3.497111   4.091484   2.380251
    17  C    5.195100   5.118092   3.178691   3.186617   3.473558
    18  O    6.279797   6.181782   4.229398   4.075348   4.371474
    19  N    4.323450   4.053726   3.407753   4.254161   3.360176
    20  H    4.334418   4.454315   3.470422   4.061692   3.947962
    21  H    6.304098   5.825039   4.932614   5.672414   4.295127
    22  Br   4.873924   5.359516   3.445067   3.251564   4.520678
    23  H    6.510478   5.366950   5.385466   6.470360   3.817914
    24  H    4.607515   3.279521   4.260149   5.474952   3.033949
                   16         17         18         19         20
    16  H    0.000000
    17  C    2.120561   0.000000
    18  O    2.605331   1.203836   0.000000
    19  N    3.575688   3.672439   4.775943   0.000000
    20  H    3.959424   3.481469   4.575122   1.012250   0.000000
    21  H    3.305760   3.752929   4.471548   2.135790   2.504400
    22  Br   3.800818   1.993156   2.786198   3.343285   2.632219
    23  H    3.755679   5.290323   6.039468   3.270672   4.213259
    24  H    4.555930   5.767384   6.792732   3.262384   4.204911
                   21         22         23         24
    21  H    0.000000
    22  Br   3.902214   0.000000
    23  H    2.746231   5.985206   0.000000
    24  H    4.341901   6.179105   2.695646   0.000000
 Stoichiometry    C10H10BrNO2
 Framework group  C1[X(C10H10BrNO2)]
 Deg. of freedom    66
 Full point group                 C1      NOp   1
 Largest Abelian subgroup         C1      NOp   1
 Largest concise Abelian subgroup C1      NOp   1
                         Standard orientation:                         
 ---------------------------------------------------------------------
 Center     Atomic      Atomic             Coordinates (Angstroms)
 Number     Number       Type             X           Y           Z
 ---------------------------------------------------------------------
      1          6           0       -1.381861   -2.170811   -0.314240
      2          6           0        0.471131   -0.442638    1.589110
      3          6           0       -2.235945   -0.113049   -0.579785
      4          6           0       -0.434360    0.554554    1.495487
      5          6           0       -2.534732   -2.106730    0.447098
      6          6           0       -3.076320   -0.818723    0.270416
      7          6           0       -2.218702    1.337206   -1.001782
      8          1           0       -1.654624    1.460654   -1.933369
      9          1           0       -3.235797    1.663600   -1.242091
     10          6           0       -1.634378    2.288946    0.073752
     11          1           0       -1.463845    3.281111   -0.354594
     12          1           0       -2.369304    2.434969    0.872390
     13          6           0       -0.337534    1.804012    0.718324
     14          8           0        0.701601    2.429234    0.592750
     15          1           0       -1.363397    0.440143    2.043171
     16          1           0        0.254686   -1.296103    2.224427
     17          6           0        1.794665   -0.539079    0.978570
     18          8           0        2.754586   -0.950820    1.577102
     19          7           0       -1.268768   -0.990048   -0.995971
     20          1           0       -0.509837   -0.752505   -1.622266
     21          1           0       -0.667909   -2.971438   -0.471889
     22         35           0        1.962199   -0.131292   -0.965218
     23          1           0       -2.939789   -2.897944    1.069197
     24          1           0       -3.967044   -0.426367    0.748942
 ---------------------------------------------------------------------
 Rotational constants (GHZ):           0.7609686           0.4370681           0.3811270
 Standard basis: def2SVP (5D, 7F)
 There are   280 symmetry adapted cartesian basis functions of A   symmetry.
 There are   264 symmetry adapted basis functions of A   symmetry.
   264 basis functions,   475 primitive gaussians,   280 cartesian basis functions
    64 alpha electrons       64 beta electrons
       nuclear repulsion energy      1238.5376296600 Hartrees.
 NAtoms=   24 NActive=   24 NUniq=   24 SFac= 1.00D+00 NAtFMM=   60 NAOKFM=F Big=F
 Integral buffers will be    131072 words long.
 Raffenetti 2 integral format.
 Two-electron integral symmetry is turned on.
 Nuclear repulsion after empirical dispersion term =     1238.5171327054 Hartrees.
 ------------------------------------------------------------------------------
 Polarizable Continuum Model (PCM)
 =================================
 Model                : PCM.
 Atomic radii         : UFF (Universal Force Field).
 Polarization charges : Total charges.
 Charge compensation  : None.
 Solution method      : On-the-fly selection.
 Cavity type          : Scaled VdW (van der Waals Surface) (Alpha=1.100).
 Cavity algorithm     : GePol (No added spheres)
                        Default sphere list used, NSphG=   24.
                        Lebedev-Laikov grids with approx.  5.0 points / Ang**2.
                        Smoothing algorithm: York/Karplus (Gamma=1.0000).
                        Polarization charges: spherical gaussians, with
                                              point-specific exponents (IZeta= 3).
                        Self-potential: point-specific (ISelfS= 7).
                        Self-field    : sphere-specific E.n sum rule (ISelfD= 2).
 1st derivatives      : Analytical E(r).r(x)/FMM algorithm (CHGder, D1EAlg=3).
                        Cavity 1st derivative terms included.
 Solvent              : Toluene, Eps=   2.374100 Eps(inf)=   2.238315
 ------------------------------------------------------------------------------
 One-electron integrals computed using PRISM.
   1 Symmetry operations used in ECPInt.
 ECPInt:  NShTT=    7260 NPrTT=   28205 LenC2=    7046 LenP2D=   20183.
 LDataN:  DoStor=T MaxTD1= 4 Len=   56
 NBasis=   264 RedAO= T EigKep=  5.80D-04  NBF=   264
 NBsUse=   264 1.00D-06 EigRej= -1.00D+00 NBFU=   264
 Initial guess from the checkpoint file:  "imda-2_1_hf.chk"
 B after Tr=     0.000000    0.000000    0.000000
         Rot=    0.999551    0.028630   -0.003354   -0.008158 Ang=   3.43 deg.
 ExpMin= 1.22D-01 ExpMax= 1.13D+05 ExpMxC= 1.70D+04 IAcc=3 IRadAn=         5 AccDes= 0.00D+00
 Harris functional with IExCor= 4639 and IRadAn=       5 diagonalized for initial guess.
 HarFok:  IExCor= 4639 AccDes= 0.00D+00 IRadAn=         5 IDoV= 1 UseB2=F ITyADJ=14
 ICtDFT=  3500011 ScaDFX=  1.000000  1.000000  1.000000  1.000000
 FoFCou: FMM=F IPFlag=           0 FMFlag=      100000 FMFlg1=           0
         NFxFlg=           0 DoJE=T BraDBF=F KetDBF=T FulRan=T
         wScrn=  0.000000 ICntrl=       500 IOpCl=  0 I1Cent=   200000004 NGrid=           0
         NMat0=    1 NMatS0=      1 NMatT0=    0 NMatD0=    1 NMtDS0=    0 NMtDT0=    0
 Petite list used in FoFCou.
 Requested convergence on RMS density matrix=1.00D-08 within 128 cycles.
 Requested convergence on MAX density matrix=1.00D-06.
 Requested convergence on             energy=1.00D-06.
 No special actions if energy rises.
 Inv3:  Mode=1 IEnd=    11654523.
 Iteration    1 A*A^-1 deviation from unit magnitude is 3.22D-15 for    746.
 Iteration    1 A*A^-1 deviation from orthogonality  is 1.42D-15 for   1901   1166.
 Iteration    1 A^-1*A deviation from unit magnitude is 3.22D-15 for    560.
 Iteration    1 A^-1*A deviation from orthogonality  is 2.17D-15 for   1568   1012.
 Error on total polarization charges =  0.00761
 SCF Done:  E(RwB97XD) =  -3165.53514811     A.U. after   15 cycles
            NFock= 15  Conv=0.35D-08     -V/T= 2.0028
   1 Symmetry operations used in ECPInt.
 ECPInt:  NShTT=    7260 NPrTT=   28205 LenC2=    7046 LenP2D=   20183.
 LDataN:  DoStor=T MaxTD1= 5 Len=  102
 D1PCM: PCM CHGder 1st derivatives, ID1Alg=3 FixD1E=F DoIter=F DoCFld=F I1PDM=0.
 Calling FoFJK, ICntrl=      2127 FMM=F ISym2X=0 I1Cent= 0 IOpClX= 0 NMat=1 NMatS=1 NMatT=0.
 ***** Axes restored to original set *****
 -------------------------------------------------------------------
 Center     Atomic                   Forces (Hartrees/Bohr)
 Number     Number              X              Y              Z
 -------------------------------------------------------------------
      1        6          -0.008701323    0.001900074    0.005087606
      2        6          -0.003718907   -0.011067109    0.021740732
      3        6          -0.008711895    0.005626115    0.005793849
      4        6           0.001544293    0.002430652   -0.017717759
      5        6           0.001145525    0.005261196   -0.006591194
      6        6           0.007157309   -0.000324477    0.007522609
      7        6           0.002396766   -0.003949293   -0.006329859
      8        1          -0.000227500    0.004192014   -0.002770403
      9        1          -0.000519680   -0.003210824    0.001908115
     10        6          -0.002884284    0.000927985   -0.002472548
     11        1           0.001933593    0.004103660    0.000920819
     12        1          -0.000616960   -0.006441643   -0.002784603
     13        6           0.006344108    0.018476706    0.020413486
     14        8          -0.007762568   -0.011013076   -0.006427147
     15        1          -0.000987329   -0.005613452   -0.002745525
     16        1           0.001171620   -0.003523322   -0.004075282
     17        6           0.021337235    0.018598358   -0.030456232
     18        8          -0.020683492   -0.003584455    0.029777011
     19        7           0.005505661   -0.007509338   -0.002021642
     20        1           0.002265122   -0.000475335   -0.001240182
     21        1          -0.002001224    0.000725775   -0.002004379
     22       35           0.005466139   -0.002348324   -0.005505957
     23        1          -0.000291368   -0.000738558   -0.002204324
     24        1           0.000839158   -0.002443329    0.002182809
 -------------------------------------------------------------------
 Cartesian Forces:  Max     0.030456232 RMS     0.009038281

 GradGradGradGradGradGradGradGradGradGradGradGradGradGradGradGradGradGrad
 Berny optimization.
 FormGI is forming the generalized inverse of G from B-inverse, IUseBI=4.
 Internal  Forces:  Max     0.035841072 RMS     0.006170974
 Search for a saddle point.
 Step number   2 out of a maximum of   50
 All quantities printed in internal units (Hartrees-Bohrs-Radians)
 Swapping is turned off.
 Update second derivatives using D2CorX and points    1    2
 ITU=  0  0
     Eigenvalues ---   -0.01265  -0.00457   0.00182   0.00713   0.01329
     Eigenvalues ---    0.01419   0.01564   0.01824   0.01912   0.02562
     Eigenvalues ---    0.02912   0.02974   0.03526   0.04658   0.05546
     Eigenvalues ---    0.05593   0.05688   0.06151   0.06436   0.08242
     Eigenvalues ---    0.08527   0.09081   0.09477   0.11027   0.11089
     Eigenvalues ---    0.11974   0.12182   0.12599   0.13281   0.13338
     Eigenvalues ---    0.13869   0.15548   0.17408   0.18793   0.20853
     Eigenvalues ---    0.23004   0.23830   0.24292   0.25153   0.25786
     Eigenvalues ---    0.28166   0.30931   0.32259   0.35451   0.36098
     Eigenvalues ---    0.36182   0.36452   0.36918   0.37768   0.38358
     Eigenvalues ---    0.38794   0.39129   0.39543   0.39696   0.39849
     Eigenvalues ---    0.40757   0.42141   0.45276   0.46788   0.48131
     Eigenvalues ---    0.55918   0.57986   0.70456   0.75593   0.83802
     Eigenvalues ---    1.88719
 Eigenvectors required to have negative eigenvalues:
                          D41       D40       D39       D16       D44
   1                   -0.33673  -0.29152  -0.28239   0.25471  -0.24848
                          D47       D23       D43       D14       D42
   1                   -0.23514   0.21307  -0.20327   0.19986  -0.19414
 RFO step:  Lambda0=1.169096616D-03 Lambda=-9.89008752D-03.
 Linear search not attempted -- option 19 set.
 Maximum step size (   0.100) exceeded in Quadratic search.
    -- Step size scaled by   0.669
 Iteration  1 RMS(Cart)=  0.10526979 RMS(Int)=  0.00333197
 Iteration  2 RMS(Cart)=  0.00892145 RMS(Int)=  0.00009829
 Iteration  3 RMS(Cart)=  0.00003342 RMS(Int)=  0.00009771
 Iteration  4 RMS(Cart)=  0.00000000 RMS(Int)=  0.00009771
 Variable       Old X    -DE/DX   Delta X   Delta X   Delta X     New X
                                 (Linear)    (Quad)   (Total)
    R1        2.61360  -0.00193   0.00000  -0.00328  -0.00324   2.61036
    R2        2.58537  -0.00245   0.00000  -0.00444  -0.00449   2.58087
    R3        2.04892   0.00231   0.00000   0.00352   0.00352   2.05244
    R4        2.55153  -0.01111   0.00000  -0.01538  -0.01538   2.53615
    R5        2.05179   0.00506   0.00000   0.01027   0.01027   2.06207
    R6        2.76042   0.01462   0.00000   0.02810   0.02810   2.78853
    R7        2.62328  -0.00193   0.00000  -0.00407  -0.00407   2.61921
    R8        2.85444  -0.00533   0.00000  -0.01648  -0.01648   2.83796
    R9        2.58952  -0.00239   0.00000  -0.00651  -0.00658   2.58294
   R10        2.78663   0.00942   0.00000   0.02531   0.02531   2.81194
   R11        2.04942   0.00565   0.00000   0.00834   0.00834   2.05776
   R12        2.66143   0.00907   0.00000   0.01410   0.01417   2.67560
   R13        2.05024   0.00212   0.00000   0.00373   0.00373   2.05397
   R14        2.04956   0.00316   0.00000   0.00506   0.00506   2.05463
   R15        2.07119   0.00330   0.00000   0.00745   0.00745   2.07864
   R16        2.06902   0.00333   0.00000   0.00476   0.00476   2.07379
   R17        2.93000   0.00102   0.00000  -0.00563  -0.00563   2.92437
   R18        2.06746   0.00301   0.00000   0.00487   0.00487   2.07233
   R19        2.06945   0.00607   0.00000   0.01037   0.01037   2.07982
   R20        2.88605  -0.00141   0.00000  -0.01286  -0.01286   2.87319
   R21        2.30397  -0.01417   0.00000  -0.01285  -0.01285   2.29112
   R22        2.27492  -0.03584   0.00000  -0.03030  -0.03030   2.24462
   R23        3.76652  -0.00715   0.00000  -0.02766  -0.02766   3.73886
   R24        1.91288  -0.00036   0.00000   0.00002   0.00002   1.91290
    A1        1.87886  -0.00093   0.00000   0.00024  -0.00008   1.87878
    A2        2.29580  -0.00037   0.00000  -0.00327  -0.00321   2.29259
    A3        2.10646   0.00143   0.00000   0.00431   0.00437   2.11083
    A4        2.07993  -0.00229   0.00000  -0.00396  -0.00426   2.07567
    A5        2.24902   0.00360   0.00000   0.01395   0.01366   2.26268
    A6        1.95335  -0.00143   0.00000  -0.01178  -0.01207   1.94128
    A7        2.29974  -0.00423   0.00000  -0.00375  -0.00365   2.29609
    A8        1.86288   0.00004   0.00000   0.00496   0.00460   1.86749
    A9        2.11948   0.00421   0.00000  -0.00201  -0.00190   2.11758
   A10        2.23735  -0.00497   0.00000  -0.01359  -0.01361   2.22375
   A11        2.05055  -0.00035   0.00000  -0.00644  -0.00646   2.04409
   A12        1.99521   0.00534   0.00000   0.02016   0.02014   2.01535
   A13        1.86906  -0.00041   0.00000   0.00035   0.00022   1.86928
   A14        2.20565  -0.00076   0.00000  -0.00530  -0.00524   2.20041
   A15        2.20845   0.00118   0.00000   0.00499   0.00505   2.21349
   A16        1.88487  -0.00199   0.00000  -0.00490  -0.00512   1.87975
   A17        2.19382  -0.00020   0.00000  -0.00274  -0.00270   2.19112
   A18        2.20348   0.00227   0.00000   0.00840   0.00844   2.21192
   A19        1.92994  -0.00651   0.00000  -0.02264  -0.02257   1.90737
   A20        1.91445  -0.00642   0.00000   0.00135   0.00123   1.91568
   A21        1.98216   0.01898   0.00000   0.01978   0.01975   2.00190
   A22        1.83171   0.00393   0.00000   0.01201   0.01202   1.84373
   A23        1.90340  -0.00292   0.00000  -0.01117  -0.01109   1.89232
   A24        1.89584  -0.00831   0.00000   0.00038   0.00027   1.89612
   A25        1.92178  -0.00550   0.00000  -0.00060  -0.00060   1.92118
   A26        1.91221  -0.00715   0.00000  -0.00287  -0.00289   1.90932
   A27        2.00190   0.02261   0.00000   0.00205   0.00204   2.00394
   A28        1.84337   0.00477   0.00000   0.01899   0.01898   1.86235
   A29        1.89741  -0.01054   0.00000  -0.00632  -0.00632   1.89109
   A30        1.88011  -0.00551   0.00000  -0.00989  -0.00990   1.87021
[...]
      1          6           0       -2.055340   -2.094382   -0.337134
      2          6           0        0.385931   -0.584635    1.612630
      3          6           0       -2.055388    0.125089   -0.676535
      4          6           0       -0.281901    0.575117    1.568159
      5          6           0       -3.062230   -1.566685    0.443630
      6          6           0       -3.064806   -0.161406    0.227935
      7          6           0       -1.547371    1.439156   -1.190632
      8          1           0       -0.723423    1.260964   -1.897475
      9          1           0       -2.336156    1.954575   -1.760002
     10          6           0       -1.070245    2.389717   -0.081038
     11          1           0       -0.699900    3.333537   -0.504534
     12          1           0       -1.926003    2.634533    0.573096
     13          6           0        0.020709    1.850197    0.822367
     14          8           0        1.035868    2.460620    1.054864
     15          1           0       -1.152131    0.656617    2.228188
     16          1           0        0.061646   -1.352420    2.320183
     17          6           0        1.569763   -1.032898    0.857383
     18          8           0        2.286599   -1.916657    1.182179
     19          7           0       -1.471971   -1.061992   -1.017076
     20          1           0       -0.663601   -1.145886   -1.620756
     21          1           0       -1.725471   -3.120550   -0.478454
     22         35           0        1.923236   -0.148925   -0.882728
     23          1           0       -3.729197   -2.131457    1.091550
     24          1           0       -3.729690    0.569098    0.686267
 ---------------------------------------------------------------------
 Rotational constants (GHZ):           0.7266298           0.4571025           0.3838641

 **********************************************************************

            Population analysis using the SCF Density.

 **********************************************************************

 Orbital symmetries:
       Occupied  (A) (A) (A) (A) (A) (A) (A) (A) (A) (A) (A) (A)
                 (A) (A) (A) (A) (A) (A) (A) (A) (A) (A) (A) (A)
                 (A) (A) (A) (A) (A) (A) (A) (A) (A) (A) (A) (A)
                 (A) (A) (A) (A) (A) (A) (A) (A) (A) (A) (A) (A)
                 (A) (A) (A) (A) (A) (A) (A) (A) (A) (A) (A) (A)
                 (A) (A) (A) (A)
       Virtual   (A) (A) (A) (A) (A) (A) (A) (A) (A) (A) (A) (A)
                 (A) (A) (A) (A) (A) (A) (A) (A) (A) (A) (A) (A)
                 (A) (A) (A) (A) (A) (A) (A) (A) (A) (A) (A) (A)
                 (A) (A) (A) (A) (A) (A) (A) (A) (A) (A) (A) (A)
                 (A) (A) (A) (A) (A) (A) (A) (A) (A) (A) (A) (A)
                 (A) (A) (A) (A) (A) (A) (A) (A) (A) (A) (A) (A)
                 (A) (A) (A) (A) (A) (A) (A) (A) (A) (A) (A) (A)
                 (A) (A) (A) (A) (A) (A) (A) (A) (A) (A) (A) (A)
                 (A) (A) (A) (A) (A) (A) (A) (A) (A) (A) (A) (A)
                 (A) (A) (A) (A) (A) (A) (A) (A) (A) (A) (A) (A)
                 (A) (A) (A) (A) (A) (A) (A) (A) (A) (A) (A) (A)
                 (A) (A) (A) (A) (A) (A) (A) (A) (A) (A) (A) (A)
                 (A) (A) (A) (A) (A) (A) (A) (A) (A) (A) (A) (A)
                 (A) (A) (A) (A) (A) (A) (A) (A) (A) (A) (A) (A)
                 (A) (A) (A) (A) (A) (A) (A) (A) (A) (A) (A) (A)
                 (A) (A) (A) (A) (A) (A) (A) (A) (A) (A) (A) (A)
                 (A) (A) (A) (A) (A) (A) (A) (A)
 The electronic state is 1-A.
 Alpha  occ. eigenvalues -- -483.06640 -62.64871 -56.45597 -56.45315 -56.45280
 Alpha  occ. eigenvalues --  -19.29963 -19.26607 -14.49556 -10.45744 -10.41015
 Alpha  occ. eigenvalues --  -10.34948 -10.34308 -10.33037 -10.32326 -10.32323
 Alpha  occ. eigenvalues --  -10.31916 -10.28809 -10.28778  -8.81819  -6.64231
 Alpha  occ. eigenvalues --   -6.63169  -6.63056  -2.74624  -2.74345  -2.74257
 Alpha  occ. eigenvalues --   -2.73412  -2.73411  -1.19626  -1.15515  -1.08134
 Alpha  occ. eigenvalues --   -0.93082  -0.90652  -0.88335  -0.87013  -0.82600
 Alpha  occ. eigenvalues --   -0.78384  -0.74241  -0.68316  -0.67961  -0.66539
 Alpha  occ. eigenvalues --   -0.62006  -0.60955  -0.59639  -0.58486  -0.56164
 Alpha  occ. eigenvalues --   -0.55130  -0.54307  -0.53588  -0.52195  -0.51887
 Alpha  occ. eigenvalues --   -0.50845  -0.49974  -0.48102  -0.47570  -0.46975
 Alpha  occ. eigenvalues --   -0.45603  -0.44046  -0.39222  -0.38860  -0.38149
 Alpha  occ. eigenvalues --   -0.37201  -0.35018  -0.33369  -0.29256
 Alpha virt. eigenvalues --   -0.02310   0.04107   0.06153   0.09765   0.11658
 Alpha virt. eigenvalues --    0.13408   0.13800   0.14790   0.15690   0.17575
 Alpha virt. eigenvalues --    0.19703   0.20164   0.20581   0.21565   0.23374
 Alpha virt. eigenvalues --    0.23533   0.26903   0.27937   0.28641   0.30614
 Alpha virt. eigenvalues --    0.31332   0.32494   0.33906   0.35569   0.37620
 Alpha virt. eigenvalues --    0.39947   0.40484   0.42274   0.43019   0.46635
 Alpha virt. eigenvalues --    0.48289   0.49613   0.50171   0.50717   0.51950
 Alpha virt. eigenvalues --    0.52798   0.53996   0.54278   0.55802   0.56403
 Alpha virt. eigenvalues --    0.57058   0.57921   0.59885   0.60324   0.60842
 Alpha virt. eigenvalues --    0.61918   0.64777   0.65196   0.65988   0.67247
 Alpha virt. eigenvalues --    0.67717   0.69969   0.70204   0.70944   0.71926
 Alpha virt. eigenvalues --    0.72884   0.73949   0.74697   0.74918   0.75451
 Alpha virt. eigenvalues --    0.75664   0.76663   0.77507   0.78355   0.79093
 Alpha virt. eigenvalues --    0.79585   0.81390   0.81936   0.82525   0.83602
 Alpha virt. eigenvalues --    0.84551   0.87199   0.88456   0.89683   0.89872
 Alpha virt. eigenvalues --    0.91081   0.93598   0.94220   0.96494   0.98815
 Alpha virt. eigenvalues --    1.01860   1.02309   1.03478   1.06497   1.06837
 Alpha virt. eigenvalues --    1.11164   1.11820   1.12376   1.16050   1.19649
 Alpha virt. eigenvalues --    1.21053   1.22618   1.24252   1.26204   1.28008
 Alpha virt. eigenvalues --    1.29042   1.32300   1.34325   1.37356   1.37593
 Alpha virt. eigenvalues --    1.40489   1.42093   1.42746   1.46996   1.49233
 Alpha virt. eigenvalues --    1.51653   1.52038   1.57463   1.60750   1.65442
 Alpha virt. eigenvalues --    1.70277   1.72124   1.72476   1.74193   1.75550
 Alpha virt. eigenvalues --    1.76357   1.79035   1.79200   1.80154   1.82268
 Alpha virt. eigenvalues --    1.83245   1.84109   1.85023   1.86079   1.88041
 Alpha virt. eigenvalues --    1.88402   1.91911   1.92626   1.93147   1.93768
 Alpha virt. eigenvalues --    1.95595   1.97398   1.98487   1.99763   2.01059
 Alpha virt. eigenvalues --    2.02704   2.04262   2.05145   2.07615   2.09190
 Alpha virt. eigenvalues --    2.10542   2.12087   2.14512   2.16451   2.20255
 Alpha virt. eigenvalues --    2.22589   2.23945   2.24677   2.26366   2.31459
 Alpha virt. eigenvalues --    2.34742   2.35616   2.37328   2.40335   2.42302
 Alpha virt. eigenvalues --    2.43601   2.45226   2.46602   2.49879   2.52258
 Alpha virt. eigenvalues --    2.53525   2.55106   2.58420   2.64929   2.69984
 Alpha virt. eigenvalues --    2.73116   2.74406   2.75205   2.75721   2.77159
 Alpha virt. eigenvalues --    2.79085   2.79371   2.81722   2.82814   2.85695
 Alpha virt. eigenvalues --    2.87259   2.88977   2.92232   2.93954   2.96891
 Alpha virt. eigenvalues --    3.02488   3.04695   3.07020   3.10814   3.11888
 Alpha virt. eigenvalues --    3.20195   3.24661   3.27057   3.37674   3.40767
 Alpha virt. eigenvalues --    3.50254   3.53627   3.54761   3.57946   3.59738
 Alpha virt. eigenvalues --    3.67217   3.68974   3.69707   3.71848   3.89356
          Condensed to atoms (all electrons):
               1          2          3          4          5          6
     1  C    4.926615   0.004428  -0.144505  -0.004419   0.447032  -0.023638
     2  C    0.004428   5.103377  -0.010093   0.499084   0.000499  -0.005169
     3  C   -0.144505  -0.010093   5.184927   0.020891  -0.012036   0.418472
     4  C   -0.004419   0.499084   0.020891   5.157873  -0.000685  -0.002657
     5  C    0.447032   0.000499  -0.012036  -0.000685   4.972185   0.368305
     6  C   -0.023638  -0.005169   0.418472  -0.002657   0.368305   5.125010
     7  C    0.008522  -0.001141   0.327347   0.002919   0.010398  -0.098966
     8  H    0.000183   0.001361  -0.010337  -0.004370  -0.000640   0.011498
     9  H   -0.000169  -0.000054   0.004472   0.000092   0.000076  -0.008482
    10  C    0.000060   0.003219  -0.051238  -0.186451   0.000496   0.002510
    11  H   -0.000002  -0.000423   0.008113   0.014940   0.000005   0.000051
    12  H    0.000050   0.001424  -0.015132  -0.000327  -0.000284   0.007370
    13  C    0.000399  -0.004444  -0.016823   0.220084   0.000168  -0.005921
    14  O    0.000000  -0.002361  -0.000170  -0.091812  -0.000001   0.000012
    15  H    0.000113   0.017439  -0.000384   0.359008  -0.000720   0.008696
    16  H    0.002049   0.390478  -0.000336  -0.011510   0.001550  -0.000034
    17  C    0.002275   0.256621  -0.001490  -0.012235  -0.000123   0.000003
    18  O   -0.000070  -0.080386   0.000010   0.005362  -0.000003   0.000000
    19  N    0.394722   0.000965   0.444494  -0.004480  -0.061010  -0.098465
    20  H   -0.027207   0.001109  -0.020502  -0.001098   0.007057   0.010846
    21  H    0.431625  -0.000620   0.003988   0.000090  -0.049790   0.009209
    22  Br  -0.000070  -0.135856  -0.001797   0.014847  -0.000085  -0.000110
    23  H   -0.057781   0.000029   0.012730   0.000014   0.452558  -0.058610
    24  H    0.012169   0.000146  -0.056895  -0.000450  -0.057612   0.453463
               7          8          9         10         11         12
     1  C    0.008522   0.000183  -0.000169   0.000060  -0.000002   0.000050
     2  C   -0.001141   0.001361  -0.000054   0.003219  -0.000423   0.001424
     3  C    0.327347  -0.010337   0.004472  -0.051238   0.008113  -0.015132
     4  C    0.002919  -0.004370   0.000092  -0.186451   0.014940  -0.000327
     5  C    0.010398  -0.000640   0.000076   0.000496   0.000005  -0.000284
     6  C   -0.098966   0.011498  -0.008482   0.002510   0.000051   0.007370
     7  C    4.680547   0.364370   0.353638   0.358459  -0.008607  -0.011867
     8  H    0.364370   0.659447  -0.024122  -0.023750  -0.007043   0.007473
     9  H    0.353638  -0.024122   0.632718  -0.014351  -0.004093  -0.009538
    10  C    0.358459  -0.023750  -0.014351   5.012379   0.333599   0.368532
    11  H   -0.008607  -0.007043  -0.004093   0.333599   0.616763  -0.014017
    12  H   -0.011867   0.007473  -0.009538   0.368532  -0.014017   0.608261
    13  C   -0.027974  -0.004604   0.006650   0.323261  -0.005068  -0.019795
    14  O    0.002909   0.000679  -0.000160  -0.088521   0.009854   0.001791
    15  H   -0.003334   0.000046   0.000040   0.006697  -0.000259   0.000008
    16  H    0.000030   0.000010  -0.000003  -0.000229   0.000007   0.000021
    17  C   -0.000052  -0.000483   0.000008   0.000714  -0.000003  -0.000048
    18  O    0.000000   0.000003   0.000000  -0.000003   0.000000   0.000000
    19  N   -0.049239  -0.008689   0.003231  -0.003368  -0.000078   0.000008
    20  H   -0.012961   0.005105   0.000064   0.000387  -0.000023   0.000005
    21  H   -0.000301  -0.000007   0.000010   0.000007  -0.000000  -0.000000
    22  Br   0.001100   0.007383   0.000156  -0.007770   0.000042   0.000127
    23  H   -0.000263   0.000007   0.000004   0.000003  -0.000000   0.000005
    24  H   -0.007700  -0.000004   0.001363  -0.000055  -0.000036   0.001355
              13         14         15         16         17         18
     1  C    0.000399   0.000000   0.000113   0.002049   0.002275  -0.000070
     2  C   -0.004444  -0.002361   0.017439   0.390478   0.256621  -0.080386
     3  C   -0.016823  -0.000170  -0.000384  -0.000336  -0.001490   0.000010
     4  C    0.220084  -0.091812   0.359008  -0.011510  -0.012235   0.005362
     5  C    0.000168  -0.000001  -0.000720   0.001550  -0.000123  -0.000003
     6  C   -0.005921   0.000012   0.008696  -0.000034   0.000003   0.000000
     7  C   -0.027974   0.002909  -0.003334   0.000030  -0.000052   0.000000
     8  H   -0.004604   0.000679   0.000046   0.000010  -0.000483   0.000003
     9  H    0.006650  -0.000160   0.000040  -0.000003   0.000008   0.000000
    10  C    0.323261  -0.088521   0.006697  -0.000229   0.000714  -0.000003
    11  H   -0.005068   0.009854  -0.000259   0.000007  -0.000003   0.000000
    12  H   -0.019795   0.001791   0.000008   0.000021  -0.000048   0.000000
    13  C    4.798809   0.715622  -0.036283   0.006127  -0.022506  -0.000062
    14  O    0.715622   7.661336   0.000999  -0.000173   0.001504  -0.000002
    15  H   -0.036283   0.000999   0.565609  -0.013459   0.007095  -0.000077
    16  H    0.006127  -0.000173  -0.013459   0.576548  -0.036151   0.002854
    17  C   -0.022506   0.001504   0.007095  -0.036151   4.719447   0.702908
    18  O   -0.000062  -0.000002  -0.000077   0.002854   0.702908   7.585317
    19  N    0.001248   0.000004  -0.000482  -0.000807   0.001201  -0.000018
    20  H   -0.000042   0.000001  -0.000035  -0.000059  -0.001107  -0.000069
    21  H    0.000005   0.000000  -0.000008   0.000085   0.000169   0.000019
    22  Br   0.008161  -0.005151  -0.000014   0.004675   0.261216  -0.073333
    23  H   -0.000006  -0.000000  -0.000037  -0.000001  -0.000008  -0.000000
    24  H    0.000028  -0.000001   0.000719  -0.000010  -0.000003  -0.000000
              19         20         21         22         23         24
     1  C    0.394722  -0.027207   0.431625  -0.000070  -0.057781   0.012169
     2  C    0.000965   0.001109  -0.000620  -0.135856   0.000029   0.000146
     3  C    0.444494  -0.020502   0.003988  -0.001797   0.012730  -0.056895
     4  C   -0.004480  -0.001098   0.000090   0.014847   0.000014  -0.000450
     5  C   -0.061010   0.007057  -0.049790  -0.000085   0.452558  -0.057612
     6  C   -0.098465   0.010846   0.009209  -0.000110  -0.058610   0.453463
     7  C   -0.049239  -0.012961  -0.000301   0.001100  -0.000263  -0.007700
     8  H   -0.008689   0.005105  -0.000007   0.007383   0.000007  -0.000004
     9  H    0.003231   0.000064   0.000010   0.000156   0.000004   0.001363
    10  C   -0.003368   0.000387   0.000007  -0.007770   0.000003  -0.000055
    11  H   -0.000078  -0.000023  -0.000000   0.000042  -0.000000  -0.000036
    12  H    0.000008   0.000005  -0.000000   0.000127   0.000005   0.001355
    13  C    0.001248  -0.000042   0.000005   0.008161  -0.000006   0.000028
    14  O    0.000004   0.000001   0.000000  -0.005151  -0.000000  -0.000001
    15  H   -0.000482  -0.000035  -0.000008  -0.000014  -0.000037   0.000719
    16  H   -0.000807  -0.000059   0.000085   0.004675  -0.000001  -0.000010
    17  C    0.001201  -0.001107   0.000169   0.261216  -0.000008  -0.000003
    18  O   -0.000018  -0.000069   0.000019  -0.073333  -0.000000  -0.000000
    19  N    6.160037   0.365372  -0.034102  -0.004351   0.004397   0.005236
    20  H    0.365372   0.515386  -0.005078   0.014376  -0.000188  -0.000223
    21  H   -0.034102  -0.005078   0.606541   0.000035  -0.004157  -0.000182
    22  Br  -0.004351   0.014376   0.000035  35.061397   0.000000  -0.000000
    23  H    0.004397  -0.000188  -0.004157   0.000000   0.633655  -0.005499
    24  H    0.005236  -0.000223  -0.000182  -0.000000  -0.005499   0.642254
 Mulliken charges:
               1
     1  C    0.027617
     2  C   -0.039633
     3  C   -0.083705
     4  C    0.025291
     5  C   -0.077339
     6  C   -0.113393
     7  C    0.112167
     8  H    0.026483
     9  H    0.058449
    10  C   -0.034586
    11  H    0.056277
    12  H    0.074581
    13  C    0.062966
    14  O   -0.206356
    15  H    0.088623
    16  H    0.078339
    17  C    0.121047
    18  O   -0.142452
    19  N   -0.115827
    20  H    0.148884
    21  H    0.042460
    22  Br  -0.144979
    23  H    0.023148
    24  H    0.011938
 Sum of Mulliken charges =  -0.00000
 Mulliken charges with hydrogens summed into heavy atoms:
               1
     1  C    0.070077
     2  C    0.038706
     3  C   -0.083705
     4  C    0.113914
     5  C   -0.054192
     6  C   -0.101455
     7  C    0.197100
    10  C    0.096272
    13  C    0.062966
    14  O   -0.206356
    17  C    0.121047
    18  O   -0.142452
    19  N    0.033057
    22  Br  -0.144979
 Electronic spatial extent (au):  <R**2>=           3122.3195
 Charge=             -0.0000 electrons
 Dipole moment (field-independent basis, Debye):
    X=             -3.9751    Y=              0.2526    Z=             -0.7876  Tot=              4.0603
 Quadrupole moment (field-independent basis, Debye-Ang):
   XX=           -103.8556   YY=            -94.4619   ZZ=            -88.4508
   XY=             -4.2541   XZ=             -6.6455   YZ=             -1.3942
 Traceless Quadrupole moment (field-independent basis, Debye-Ang):
   XX=             -8.2662   YY=              1.1275   ZZ=              7.1386
   XY=             -4.2541   XZ=             -6.6455   YZ=             -1.3942
 Octapole moment (field-independent basis, Debye-Ang**2):
  XXX=             66.6431  YYY=            -15.1176  ZZZ=            -24.8001  XYY=             -8.2337
  XXY=             17.9688  XXZ=             -0.7008  XZZ=             17.2842  YZZ=             -1.2368
  YYZ=            -21.8319  XYZ=              1.5160
 Hexadecapole moment (field-independent basis, Debye-Ang**3):
 XXXX=          -2074.0157 YYYY=          -1220.6940 ZZZZ=           -623.7378 XXXY=            -25.4687
 XXXZ=           -109.1994 YYYX=            -26.7564 YYYZ=             -6.7681 ZZZX=            -61.6836
 ZZZY=              0.9933 XXYY=           -560.5979 XXZZ=           -445.7382 YYZZ=           -313.6609
 XXYZ=             -8.9616 YYXZ=            -45.9503 ZZXY=            -10.2363
 N-N= 1.240110743915D+03 E-N=-1.000881720294D+04  KE= 3.156863953403D+03
 Unable to Open any file for archive entry.
 1\1\GINC-NODE-008\FTS\RwB97XD\def2SVP\C10H10Br1N1O2\JP2658\22-Dec-2023
 \0\\# wb97xd def2svp geom=allchk scrf=(iefpcm,solvent=toluene) opt=(re
 adfc,ts,noeigen,maxcycles=50,maxstep=10)\\3g_exo_ts_6_reopt.out\\0,1\C
 ,-5.1156481393,3.6702675028,0.0067998772\C,-1.6641729916,4.0153322053,
 0.101509416\C,-4.3717698204,3.4442238751,2.1131697884\C,-1.6148086919,
 3.3079511773,1.2373699237\C,-5.0276885546,2.3176341429,0.2608293682\C,
 -4.558823954,2.1730776966,1.5952234889\C,-3.8087869292,3.890336095,3.4
 29673533\H,-3.8143952993,4.9894805449,3.4757237603\H,-4.4508686931,3.5
 438188652,4.2540982803\C,-2.3845891274,3.3765127266,3.6943697447\H,-2.
 0114453929,3.7347567716,4.6637636409\H,-2.4040501986,2.2728431882,3.73
 53819243\C,-1.3473637799,3.7497011905,2.6540348006\O,-0.2894162331,4.2
 556158449,2.9404195131\H,-1.7104026401,2.2217750438,1.1341121639\H,-1.
 7502053803,3.4810565675,-0.8484552579\C,-1.589002295,5.4707682346,-0.1
 195135571\O,-1.3084930134,5.9869986679,-1.14674185\N,-4.7327862324,4.3
 319459706,1.1399674108\H,-4.6415016482,5.3366683773,1.2244053287\H,-5.
 4407063011,4.2102395528,-0.8789612801\Br,-2.0943602161,6.6453633271,1.
 3968223775\H,-5.28168544,1.5203869005,-0.434508709\H,-4.3719290278,1.2
 40245531,2.1250063135\\Version=ES64L-G16RevC.01\State=1-A\HF=-3165.541
 5434\RMSD=6.685e-09\RMSF=4.558e-06\Dipole=-1.1487948,-1.0139894,0.4515
 511\Quadrupole=-6.4824069,3.8855166,2.5968903,-5.8246932,-0.7376795,1.
 5514576\PG=C01 [X(C10H10Br1N1O2)]\\@
 The archive entry for this job was punched.


 A MATHEMATICIAN IS A MACHINE FOR TURNING COFFEE INTO THEOREMS.
     -- QUOTED BY PAUL ERDOS
 Job cpu time:       0 days  3 hours 54 minutes 36.0 seconds.
 Elapsed time:       0 days  0 hours 19 minutes 51.3 seconds.
 File lengths (MBytes):  RWF=    175 Int=      0 D2E=      0 Chk=     13 Scr=      1
 Normal termination of Gaussian 16 at Fri Dec 22 01:05:35 2023.
