Unloading slurm/anatra/current
  ERROR: No such file or directory on
    '/cm/local/modulefiles/slurm/anatra/current'
environment: line 0: unalias: gv: not found
environment: line 0: unalias: sl: not found
 Entering Gaussian System, Link 0=g16
 Initial command:
 /apps/gaussian/g16/C.01/g16/l1.exe "/local/jobs/1153106/Gau-3392613.inp" -scrdir="/local/jobs/1153106/"
 Entering Link 1 = /apps/gaussian/g16/C.01/g16/l1.exe PID=   3392616.
  
 Copyright (c) 1988-2019, Gaussian, Inc.  All Rights Reserved.
  
 This is part of the Gaussian(R) 16 program.  It is based on
 the Gaussian(R) 09 system (copyright 2009, Gaussian, Inc.),
 the Gaussian(R) 03 system (copyright 2003, Gaussian, Inc.),
 the Gaussian(R) 98 system (copyright 1998, Gaussian, Inc.),
 the Gaussian(R) 94 system (copyright 1995, Gaussian, Inc.),
 the Gaussian 92(TM) system (copyright 1992, Gaussian, Inc.),
 the Gaussian 90(TM) system (copyright 1990, Gaussian, Inc.),
 the Gaussian 88(TM) system (copyright 1988, Gaussian, Inc.),
 the Gaussian 86(TM) system (copyright 1986, Carnegie Mellon
 University), and the Gaussian 82(TM) system (copyright 1983,
 Carnegie Mellon University). Gaussian is a federally registered
 trademark of Gaussian, Inc.
  
 This software contains proprietary and confidential information,
 including trade secrets, belonging to Gaussian, Inc.
  
 This software is provided under written license and may be
 used, copied, transmitted, or stored only in accord with that
 written license.
  
 The following legend is applicable only to US Government
 contracts under FAR:
  
                    RESTRICTED RIGHTS LEGEND
  
 Use, reproduction and disclosure by the US Government is
 subject to restrictions as set forth in subparagraphs (a)
 and (c) of the Commercial Computer Software - Restricted
 Rights clause in FAR 52.227-19.
  
 Gaussian, Inc.
 340 Quinnipiac St., Bldg. 40, Wallingford CT 06492
  
  
 ---------------------------------------------------------------
 Warning -- This program may not be used in any manner that
 competes with the business of Gaussian, Inc. or will provide
 assistance to any competitor of Gaussian, Inc.  The licensee
 of this program is prohibited from giving any competitor of
 Gaussian, Inc. access to this program.  By using this program,
 the user acknowledges that Gaussian, Inc. is engaged in the
 business of creating and licensing software in the field of
 computational chemistry and represents and warrants to the
 licensee that it is not a competitor of Gaussian, Inc. and that
 it will not use this program in any manner prohibited above.
 ---------------------------------------------------------------
  

 Cite this work as:
 Gaussian 16, Revision C.01,
 M. J. Frisch, G. W. Trucks, H. B. Schlegel, G. E. Scuseria, 
 M. A. Robb, J. R. Cheeseman, G. Scalmani, V. Barone, 
 G. A. Petersson, H. Nakatsuji, X. Li, M. Caricato, A. V. Marenich, 
 J. Bloino, B. G. Janesko, R. Gomperts, B. Mennucci, H. P. Hratchian, 
 J. V. Ortiz, A. F. Izmaylov, J. L. Sonnenberg, D. Williams-Young, 
 F. Ding, F. Lipparini, F. Egidi, J. Goings, B. Peng, A. Petrone, 
 T. Henderson, D. Ranasinghe, V. G. Zakrzewski, J. Gao, N. Rega, 
 G. Zheng, W. Liang, M. Hada, M. Ehara, K. Toyota, R. Fukuda, 
 J. Hasegawa, M. Ishida, T. Nakajima, Y. Honda, O. Kitao, H. Nakai, 
 T. Vreven, K. Throssell, J. A. Montgomery, Jr., J. E. Peralta, 
 F. Ogliaro, M. J. Bearpark, J. J. Heyd, E. N. Brothers, K. N. Kudin, 
 V. N. Staroverov, T. A. Keith, R. Kobayashi, J. Normand, 
 K. Raghavachari, A. P. Rendell, J. C. Burant, S. S. Iyengar, 
 J. Tomasi, M. Cossi, J. M. Millam, M. Klene, C. Adamo, R. Cammi, 
 J. W. Ochterski, R. L. Martin, K. Morokuma, O. Farkas, 
 J. B. Foresman, and D. J. Fox, Gaussian, Inc., Wallingford CT, 2019.
 
 ******************************************
 Gaussian 16:  ES64L-G16RevC.01  3-Jul-2019
                28-Dec-2023 
 ******************************************
 %chk=imda-2_1_sqm.chk
 ----------------------------------------------------------------------
 # wb97xd def2svp geom=allchk scrf=(iefpcm,solvent=toluene) opt=(readfc
 ,ts,noeigen,maxcycles=50,maxstep=10)
 ----------------------------------------------------------------------
 1/5=1,6=50,8=10,10=3,11=1,18=20,26=3,29=7,38=1/1,3;
 2/9=110,12=2,40=1/2;
 3/5=43,7=101,11=2,14=-4,25=1,30=1,70=2201,71=1,72=13,74=-58/1,2,3;
 4//1;
 5/5=2,38=5,53=13/2;
 6/7=2,8=2,9=2,10=2,28=1/1;
 7//1,2,3,16;
 1/5=1,6=50,8=10,11=1,18=20,26=3/3(2);
 2/9=110/2;
 99//99;
 2/9=110/2;
 3/5=43,7=101,11=2,14=-2,25=1,30=1,70=2205,71=1,72=13,74=-58/1,2,3;
 4/5=5,16=3,69=1/1;
 5/5=2,38=5,53=13/2;
 7//1,2,3,16;
 1/5=1,6=50,8=10,11=1,18=20,26=3/3(-5);
 2/9=110/2;
 6/7=2,8=2,9=2,10=2,19=2,28=1/1;
 99/9=1/99;
 Structure from the checkpoint file:  "imda-2_1_sqm.chk"
 ---------------------
 3g_exo_ts_6_reopt.out
 ---------------------
 Charge =  0 Multiplicity = 1
 Redundant internal coordinates found in file.  (old form).
 C,0,-5.1285639605,3.6940674974,0.0207587291
 C,0,-1.6695793224,4.0089790744,0.092340583
 C,0,-4.3712243523,3.4523868872,2.1205849728
 C,0,-1.6215255403,3.2958618459,1.2246457235
 C,0,-5.0521864923,2.3396339394,0.2689300471
 C,0,-4.5747453222,2.1852064352,1.5991894786
 C,0,-3.7943469495,3.8877938343,3.4346595604
 H,0,-3.7886868412,4.9867630519,3.4849162648
 H,0,-4.4337982524,3.5444555883,4.2624364992
 C,0,-2.3732933184,3.3590167931,3.6869596617
 H,0,-1.9903394526,3.7085258276,4.6556558371
 H,0,-2.4028146504,2.2554034044,3.7218994067
 C,0,-1.3406014976,3.7294370523,2.6411760163
 O,0,-0.2777702287,4.228120774,2.9221408628
 H,0,-1.7309827451,2.2114003641,1.1173826656
 H,0,-1.7672202376,3.4802344224,-0.8595309142
 C,0,-1.5778867176,5.4646082454,-0.1221927989
 O,0,-1.2919996717,5.9822154519,-1.1472000973
 N,0,-4.7306074091,4.3474770152,1.1535015117
 H,0,-4.6285133457,5.3508607904,1.2410206758
 H,0,-5.4546720056,4.240670324,-0.8605185234
 Br,0,-2.0709577383,6.6376955499,1.3992625814
 H,0,-5.31941691,1.547683157,-0.4274971475
 H,0,-4.3931670385,1.2485026742,2.1239784039
 Recover connectivity data from disk.

 GradGradGradGradGradGradGradGradGradGradGradGradGradGradGradGradGradGrad
 Berny optimization.
 Initialization pass.
 Force constant matrix read from checkpoint file:
 "imda-2_1_sqm.chk"
                           ----------------------------
                           !    Initial Parameters    !
                           ! (Angstroms and Degrees)  !
 --------------------------                            --------------------------
 ! Name  Definition              Value          Derivative Info.                !
 --------------------------------------------------------------------------------
 ! R1    R(1,5)                  1.3791         D2E/DX2 =    0.4772             !
 ! R2    R(1,19)                 1.3669         D2E/DX2 =    0.4714             !
 ! R3    R(1,21)                 1.0871         D2E/DX2 =    0.2747             !
 ! R4    R(2,4)                  1.339          D2E/DX2 =    0.6631             !
 ! R5    R(2,16)                 1.0932         D2E/DX2 =    0.2887             !
 ! R6    R(2,17)                 1.4742         D2E/DX2 =    0.4458             !
 ! R7    R(3,6)                  1.3853         D2E/DX2 =    0.4644             !
 ! R8    R(3,7)                  1.4997         D2E/DX2 =    0.3563             !
 ! R9    R(3,19)                 1.3659         D2E/DX2 =    0.4671             !
 ! R10   R(4,13)                 1.5078         D2E/DX2 =    0.4293             !
 ! R11   R(4,15)                 1.0952         D2E/DX2 =    0.2924             !
 ! R12   R(5,6)                  1.4218         D2E/DX2 =    0.4383             !
 ! R13   R(5,23)                 1.0879         D2E/DX2 =    0.2736             !
 ! R14   R(6,24)                 1.0889         D2E/DX2 =    0.2748             !
 ! R15   R(7,8)                  1.1001         D2E/DX2 =    0.2759             !
 ! R16   R(7,9)                  1.1009         D2E/DX2 =    0.2769             !
 ! R17   R(7,10)                 1.5371         D2E/DX2 =    0.3453             !
 ! R18   R(10,11)                1.0987         D2E/DX2 =    0.2771             !
 ! R19   R(10,12)                1.1046         D2E/DX2 =    0.2799             !
 ! R20   R(10,13)                1.5157         D2E/DX2 =    0.3388             !
 ! R21   R(13,14)                1.2072         D2E/DX2 =    0.7876             !
 ! R22   R(17,18)                1.1833         D2E/DX2 =    0.7722             !
 ! R23   R(17,22)                1.9835         D2E/DX2 =    0.1522             !
 ! R24   R(19,20)                1.0124         D2E/DX2 =    0.4101             !
 ! A1    A(5,1,19)             107.7115         D2E/DX2 =    0.0905             !
 ! A2    A(5,1,21)             131.0194         D2E/DX2 =    0.0687             !
 ! A3    A(19,1,21)            121.2505         D2E/DX2 =    0.0796             !
 ! A4    A(4,2,16)             118.81           D2E/DX2 =    0.1019             !
 ! A5    A(4,2,17)             130.2921         D2E/DX2 =    0.1593             !
 ! A6    A(16,2,17)            110.8795         D2E/DX2 =    0.0988             !
 ! A7    A(6,3,7)              130.6831         D2E/DX2 =    0.091              !
 ! A8    A(6,3,19)             107.1161         D2E/DX2 =    0.0915             !
 ! A9    A(7,3,19)             122.0962         D2E/DX2 =    0.1089             !
 ! A10   A(2,4,13)             130.3896         D2E/DX2 =    0.1246             !
 ! A11   A(2,4,15)             116.1629         D2E/DX2 =    0.0949             !
 ! A12   A(13,4,15)            113.288          D2E/DX2 =    0.0907             !
 ! A13   A(1,5,6)              107.0762         D2E/DX2 =    0.0871             !
 ! A14   A(1,5,23)             125.8823         D2E/DX2 =    0.0702             !
 ! A15   A(6,5,23)             127.039          D2E/DX2 =    0.0699             !
 ! A16   A(3,6,5)              107.5861         D2E/DX2 =    0.0878             !
 ! A17   A(3,6,24)             125.5191         D2E/DX2 =    0.0706             !
 ! A18   A(5,6,24)             126.8943         D2E/DX2 =    0.0702             !
 ! A19   A(3,7,8)              109.3917         D2E/DX2 =    0.0661             !
 ! A20   A(3,7,9)              110.1733         D2E/DX2 =    0.0621             !
 ! A21   A(3,7,10)             113.551          D2E/DX2 =    0.295              !
 ! A22   A(8,7,9)              106.2709         D2E/DX2 =    0.0184             !
 ! A23   A(8,7,10)             109.3533         D2E/DX2 =    0.0639             !
 ! A24   A(9,7,10)             107.8356         D2E/DX2 =    0.077              !
 ! A25   A(7,10,11)            110.9478         D2E/DX2 =    0.0855             !
 ! A26   A(7,10,12)            108.9171         D2E/DX2 =    0.0668             !
 ! A27   A(7,10,13)            115.6309         D2E/DX2 =    0.3829             !
 ! A28   A(11,10,12)           107.4132         D2E/DX2 =    0.0191             !
 ! A29   A(11,10,13)           107.0437         D2E/DX2 =    0.0819             !
 ! A30   A(12,10,13)           106.512          D2E/DX2 =    0.0677             !
 ! A31   A(4,13,10)            116.8071         D2E/DX2 =    0.1758             !
 ! A32   A(4,13,14)            120.0985         D2E/DX2 =    0.1473             !
 ! A33   A(10,13,14)           122.7            D2E/DX2 =    0.1504             !
 ! A34   A(2,17,18)            124.9583         D2E/DX2 =    0.1329             !
 ! A35   A(2,17,22)            117.1868         D2E/DX2 =    0.1861             !
 ! A36   A(18,17,22)           117.7618         D2E/DX2 =    0.1419             !
 ! A37   A(1,19,3)             110.4927         D2E/DX2 =    0.0949             !
 ! A38   A(1,19,20)            125.0848         D2E/DX2 =    0.0818             !
 ! A39   A(3,19,20)            124.1786         D2E/DX2 =    0.0819             !
 ! D1    D(19,1,5,6)            -0.667          D2E/DX2 =    0.0137             !
 ! D2    D(19,1,5,23)          178.7876         D2E/DX2 =    0.0088             !
 ! D3    D(21,1,5,6)          -179.0756         D2E/DX2 =    0.0084             !
 ! D4    D(21,1,5,23)            0.3789         D2E/DX2 =    0.0072             !
 ! D5    D(5,1,19,3)             1.2741         D2E/DX2 =    0.0138             !
 ! D6    D(5,1,19,20)          175.7841         D2E/DX2 =    0.0074             !
 ! D7    D(21,1,19,3)          179.8697         D2E/DX2 =    0.0083             !
 ! D8    D(21,1,19,20)          -5.6203         D2E/DX2 =    0.005              !
 ! D9    D(16,2,4,13)          172.3477         D2E/DX2 =    0.0209             !
 ! D10   D(16,2,4,15)           -2.6976         D2E/DX2 =    0.0195             !
 ! D11   D(17,2,4,13)           -5.9369         D2E/DX2 =    0.0309             !
 ! D12   D(17,2,4,15)          179.0177         D2E/DX2 =    0.0338             !
 ! D13   D(4,2,17,18)          159.6791         D2E/DX2 =    0.0224             !
 ! D14   D(4,2,17,22)          -23.9187         D2E/DX2 =    0.0316             !
 ! D15   D(16,2,17,18)         -18.7123         D2E/DX2 =    0.0266             !
 ! D16   D(16,2,17,22)         157.6899         D2E/DX2 =    0.0443             !
 ! D17   D(7,3,6,5)           -175.3509         D2E/DX2 =    0.0102             !
 ! D18   D(7,3,6,24)             4.4036         D2E/DX2 =    0.0064             !
 ! D19   D(19,3,6,5)             0.9064         D2E/DX2 =    0.0115             !
 ! D20   D(19,3,6,24)         -179.3391         D2E/DX2 =    0.0073             !
 ! D21   D(6,3,7,8)            179.5621         D2E/DX2 =    0.016              !
 ! D22   D(6,3,7,9)            -63.9657         D2E/DX2 =    0.0143             !
 ! D23   D(6,3,7,10)            57.1049         D2E/DX2 =    0.0171             !
 ! D24   D(19,3,7,8)             3.7852         D2E/DX2 =    0.0132             !
 ! D25   D(19,3,7,9)           120.2574         D2E/DX2 =    0.0197             !
 ! D26   D(19,3,7,10)         -118.672          D2E/DX2 =    0.0243             !
 ! D27   D(6,3,19,1)            -1.3603         D2E/DX2 =    0.012              !
 ! D28   D(6,3,19,20)         -175.9301         D2E/DX2 =    0.0063             !
 ! D29   D(7,3,19,1)           175.2899         D2E/DX2 =    0.0106             !
 ! D30   D(7,3,19,20)            0.7201         D2E/DX2 =    0.0043             !
 ! D31   D(2,4,13,10)          125.7245         D2E/DX2 =    0.0313             !
 ! D32   D(2,4,13,14)          -61.2901         D2E/DX2 =    0.0191             !
 ! D33   D(15,4,13,10)         -59.1167         D2E/DX2 =    0.0247             !
 ! D34   D(15,4,13,14)         113.8687         D2E/DX2 =    0.0185             !
 ! D35   D(1,5,6,3)             -0.15           D2E/DX2 =    0.0126             !
 ! D36   D(1,5,6,24)          -179.9002         D2E/DX2 =    0.0081             !
 ! D37   D(23,5,6,3)          -179.5963         D2E/DX2 =    0.0087             !
 ! D38   D(23,5,6,24)            0.6535         D2E/DX2 =    0.0074             !
 ! D39   D(3,7,10,11)          179.601          D2E/DX2 =    0.0218             !
 ! D40   D(3,7,10,12)          -62.3692         D2E/DX2 =    0.0169             !
 ! D41   D(3,7,10,13)           57.476          D2E/DX2 =    0.0204             !
 ! D42   D(8,7,10,11)           57.1226         D2E/DX2 =    0.014              !
 ! D43   D(8,7,10,12)          175.1523         D2E/DX2 =    0.0223             !
 ! D44   D(8,7,10,13)          -65.0024         D2E/DX2 =    0.0155             !
 ! D45   D(9,7,10,11)          -58.0258         D2E/DX2 =    0.0171             !
 ! D46   D(9,7,10,12)           60.004          D2E/DX2 =    0.0141             !
 ! D47   D(9,7,10,13)          179.8492         D2E/DX2 =    0.0181             !
 ! D48   D(7,10,13,4)          -58.3195         D2E/DX2 =    0.0331             !
 ! D49   D(7,10,13,14)         128.8933         D2E/DX2 =    0.0227             !
 ! D50   D(11,10,13,4)         177.4975         D2E/DX2 =    0.0272             !
 ! D51   D(11,10,13,14)          4.7104         D2E/DX2 =    0.0165             !
 ! D52   D(12,10,13,4)          62.8302         D2E/DX2 =    0.0175             !
 ! D53   D(12,10,13,14)       -109.9569         D2E/DX2 =    0.0188             !
 --------------------------------------------------------------------------------
 Trust Radius=1.00D-01 FncErr=1.00D-07 GrdErr=1.00D-06 EigMax=2.50D+02 EigMin=1.00D-04
 Number of steps in this run=     50 maximum allowed number of steps=    144.
 Search for a saddle point of order  1.
 GradGradGradGradGradGradGradGradGradGradGradGradGradGradGradGradGradGrad

                          Input orientation:                          
 ---------------------------------------------------------------------
 Center     Atomic      Atomic             Coordinates (Angstroms)
 Number     Number       Type             X           Y           Z
 ---------------------------------------------------------------------
      1          6           0       -5.128564    3.694067    0.020759
      2          6           0       -1.669579    4.008979    0.092341
      3          6           0       -4.371224    3.452387    2.120585
      4          6           0       -1.621526    3.295862    1.224646
      5          6           0       -5.052186    2.339634    0.268930
      6          6           0       -4.574745    2.185206    1.599189
      7          6           0       -3.794347    3.887794    3.434660
      8          1           0       -3.788687    4.986763    3.484916
      9          1           0       -4.433798    3.544456    4.262436
     10          6           0       -2.373293    3.359017    3.686960
     11          1           0       -1.990339    3.708526    4.655656
     12          1           0       -2.402815    2.255403    3.721899
     13          6           0       -1.340601    3.729437    2.641176
     14          8           0       -0.277770    4.228121    2.922141
     15          1           0       -1.730983    2.211400    1.117383
     16          1           0       -1.767220    3.480234   -0.859531
     17          6           0       -1.577887    5.464608   -0.122193
     18          8           0       -1.292000    5.982215   -1.147200
     19          7           0       -4.730607    4.347477    1.153502
     20          1           0       -4.628513    5.350861    1.241021
     21          1           0       -5.454672    4.240670   -0.860519
     22         35           0       -2.070958    6.637696    1.399263
     23          1           0       -5.319417    1.547683   -0.427497
     24          1           0       -4.393167    1.248503    2.123978
 ---------------------------------------------------------------------
                    Distance matrix (angstroms):
                    1          2          3          4          5
     1  C    0.000000
     2  C    3.474028   0.000000
     3  C    2.245271   3.423807   0.000000
     4  C    3.729240   1.339015   2.896213   0.000000
     5  C    1.379099   3.776232   2.265073   3.687438   0.000000
     6  C    2.252736   3.746562   1.385287   3.177317   1.421755
     7  C    3.670475   3.962375   1.499720   3.155265   3.741765
     8  H    3.932775   4.117796   2.134259   3.558730   4.352734
     9  H    4.300804   5.024578   2.144742   4.147150   4.216882
    10  C    4.598348   3.720074   2.540468   2.575293   4.460778
    11  H    5.597404   4.584431   3.487234   3.475363   5.521968
    12  H    4.816420   4.097116   2.805640   2.815891   4.353075
    13  C    4.606137   2.585137   3.087466   1.507801   4.618979
    14  O    5.677449   3.161159   4.242714   2.357175   5.779356
    15  H    3.865804   2.070210   3.085018   1.095236   3.430264
    16  H    3.481274   1.093236   3.957613   2.097382   3.655872
    17  C    3.970209   1.474208   4.108749   2.553300   4.689264
    18  O    4.617247   2.360654   5.153647   3.598713   5.423360
    19  N    1.366901   3.257382   1.365867   3.282887   2.217502
    20  H    2.117558   3.446071   2.108088   3.642151   3.192483
    21  H    1.087093   3.910057   3.268368   4.464704   2.247574
    22  Br   4.462530   2.962988   3.994712   3.376438   5.351515
    23  H    2.200982   4.432778   3.319592   4.411361   1.087938
    24  H    3.308342   4.377866   2.203996   3.561246   2.250795
                    6          7          8          9         10
     6  C    0.000000
     7  C    2.622361   0.000000
     8  H    3.467358   1.100132   0.000000
     9  H    2.993378   1.100906   1.760954   0.000000
    10  C    3.253153   1.537093   2.166499   2.147380   0.000000
    11  H    4.282714   2.185729   2.497714   2.480329   1.098719
    12  H    3.037780   2.164155   3.071991   2.465508   1.104561
    13  C    3.732301   2.583710   2.878522   3.497223   1.515694
    14  O    4.938390   3.569987   3.635765   4.419995   2.394057
    15  H    2.884408   3.526690   4.188317   4.355871   2.886574
    16  H    3.950266   4.766070   5.022965   5.774886   4.588311
    17  C    4.764325   4.477749   4.257606   5.573885   4.424458
    18  O    5.721569   5.625103   5.355453   6.713996   5.605307
    19  N    2.213220   2.508301   2.594493   3.224657   3.598943
    20  H    3.186306   2.765583   2.423416   3.525616   3.877638
    21  H    3.324059   4.618415   4.713275   5.269873   5.563431
    22  Br   5.112102   3.830779   3.166405   4.832071   4.009327
    23  H    2.251317   4.766362   5.429308   5.173674   5.374879
    24  H    1.088939   3.007046   4.023946   3.137842   3.313166
                   11         12         13         14         15
    11  H    0.000000
    12  H    1.775838   0.000000
    13  C    2.116772   2.114009   0.000000
    14  O    2.491575   3.007830   1.207161   0.000000
    15  H    3.850718   2.690130   2.186042   3.071830   0.000000
    16  H    5.524417   4.784736   3.535400   4.132655   2.349349
    17  C    5.107032   5.075091   3.271594   3.533719   3.484731
    18  O    6.271402   6.231466   4.407853   4.545882   4.420417
    19  N    4.492484   4.048711   3.753304   4.792712   3.682645
    20  H    4.617029   4.548665   3.924260   4.797466   4.274012
    21  H    6.535515   5.852664   5.426675   6.411629   4.679305
    22  Br   4.380711   4.970841   3.245572   3.367600   4.448273
    23  H    6.449065   5.121028   5.477935   6.619896   3.962832
    24  H    4.270209   2.743848   3.967453   5.143120   3.004602
                   16         17         18         19         20
    16  H    0.000000
    17  C    2.125383   0.000000
    18  O    2.562908   1.183338   0.000000
    19  N    3.685929   3.579808   4.448553   0.000000
    20  H    4.012301   3.343294   4.151449   1.012355   0.000000
    21  H    3.765045   4.131902   4.521394   2.142884   2.516253
    22  Br   3.894094   1.983451   2.742426   3.518414   2.867416
    23  H    4.066879   5.425363   6.033501   3.268807   4.210161
    24  H    4.558240   5.544965   6.536504   3.264863   4.202897
                   21         22         23         24
    21  H    0.000000
    22  Br   4.722485   0.000000
    23  H    2.730930   6.308547   0.000000
    24  H    4.357417   5.912806   2.730838   0.000000
 Stoichiometry    C10H10BrNO2
 Framework group  C1[X(C10H10BrNO2)]
 Deg. of freedom    66
 Full point group                 C1      NOp   1
 Largest Abelian subgroup         C1      NOp   1
 Largest concise Abelian subgroup C1      NOp   1
                         Standard orientation:                         
 ---------------------------------------------------------------------
 Center     Atomic      Atomic             Coordinates (Angstroms)
 Number     Number       Type             X           Y           Z
 ---------------------------------------------------------------------
      1          6           0       -2.056396   -2.095669   -0.335847
      2          6           0        0.389491   -0.583084    1.613151
      3          6           0       -2.057661    0.123890   -0.674663
      4          6           0       -0.281321    0.574900    1.567938
      5          6           0       -3.063612   -1.568720    0.445019
      6          6           0       -3.066910   -0.163363    0.229728
      7          6           0       -1.550551    1.438320   -1.188737
      8          1           0       -0.726480    1.260702   -1.895596
      9          1           0       -2.339664    1.953286   -1.758039
     10          6           0       -1.073813    2.389128   -0.079080
     11          1           0       -0.705631    3.333749   -0.502536
     12          1           0       -1.929069    2.631853    0.576418
     13          6           0        0.019655    1.849872    0.821396
     14          8           0        1.036294    2.459452    1.049640
     15          1           0       -1.152772    0.654206    2.226592
     16          1           0        0.066904   -1.351531    2.320677
     17          6           0        1.575865   -1.027644    0.859379
     18          8           0        2.298066   -1.905624    1.187807
     19          7           0       -1.473526   -1.062802   -1.015456
     20          1           0       -0.664997   -1.146087   -1.618951
     21          1           0       -1.725861   -3.121594   -0.477257
     22         35           0        1.922041   -0.150400   -0.885523
     23          1           0       -3.730360   -2.134042    1.092682
     24          1           0       -3.732193    0.566678    0.688230
 ---------------------------------------------------------------------
 Rotational constants (GHZ):           0.7271356           0.4563444           0.3836547
 Standard basis: def2SVP (5D, 7F)
 There are   280 symmetry adapted cartesian basis functions of A   symmetry.
 There are   264 symmetry adapted basis functions of A   symmetry.
   264 basis functions,   475 primitive gaussians,   280 cartesian basis functions
    64 alpha electrons       64 beta electrons
       nuclear repulsion energy      1239.9458191824 Hartrees.
 NAtoms=   24 NActive=   24 NUniq=   24 SFac= 1.00D+00 NAtFMM=   60 NAOKFM=F Big=F
 Integral buffers will be    131072 words long.
 Raffenetti 2 integral format.
 Two-electron integral symmetry is turned on.
 Nuclear repulsion after empirical dispersion term =     1239.9253911420 Hartrees.
 ------------------------------------------------------------------------------
 Polarizable Continuum Model (PCM)
 =================================
 Model                : PCM.
 Atomic radii         : UFF (Universal Force Field).
 Polarization charges : Total charges.
 Charge compensation  : None.
 Solution method      : On-the-fly selection.
 Cavity type          : Scaled VdW (van der Waals Surface) (Alpha=1.100).
 Cavity algorithm     : GePol (No added spheres)
                        Default sphere list used, NSphG=   24.
                        Lebedev-Laikov grids with approx.  5.0 points / Ang**2.
                        Smoothing algorithm: York/Karplus (Gamma=1.0000).
                        Polarization charges: spherical gaussians, with
                                              point-specific exponents (IZeta= 3).
                        Self-potential: point-specific (ISelfS= 7).
                        Self-field    : sphere-specific E.n sum rule (ISelfD= 2).
 1st derivatives      : Analytical E(r).r(x)/FMM algorithm (CHGder, D1EAlg=3).
                        Cavity 1st derivative terms included.
 Solvent              : Toluene, Eps=   2.374100 Eps(inf)=   2.238315
 ------------------------------------------------------------------------------
 One-electron integrals computed using PRISM.
   1 Symmetry operations used in ECPInt.
 ECPInt:  NShTT=    7260 NPrTT=   28205 LenC2=    7045 LenP2D=   20152.
 LDataN:  DoStor=T MaxTD1= 4 Len=   56
 NBasis=   264 RedAO= T EigKep=  6.61D-04  NBF=   264
 NBsUse=   264 1.00D-06 EigRej= -1.00D+00 NBFU=   264
 ExpMin= 1.22D-01 ExpMax= 1.13D+05 ExpMxC= 1.70D+04 IAcc=3 IRadAn=         5 AccDes= 0.00D+00
 Harris functional with IExCor= 4639 and IRadAn=       5 diagonalized for initial guess.
 HarFok:  IExCor= 4639 AccDes= 0.00D+00 IRadAn=         5 IDoV= 1 UseB2=F ITyADJ=14
 ICtDFT=  3500011 ScaDFX=  1.000000  1.000000  1.000000  1.000000
 FoFCou: FMM=F IPFlag=           0 FMFlag=      100000 FMFlg1=           0
         NFxFlg=           0 DoJE=T BraDBF=F KetDBF=T FulRan=T
         wScrn=  0.000000 ICntrl=       500 IOpCl=  0 I1Cent=   200000004 NGrid=           0
         NMat0=    1 NMatS0=      1 NMatT0=    0 NMatD0=    1 NMtDS0=    0 NMtDT0=    0
 Petite list used in FoFCou.
 Requested convergence on RMS density matrix=1.00D-08 within 128 cycles.
 Requested convergence on MAX density matrix=1.00D-06.
 Requested convergence on             energy=1.00D-06.
 No special actions if energy rises.
 Inv3:  Mode=1 IEnd=    11419203.
 Iteration    1 A*A^-1 deviation from unit magnitude is 2.66D-15 for   1665.
 Iteration    1 A*A^-1 deviation from orthogonality  is 2.10D-15 for   1491    208.
 Iteration    1 A^-1*A deviation from unit magnitude is 2.89D-15 for   1183.
 Iteration    1 A^-1*A deviation from orthogonality  is 1.43D-15 for   1614    366.
 Error on total polarization charges =  0.00753
 SCF Done:  E(RwB97XD) =  -3165.54154316     A.U. after   16 cycles
            NFock= 16  Conv=0.53D-08     -V/T= 2.0027

 **********************************************************************

            Population analysis using the SCF Density.

 **********************************************************************

 Orbital symmetries:
       Occupied  (A) (A) (A) (A) (A) (A) (A) (A) (A) (A) (A) (A)
                 (A) (A) (A) (A) (A) (A) (A) (A) (A) (A) (A) (A)
                 (A) (A) (A) (A) (A) (A) (A) (A) (A) (A) (A) (A)
                 (A) (A) (A) (A) (A) (A) (A) (A) (A) (A) (A) (A)
                 (A) (A) (A) (A) (A) (A) (A) (A) (A) (A) (A) (A)
                 (A) (A) (A) (A)
       Virtual   (A) (A) (A) (A) (A) (A) (A) (A) (A) (A) (A) (A)
                 (A) (A) (A) (A) (A) (A) (A) (A) (A) (A) (A) (A)
                 (A) (A) (A) (A) (A) (A) (A) (A) (A) (A) (A) (A)
                 (A) (A) (A) (A) (A) (A) (A) (A) (A) (A) (A) (A)
                 (A) (A) (A) (A) (A) (A) (A) (A) (A) (A) (A) (A)
                 (A) (A) (A) (A) (A) (A) (A) (A) (A) (A) (A) (A)
                 (A) (A) (A) (A) (A) (A) (A) (A) (A) (A) (A) (A)
                 (A) (A) (A) (A) (A) (A) (A) (A) (A) (A) (A) (A)
                 (A) (A) (A) (A) (A) (A) (A) (A) (A) (A) (A) (A)
                 (A) (A) (A) (A) (A) (A) (A) (A) (A) (A) (A) (A)
                 (A) (A) (A) (A) (A) (A) (A) (A) (A) (A) (A) (A)
                 (A) (A) (A) (A) (A) (A) (A) (A) (A) (A) (A) (A)
                 (A) (A) (A) (A) (A) (A) (A) (A) (A) (A) (A) (A)
                 (A) (A) (A) (A) (A) (A) (A) (A) (A) (A) (A) (A)
                 (A) (A) (A) (A) (A) (A) (A) (A) (A) (A) (A) (A)
                 (A) (A) (A) (A) (A) (A) (A) (A) (A) (A) (A) (A)
                 (A) (A) (A) (A) (A) (A) (A) (A)
 The electronic state is 1-A.
 Alpha  occ. eigenvalues -- -483.06642 -62.64873 -56.45599 -56.45317 -56.45282
 Alpha  occ. eigenvalues --  -19.29970 -19.26610 -14.49551 -10.45750 -10.41011
 Alpha  occ. eigenvalues --  -10.34942 -10.34317 -10.33033 -10.32325 -10.32320
 Alpha  occ. eigenvalues --  -10.31913 -10.28806 -10.28775  -8.81821  -6.64233
 Alpha  occ. eigenvalues --   -6.63171  -6.63058  -2.74626  -2.74347  -2.74259
 Alpha  occ. eigenvalues --   -2.73414  -2.73412  -1.19633  -1.15515  -1.08130
 Alpha  occ. eigenvalues --   -0.93084  -0.90653  -0.88337  -0.87011  -0.82599
 Alpha  occ. eigenvalues --   -0.78381  -0.74237  -0.68314  -0.67961  -0.66535
 Alpha  occ. eigenvalues --   -0.62006  -0.60957  -0.59634  -0.58493  -0.56166
 Alpha  occ. eigenvalues --   -0.55141  -0.54307  -0.53580  -0.52194  -0.51881
 Alpha  occ. eigenvalues --   -0.50849  -0.49974  -0.48101  -0.47568  -0.46974
 Alpha  occ. eigenvalues --   -0.45602  -0.44050  -0.39231  -0.38859  -0.38149
 Alpha  occ. eigenvalues --   -0.37201  -0.35019  -0.33366  -0.29253
 Alpha virt. eigenvalues --   -0.02320   0.04111   0.06148   0.09759   0.11655
 Alpha virt. eigenvalues --    0.13408   0.13811   0.14801   0.15699   0.17576
 Alpha virt. eigenvalues --    0.19709   0.20163   0.20581   0.21564   0.23375
 Alpha virt. eigenvalues --    0.23536   0.26887   0.27940   0.28646   0.30616
 Alpha virt. eigenvalues --    0.31331   0.32491   0.33902   0.35570   0.37617
 Alpha virt. eigenvalues --    0.39953   0.40470   0.42303   0.43021   0.46635
 Alpha virt. eigenvalues --    0.48283   0.49608   0.50160   0.50730   0.51954
 Alpha virt. eigenvalues --    0.52790   0.53993   0.54273   0.55792   0.56402
 Alpha virt. eigenvalues --    0.57050   0.57930   0.59885   0.60320   0.60835
 Alpha virt. eigenvalues --    0.61925   0.64766   0.65200   0.65981   0.67243
 Alpha virt. eigenvalues --    0.67696   0.69967   0.70203   0.70936   0.71933
 Alpha virt. eigenvalues --    0.72878   0.73950   0.74689   0.74919   0.75443
 Alpha virt. eigenvalues --    0.75676   0.76664   0.77484   0.78355   0.79101
 Alpha virt. eigenvalues --    0.79580   0.81389   0.81928   0.82527   0.83598
 Alpha virt. eigenvalues --    0.84543   0.87186   0.88504   0.89662   0.89837
 Alpha virt. eigenvalues --    0.91081   0.93575   0.94214   0.96475   0.98817
 Alpha virt. eigenvalues --    1.01863   1.02295   1.03450   1.06457   1.06844
 Alpha virt. eigenvalues --    1.11182   1.11820   1.12361   1.16030   1.19593
 Alpha virt. eigenvalues --    1.21063   1.22635   1.24246   1.26181   1.27983
 Alpha virt. eigenvalues --    1.29041   1.32296   1.34298   1.37362   1.37597
 Alpha virt. eigenvalues --    1.40492   1.42079   1.42723   1.47057   1.49240
 Alpha virt. eigenvalues --    1.51625   1.52055   1.57438   1.60736   1.65419
 Alpha virt. eigenvalues --    1.70285   1.72124   1.72504   1.74182   1.75563
 Alpha virt. eigenvalues --    1.76353   1.79057   1.79216   1.80165   1.82243
 Alpha virt. eigenvalues --    1.83242   1.84092   1.85024   1.86073   1.88046
 Alpha virt. eigenvalues --    1.88394   1.91919   1.92609   1.93152   1.93771
 Alpha virt. eigenvalues --    1.95586   1.97393   1.98488   1.99742   2.01051
 Alpha virt. eigenvalues --    2.02714   2.04258   2.05130   2.07614   2.09170
 Alpha virt. eigenvalues --    2.10535   2.12078   2.14508   2.16506   2.20252
 Alpha virt. eigenvalues --    2.22588   2.23888   2.24671   2.26372   2.31450
 Alpha virt. eigenvalues --    2.34737   2.35639   2.37347   2.40339   2.42287
 Alpha virt. eigenvalues --    2.43600   2.45218   2.46620   2.49884   2.52285
 Alpha virt. eigenvalues --    2.53502   2.55093   2.58441   2.64929   2.69995
 Alpha virt. eigenvalues --    2.73086   2.74402   2.75207   2.75714   2.77162
 Alpha virt. eigenvalues --    2.79080   2.79370   2.81735   2.82813   2.85640
 Alpha virt. eigenvalues --    2.87268   2.88985   2.92247   2.93957   2.96910
 Alpha virt. eigenvalues --    3.02479   3.04693   3.07017   3.10806   3.11911
 Alpha virt. eigenvalues --    3.20139   3.24663   3.27048   3.37656   3.40768
 Alpha virt. eigenvalues --    3.50294   3.53633   3.54754   3.57933   3.59732
 Alpha virt. eigenvalues --    3.67223   3.68959   3.69698   3.71841   3.89322
          Condensed to atoms (all electrons):
               1          2          3          4          5          6
     1  C    4.926555   0.004465  -0.144446  -0.004362   0.447151  -0.023819
     2  C    0.004465   5.102759  -0.010039   0.499959   0.000491  -0.005095
     3  C   -0.144446  -0.010039   5.184568   0.020734  -0.012170   0.418899
     4  C   -0.004362   0.499959   0.020734   5.157057  -0.000724  -0.002688
     5  C    0.447151   0.000491  -0.012170  -0.000724   4.972117   0.368471
     6  C   -0.023819  -0.005095   0.418899  -0.002688   0.368471   5.124744
     7  C    0.008526  -0.001124   0.327341   0.002851   0.010392  -0.098926
     8  H    0.000182   0.001361  -0.010337  -0.004383  -0.000638   0.011488
     9  H   -0.000168  -0.000054   0.004465   0.000091   0.000075  -0.008471
    10  C    0.000057   0.003243  -0.051364  -0.186442   0.000503   0.002431
    11  H   -0.000002  -0.000423   0.008122   0.014944   0.000005   0.000053
    12  H    0.000049   0.001427  -0.015141  -0.000346  -0.000284   0.007367
    13  C    0.000400  -0.004529  -0.016812   0.220261   0.000163  -0.005869
    14  O    0.000000  -0.002397  -0.000171  -0.091907  -0.000001   0.000012
    15  H    0.000112   0.017195  -0.000325   0.359074  -0.000700   0.008700
    16  H    0.002030   0.390603  -0.000338  -0.011454   0.001532  -0.000028
    17  C    0.002225   0.256508  -0.001458  -0.012500  -0.000115   0.000007
    18  O   -0.000066  -0.080270   0.000010   0.005339  -0.000003   0.000000
    19  N    0.394799   0.001019   0.444488  -0.004423  -0.061018  -0.098471
    20  H   -0.027202   0.001130  -0.020503  -0.001110   0.007057   0.010849
    21  H    0.431607  -0.000610   0.003986   0.000090  -0.049789   0.009211
    22  Br  -0.000064  -0.135698  -0.001791   0.014817  -0.000085  -0.000109
    23  H   -0.057770   0.000029   0.012729   0.000013   0.452534  -0.058600
    24  H    0.012171   0.000142  -0.056875  -0.000443  -0.057605   0.453425
               7          8          9         10         11         12
     1  C    0.008526   0.000182  -0.000168   0.000057  -0.000002   0.000049
     2  C   -0.001124   0.001361  -0.000054   0.003243  -0.000423   0.001427
     3  C    0.327341  -0.010337   0.004465  -0.051364   0.008122  -0.015141
     4  C    0.002851  -0.004383   0.000091  -0.186442   0.014944  -0.000346
     5  C    0.010392  -0.000638   0.000075   0.000503   0.000005  -0.000284
     6  C   -0.098926   0.011488  -0.008471   0.002431   0.000053   0.007367
     7  C    4.680340   0.364323   0.353753   0.359058  -0.008600  -0.011901
     8  H    0.364323   0.659543  -0.024125  -0.023819  -0.007017   0.007483
     9  H    0.353753  -0.024125   0.632623  -0.014431  -0.004117  -0.009511
    10  C    0.359058  -0.023819  -0.014431   5.011687   0.333641   0.368506
    11  H   -0.008600  -0.007017  -0.004117   0.333641   0.616854  -0.014070
    12  H   -0.011901   0.007483  -0.009511   0.368506  -0.014070   0.608406
    13  C   -0.028102  -0.004572   0.006655   0.323340  -0.005087  -0.019747
    14  O    0.002881   0.000688  -0.000160  -0.088468   0.009836   0.001805
    15  H   -0.003367   0.000047   0.000041   0.006711  -0.000259   0.000010
    16  H    0.000030   0.000010  -0.000003  -0.000229   0.000007   0.000021
    17  C   -0.000064  -0.000481   0.000008   0.000737  -0.000003  -0.000049
    18  O    0.000000   0.000003   0.000000  -0.000003   0.000000   0.000000
    19  N   -0.049243  -0.008687   0.003228  -0.003368  -0.000078   0.000008
    20  H   -0.012960   0.005099   0.000064   0.000387  -0.000023   0.000005
    21  H   -0.000301  -0.000007   0.000010   0.000007  -0.000000  -0.000000
    22  Br   0.001091   0.007378   0.000155  -0.007748   0.000043   0.000125
    23  H   -0.000263   0.000007   0.000004   0.000003  -0.000000   0.000005
    24  H   -0.007693  -0.000004   0.001363  -0.000065  -0.000036   0.001358
              13         14         15         16         17         18
     1  C    0.000400   0.000000   0.000112   0.002030   0.002225  -0.000066
     2  C   -0.004529  -0.002397   0.017195   0.390603   0.256508  -0.080270
     3  C   -0.016812  -0.000171  -0.000325  -0.000338  -0.001458   0.000010
     4  C    0.220261  -0.091907   0.359074  -0.011454  -0.012500   0.005339
     5  C    0.000163  -0.000001  -0.000700   0.001532  -0.000115  -0.000003
     6  C   -0.005869   0.000012   0.008700  -0.000028   0.000007   0.000000
     7  C   -0.028102   0.002881  -0.003367   0.000030  -0.000064   0.000000
     8  H   -0.004572   0.000688   0.000047   0.000010  -0.000481   0.000003
     9  H    0.006655  -0.000160   0.000041  -0.000003   0.000008   0.000000
    10  C    0.323340  -0.088468   0.006711  -0.000229   0.000737  -0.000003
    11  H   -0.005087   0.009836  -0.000259   0.000007  -0.000003   0.000000
    12  H   -0.019747   0.001805   0.000010   0.000021  -0.000049   0.000000
    13  C    4.798879   0.715580  -0.036167   0.006128  -0.022456  -0.000064
    14  O    0.715580   7.661301   0.001022  -0.000173   0.001595  -0.000002
    15  H   -0.036167   0.001022   0.565753  -0.013450   0.007112  -0.000077
    16  H    0.006128  -0.000173  -0.013450   0.576279  -0.036220   0.002829
    17  C   -0.022456   0.001595   0.007112  -0.036220   4.719453   0.702866
    18  O   -0.000064  -0.000002  -0.000077   0.002829   0.702866   7.585193
    19  N    0.001252   0.000004  -0.000496  -0.000800   0.001110  -0.000017
    20  H   -0.000039   0.000001  -0.000036  -0.000058  -0.001117  -0.000067
    21  H    0.000006   0.000000  -0.000008   0.000084   0.000166   0.000018
    22  Br   0.008028  -0.005160  -0.000017   0.004667   0.261095  -0.073329
    23  H   -0.000006  -0.000000  -0.000037  -0.000001  -0.000008  -0.000000
    24  H    0.000032  -0.000001   0.000717  -0.000010  -0.000003  -0.000000
              19         20         21         22         23         24
     1  C    0.394799  -0.027202   0.431607  -0.000064  -0.057770   0.012171
     2  C    0.001019   0.001130  -0.000610  -0.135698   0.000029   0.000142
     3  C    0.444488  -0.020503   0.003986  -0.001791   0.012729  -0.056875
     4  C   -0.004423  -0.001110   0.000090   0.014817   0.000013  -0.000443
     5  C   -0.061018   0.007057  -0.049789  -0.000085   0.452534  -0.057605
     6  C   -0.098471   0.010849   0.009211  -0.000109  -0.058600   0.453425
     7  C   -0.049243  -0.012960  -0.000301   0.001091  -0.000263  -0.007693
     8  H   -0.008687   0.005099  -0.000007   0.007378   0.000007  -0.000004
     9  H    0.003228   0.000064   0.000010   0.000155   0.000004   0.001363
    10  C   -0.003368   0.000387   0.000007  -0.007748   0.000003  -0.000065
    11  H   -0.000078  -0.000023  -0.000000   0.000043  -0.000000  -0.000036
    12  H    0.000008   0.000005  -0.000000   0.000125   0.000005   0.001358
    13  C    0.001252  -0.000039   0.000006   0.008028  -0.000006   0.000032
    14  O    0.000004   0.000001   0.000000  -0.005160  -0.000000  -0.000001
    15  H   -0.000496  -0.000036  -0.000008  -0.000017  -0.000037   0.000717
    16  H   -0.000800  -0.000058   0.000084   0.004667  -0.000001  -0.000010
    17  C    0.001110  -0.001117   0.000166   0.261095  -0.000008  -0.000003
    18  O   -0.000017  -0.000067   0.000018  -0.073329  -0.000000  -0.000000
    19  N    6.159902   0.365355  -0.034095  -0.004367   0.004396   0.005235
    20  H    0.365355   0.515425  -0.005078   0.014447  -0.000189  -0.000223
    21  H   -0.034095  -0.005078   0.606616   0.000036  -0.004156  -0.000182
    22  Br  -0.004367   0.014447   0.000036  35.061405   0.000000  -0.000000
    23  H    0.004396  -0.000189  -0.004156   0.000000   0.633677  -0.005499
    24  H    0.005235  -0.000223  -0.000182  -0.000000  -0.005499   0.642269
 Mulliken charges:
               1
     1  C    0.027570
     2  C   -0.040091
     3  C   -0.083575
     4  C    0.025552
     5  C   -0.077358
     6  C   -0.113579
     7  C    0.111958
     8  H    0.026459
     9  H    0.058504
    10  C   -0.034373
    11  H    0.056211
    12  H    0.074473
    13  C    0.062728
    14  O   -0.206285
    15  H    0.088445
    16  H    0.078546
    17  C    0.121595
    18  O   -0.142359
    19  N   -0.115733
    20  H    0.148785
    21  H    0.042390
    22  Br  -0.144921
    23  H    0.023131
    24  H    0.011926
 Sum of Mulliken charges =  -0.00000
 Mulliken charges with hydrogens summed into heavy atoms:
               1
     1  C    0.069960
     2  C    0.038455
     3  C   -0.083575
     4  C    0.113997
     5  C   -0.054227
     6  C   -0.101653
     7  C    0.196921
    10  C    0.096311
    13  C    0.062728
    14  O   -0.206285
    17  C    0.121595
    18  O   -0.142359
    19  N    0.033052
    22  Br  -0.144921
 Electronic spatial extent (au):  <R**2>=           3124.2533
 Charge=             -0.0000 electrons
 Dipole moment (field-independent basis, Debye):
    X=             -3.9767    Y=              0.2434    Z=             -0.7809  Tot=              4.0600
 Quadrupole moment (field-independent basis, Debye-Ang):
   XX=           -103.9091   YY=            -94.4164   ZZ=            -88.4537
   XY=             -4.2732   XZ=             -6.6432   YZ=             -1.3778
 Traceless Quadrupole moment (field-independent basis, Debye-Ang):
   XX=             -8.3160   YY=              1.1766   ZZ=              7.1394
   XY=             -4.2732   XZ=             -6.6432   YZ=             -1.3778
 Octapole moment (field-independent basis, Debye-Ang**2):
  XXX=             66.4707  YYY=            -15.2911  ZZZ=            -24.9055  XYY=             -8.1293
  XXY=             18.0387  XXZ=             -0.8077  XZZ=             17.2710  YZZ=             -1.1891
  YYZ=            -21.7296  XYZ=              1.5832
 Hexadecapole moment (field-independent basis, Debye-Ang**3):
 XXXX=          -2078.7825 YYYY=          -1218.4423 ZZZZ=           -624.0862 XXXY=            -25.3790
 XXXZ=           -109.5515 YYYX=            -27.1695 YYYZ=             -6.7724 ZZZX=            -61.7425
 ZZZY=              1.0770 XXYY=           -560.9726 XXZZ=           -446.6086 YYZZ=           -313.3340
 XXYZ=             -8.7678 YYXZ=            -45.8379 ZZXY=            -10.1399
 N-N= 1.239925391142D+03 E-N=-1.000844635443D+04  KE= 3.156864461774D+03
   1 Symmetry operations used in ECPInt.
 ECPInt:  NShTT=    7260 NPrTT=   28205 LenC2=    7045 LenP2D=   20152.
 LDataN:  DoStor=T MaxTD1= 5 Len=  102
 D1PCM: PCM CHGder 1st derivatives, ID1Alg=3 FixD1E=F DoIter=F DoCFld=F I1PDM=0.
 Calling FoFJK, ICntrl=      2127 FMM=F ISym2X=0 I1Cent= 0 IOpClX= 0 NMat=1 NMatS=1 NMatT=0.
 ***** Axes restored to original set *****
 -------------------------------------------------------------------
 Center     Atomic                   Forces (Hartrees/Bohr)
 Number     Number              X              Y              Z
 -------------------------------------------------------------------
      1        6           0.000005555   -0.000012915    0.000013550
      2        6           0.000013981    0.000039697    0.000043496
      3        6           0.000007734    0.000013547   -0.000007595
      4        6          -0.000002574    0.000004415   -0.000003418
      5        6           0.000006943    0.000002794    0.000002331
      6        6          -0.000006784   -0.000002875    0.000001027
      7        6           0.000011982   -0.000005416    0.000016951
      8        1          -0.000005919   -0.000002278    0.000006383
      9        1          -0.000006510   -0.000003714    0.000003610
     10        6          -0.000021682    0.000006076   -0.000042026
     11        1           0.000013586    0.000021877    0.000020396
     12        1           0.000000828   -0.000003896    0.000005314
     13        6           0.000002874   -0.000013129    0.000000156
     14        8           0.000005528   -0.000004852   -0.000008100
     15        1           0.000009882    0.000009034    0.000003370
     16        1          -0.000008281   -0.000022724   -0.000042333
     17        6          -0.000021997   -0.000020620    0.000005455
     18        8           0.000006818   -0.000003993    0.000004110
     19        7          -0.000012723   -0.000052960   -0.000007505
     20        1           0.000003937    0.000028422    0.000000235
     21        1          -0.000009181    0.000001786   -0.000007040
     22       35           0.000000189    0.000028108   -0.000008252
     23        1           0.000006861   -0.000007100   -0.000000080
     24        1          -0.000001048    0.000000717   -0.000000032
 -------------------------------------------------------------------
 Cartesian Forces:  Max     0.000052960 RMS     0.000015516

 GradGradGradGradGradGradGradGradGradGradGradGradGradGradGradGradGradGrad
 Berny optimization.
 FormGI is forming the generalized inverse of G from B-inverse, IUseBI=4.
 Internal  Forces:  Max     0.000066576 RMS     0.000013823
 Search for a saddle point.
 Step number   1 out of a maximum of   50
 All quantities printed in internal units (Hartrees-Bohrs-Radians)
 Swapping is turned off.
 Second derivative matrix not updated -- first step.
 ITU=  0
     Eigenvalues ---   -0.00048   0.00291   0.00541   0.00707   0.01067
     Eigenvalues ---    0.01312   0.01396   0.01488   0.01586   0.02222
     Eigenvalues ---    0.02696   0.02793   0.03297   0.03452   0.03873
     Eigenvalues ---    0.04205   0.04347   0.04574   0.05028   0.06449
     Eigenvalues ---    0.07045   0.07857   0.08706   0.09021   0.09387
     Eigenvalues ---    0.09627   0.09791   0.11094   0.11279   0.11470
     Eigenvalues ---    0.11599   0.11810   0.12557   0.13781   0.16290
     Eigenvalues ---    0.17981   0.18856   0.19389   0.21488   0.21759
     Eigenvalues ---    0.25967   0.26120   0.26439   0.26679   0.26861
     Eigenvalues ---    0.27268   0.28115   0.28359   0.28483   0.29771
     Eigenvalues ---    0.32030   0.35751   0.36487   0.38691   0.40921
     Eigenvalues ---    0.42170   0.43856   0.47286   0.47662   0.48651
     Eigenvalues ---    0.50970   0.69616   0.74044   0.80217   0.81661
     Eigenvalues ---    1.00153
 Eigenvectors required to have negative eigenvalues:
                          D14       D13       D16       D15       D34
   1                   -0.46294  -0.40134  -0.37225  -0.31064   0.31049
                          D32       D33       D31       D53       D49
   1                    0.28973   0.23549   0.21473  -0.12574  -0.12519
 RFO step:  Lambda0=2.391221094D-08 Lambda=-1.77792870D-07.
 Linear search not attempted -- option 19 set.
 Iteration  1 RMS(Cart)=  0.00124862 RMS(Int)=  0.00000087
 Iteration  2 RMS(Cart)=  0.00000181 RMS(Int)=  0.00000002
 Iteration  3 RMS(Cart)=  0.00000000 RMS(Int)=  0.00000002
 Variable       Old X    -DE/DX   Delta X   Delta X   Delta X     New X
                                 (Linear)    (Quad)   (Total)
    R1        2.60612  -0.00001   0.00000  -0.00002  -0.00002   2.60610
    R2        2.58307  -0.00000   0.00000   0.00000   0.00000   2.58307
    R3        2.05431   0.00001   0.00000   0.00005   0.00005   2.05436
    R4        2.53037   0.00000   0.00000  -0.00002  -0.00002   2.53036
    R5        2.06592   0.00005   0.00000   0.00021   0.00021   2.06613
    R6        2.78585  -0.00000   0.00000  -0.00015  -0.00015   2.78570
    R7        2.61781   0.00000   0.00000   0.00002   0.00002   2.61783
    R8        2.83406   0.00001   0.00000   0.00001   0.00001   2.83407
    R9        2.58111  -0.00001   0.00000  -0.00003  -0.00003   2.58108
   R10        2.84933  -0.00002   0.00000   0.00005   0.00005   2.84938
   R11        2.06970  -0.00001   0.00000  -0.00002  -0.00002   2.06967
   R12        2.68673  -0.00001   0.00000  -0.00000  -0.00000   2.68673
   R13        2.05590   0.00000   0.00000   0.00001   0.00001   2.05591
   R14        2.05780  -0.00000   0.00000  -0.00001  -0.00001   2.05778
   R15        2.07895  -0.00000   0.00000  -0.00003  -0.00003   2.07892
   R16        2.08041   0.00001   0.00000   0.00003   0.00003   2.08044
   R17        2.90468  -0.00000   0.00000  -0.00010  -0.00010   2.90458
   R18        2.07628   0.00003   0.00000   0.00015   0.00015   2.07643
   R19        2.08732   0.00001   0.00000   0.00006   0.00006   2.08737
   R20        2.86425   0.00001   0.00000   0.00003   0.00003   2.86428
   R21        2.28120  -0.00000   0.00000   0.00001   0.00001   2.28121
   R22        2.23618  -0.00000   0.00000   0.00001   0.00001   2.23620
   R23        3.74818   0.00001   0.00000   0.00007   0.00007   3.74825
   R24        1.91307   0.00003   0.00000   0.00014   0.00014   1.91321
    A1        1.87992   0.00000   0.00000   0.00000   0.00000   1.87992
    A2        2.28672   0.00000   0.00000   0.00001   0.00001   2.28673
    A3        2.11622  -0.00000   0.00000  -0.00002  -0.00002   2.11620
    A4        2.07363  -0.00002   0.00000  -0.00011  -0.00011   2.07351
    A5        2.27403   0.00005   0.00000   0.00020   0.00020   2.27423
    A6        1.93521  -0.00002   0.00000  -0.00008  -0.00008   1.93513
    A7        2.28085  -0.00001   0.00000  -0.00005  -0.00005   2.28080
    A8        1.86953  -0.00001   0.00000  -0.00002  -0.00002   1.86951
    A9        2.13098   0.00002   0.00000   0.00007   0.00007   2.13105
   A10        2.27573   0.00001   0.00000   0.00040   0.00040   2.27613
   A11        2.02743  -0.00000   0.00000  -0.00009  -0.00009   2.02733
   A12        1.97725  -0.00001   0.00000  -0.00034  -0.00034   1.97691
   A13        1.86883  -0.00000   0.00000  -0.00001  -0.00001   1.86882
   A14        2.19706   0.00000   0.00000   0.00002   0.00002   2.19708
   A15        2.21725  -0.00000   0.00000  -0.00001  -0.00001   2.21724
   A16        1.87773   0.00000   0.00000   0.00001   0.00001   1.87774
   A17        2.19072  -0.00000   0.00000  -0.00000  -0.00000   2.19072
   A18        2.21472  -0.00000   0.00000  -0.00001  -0.00001   2.21472
   A19        1.90925   0.00001   0.00000   0.00001   0.00001   1.90925
   A20        1.92289  -0.00000   0.00000  -0.00007  -0.00007   1.92282
   A21        1.98184  -0.00002   0.00000   0.00005   0.00005   1.98189
   A22        1.85478  -0.00000   0.00000  -0.00005  -0.00005   1.85472
   A23        1.90858   0.00001   0.00000   0.00009   0.00009   1.90867
   A24        1.88209   0.00001   0.00000  -0.00003  -0.00003   1.88206
   A25        1.93641  -0.00000   0.00000  -0.00005  -0.00005   1.93636
   A26        1.90096  -0.00002   0.00000  -0.00003  -0.00003   1.90094
   A27        2.01814   0.00004   0.00000   0.00075   0.00075   2.01889
   A28        1.87471   0.00001   0.00000  -0.00013  -0.00013   1.87458
   A29        1.86827  -0.00002   0.00000  -0.00023  -0.00023   1.86803
   A30        1.85898  -0.00001   0.00000  -0.00039  -0.00039   1.85860
   A31        2.03867   0.00002   0.00000   0.00028   0.00028   2.03895
   A32        2.09611  -0.00002   0.00000  -0.00023  -0.00023   2.09588
   A33        2.14152  -0.00000   0.00000  -0.00012  -0.00012   2.14140
   A34        2.18093  -0.00004   0.00000  -0.00003  -0.00003   2.18090
   A35        2.04530   0.00007   0.00000   0.00010   0.00010   2.04540
   A36        2.05533  -0.00003   0.00000  -0.00004  -0.00004   2.05529
   A37        1.92846   0.00001   0.00000   0.00002   0.00002   1.92848
   A38        2.18314  -0.00000   0.00000  -0.00000  -0.00000   2.18314
   A39        2.16733  -0.00000   0.00000  -0.00003  -0.00003   2.16730
    D1       -0.01164   0.00000   0.00000   0.00009   0.00009  -0.01155
    D2        3.12043   0.00000   0.00000   0.00017   0.00017   3.12060
    D3       -3.12546   0.00000   0.00000   0.00034   0.00034  -3.12512
    D4        0.00661   0.00000   0.00000   0.00041   0.00041   0.00702
    D5        0.02224  -0.00000   0.00000   0.00001   0.00001   0.02225
    D6        3.06801  -0.00000   0.00000  -0.00014  -0.00014   3.06787
    D7        3.13932  -0.00000   0.00000  -0.00020  -0.00020   3.13912
    D8       -0.09809  -0.00000   0.00000  -0.00035  -0.00035  -0.09845
    D9        3.00803  -0.00000   0.00000   0.00014   0.00014   3.00818
   D10       -0.04708   0.00001   0.00000   0.00055   0.00055  -0.04653
   D11       -0.10362   0.00001   0.00000  -0.00030  -0.00030  -0.10392
   D12        3.12445   0.00001   0.00000   0.00011   0.00011   3.12456
   D13        2.78693  -0.00002   0.00000   0.00144   0.00144   2.78837
   D14       -0.41746  -0.00000   0.00000   0.00206   0.00206  -0.41540
   D15       -0.32659  -0.00001   0.00000   0.00102   0.00102  -0.32557
   D16        2.75221   0.00001   0.00000   0.00164   0.00164   2.75385
   D17       -3.06045   0.00000   0.00000   0.00014   0.00014  -3.06031
   D18        0.07686  -0.00000   0.00000   0.00015   0.00015   0.07701
   D19        0.01582   0.00000   0.00000   0.00018   0.00018   0.01600
   D20       -3.13006   0.00000   0.00000   0.00018   0.00018  -3.12987
   D21        3.13395   0.00000   0.00000   0.00042   0.00042   3.13437
   D22       -1.11641   0.00000   0.00000   0.00032   0.00032  -1.11609
   D23        0.99667  -0.00000   0.00000   0.00026   0.00026   0.99693
   D24        0.06606   0.00000   0.00000   0.00038   0.00038   0.06645
   D25        2.09889   0.00000   0.00000   0.00028   0.00028   2.09917
   D26       -2.07122  -0.00000   0.00000   0.00023   0.00023  -2.07099
   D27       -0.02374  -0.00000   0.00000  -0.00012  -0.00012  -0.02386
   D28       -3.07056  -0.00000   0.00000   0.00003   0.00003  -3.07053
   D29        3.05939  -0.00000   0.00000  -0.00010  -0.00010   3.05929
   D30        0.01257   0.00000   0.00000   0.00006   0.00006   0.01262
   D31        2.19431   0.00001   0.00000  -0.00194  -0.00194   2.19237
   D32       -1.06971   0.00001   0.00000  -0.00264  -0.00264  -1.07236
   D33       -1.03178   0.00001   0.00000  -0.00233  -0.00233  -1.03411
   D34        1.98738   0.00000   0.00000  -0.00303  -0.00303   1.98435
   D35       -0.00262  -0.00001   0.00000  -0.00017  -0.00017  -0.00279
   D36       -3.13985  -0.00000   0.00000  -0.00018  -0.00018  -3.14003
   D37       -3.13455  -0.00000   0.00000  -0.00024  -0.00024  -3.13479
   D38        0.01141  -0.00000   0.00000  -0.00025  -0.00025   0.01116
   D39        3.13463   0.00001   0.00000  -0.00112  -0.00112   3.13351
   D40       -1.08855   0.00000   0.00000  -0.00132  -0.00132  -1.08987
   D41        1.00315   0.00001   0.00000  -0.00133  -0.00133   1.00181
   D42        0.99698   0.00000   0.00000  -0.00123  -0.00123   0.99575
   D43        3.05698  -0.00000   0.00000  -0.00143  -0.00143   3.05556
   D44       -1.13451   0.00000   0.00000  -0.00144  -0.00144  -1.13595
   D45       -1.01274  -0.00000   0.00000  -0.00120  -0.00120  -1.01394
   D46        1.04727  -0.00001   0.00000  -0.00140  -0.00140   1.04587
   D47        3.13896  -0.00000   0.00000  -0.00141  -0.00141   3.13755
   D48       -1.01787   0.00001   0.00000   0.00187   0.00187  -1.01599
   D49        2.24961   0.00002   0.00000   0.00261   0.00261   2.25222
   D50        3.09792   0.00000   0.00000   0.00160   0.00160   3.09951
   D51        0.08221   0.00001   0.00000   0.00233   0.00233   0.08454
   D52        1.09659   0.00001   0.00000   0.00203   0.00203   1.09863
   D53       -1.91911   0.00001   0.00000   0.00277   0.00277  -1.91634
         Item               Value     Threshold  Converged?
 Maximum Force            0.000067     0.000450     YES
 RMS     Force            0.000014     0.000300     YES
 Maximum Displacement     0.007118     0.001800     NO 
 RMS     Displacement     0.001248     0.001200     NO 
 Predicted change in Energy=-7.694022D-08
 GradGradGradGradGradGradGradGradGradGradGradGradGradGradGradGradGradGrad

                          Input orientation:                          
 ---------------------------------------------------------------------
 Center     Atomic      Atomic             Coordinates (Angstroms)
 Number     Number       Type             X           Y           Z
 ---------------------------------------------------------------------
      1          6           0       -5.127795    3.694272    0.020347
      2          6           0       -1.670382    4.008844    0.092492
      3          6           0       -4.371067    3.452663    2.120402
      4          6           0       -1.621570    3.295609    1.224680
      5          6           0       -5.051242    2.339849    0.268477
      6          6           0       -4.574321    2.185464    1.598926
      7          6           0       -3.794571    3.888037    3.434661
      8          1           0       -3.789408    4.986983    3.485169
      9          1           0       -4.434099    3.544279    4.262224
     10          6           0       -2.373451    3.359712    3.687202
     11          1           0       -1.990416    3.710189    4.655607
     12          1           0       -2.402868    2.256103    3.723332
     13          6           0       -1.340234    3.728544    2.641352
     14          8           0       -0.276338    4.224875    2.922466
     15          1           0       -1.730297    2.211109    1.117193
     16          1           0       -1.768405    3.480025   -0.859429
     17          6           0       -1.579675    5.464437   -0.122157
     18          8           0       -1.295767    5.982156   -1.147665
     19          7           0       -4.730326    4.347704    1.153250
     20          1           0       -4.628332    5.351168    1.240818
     21          1           0       -5.453914    4.240882   -0.860954
     22         35           0       -2.069555    6.637455    1.400430
     23          1           0       -5.317957    1.547863   -0.428114
     24          1           0       -4.392912    1.248778    2.123790
 ---------------------------------------------------------------------
                    Distance matrix (angstroms):
                    1          2          3          4          5
     1  C    0.000000
     2  C    3.472444   0.000000
     3  C    2.245271   3.422785   0.000000
     4  C    3.728668   1.339006   2.895983   0.000000
     5  C    1.379090   3.774484   2.265087   3.686523   0.000000
     6  C    2.252720   3.745253   1.385296   3.176668   1.421754
     7  C    3.670501   3.961928   1.499726   3.155459   3.741769
     8  H    3.932858   4.117923   2.134258   3.559506   4.352775
     9  H    4.300841   5.024004   2.144708   4.147147   4.216816
    10  C    4.598279   3.719895   2.540467   2.575548   4.460759
    11  H    5.597235   4.584063   3.487275   3.475512   5.522083
    12  H    4.817224   4.097760   2.806233   2.816781   4.353954
    13  C    4.606133   2.585393   3.087628   1.507827   4.618505
    14  O    5.678069   3.162085   4.243398   2.357044   5.778987
    15  H    3.865984   2.070134   3.085701   1.095224   3.430097
    16  H    3.479282   1.093349   3.956512   2.097399   3.653654
    17  C    3.967738   1.474128   4.107088   2.553339   4.686941
    18  O    4.613362   2.360569   5.151317   3.598848   5.419912
    19  N    1.366903   3.256269   1.365850   3.282738   2.217497
    20  H    2.117621   3.445280   2.108121   3.642280   3.192545
    21  H    1.087119   3.908710   3.268383   4.464333   2.247595
    22  Br   4.463158   2.963045   3.994773   3.376316   5.351746
    23  H    2.200989   4.430831   3.319608   4.410173   1.087942
    24  H    3.308318   4.376792   2.203996   3.560654   2.250783
                    6          7          8          9         10
     6  C    0.000000
     7  C    2.622345   0.000000
     8  H    3.467350   1.100118   0.000000
     9  H    2.993192   1.100921   1.760919   0.000000
    10  C    3.253242   1.537038   2.166510   2.147320   0.000000
    11  H    4.283066   2.185707   2.497299   2.480698   1.098799
    12  H    3.038634   2.164111   3.071957   2.464893   1.104591
    13  C    3.731898   2.584288   2.879957   3.497596   1.515710
    14  O    4.937977   3.571242   3.638558   4.420988   2.393995
    15  H    2.884648   3.527602   4.189598   4.356502   2.887539
    16  H    3.948742   4.765610   5.023038   5.774200   4.588291
    17  C    4.762530   4.476802   4.257192   5.572929   4.423931
    18  O    5.719052   5.623795   5.354603   6.712621   5.604870
    19  N    2.213199   2.508340   2.594581   3.224742   3.598875
    20  H    3.186353   2.765657   2.423538   3.525829   3.877523
    21  H    3.324069   4.618466   4.713389   5.269937   5.563402
    22  Br   5.112091   3.830544   3.166716   4.832046   4.008152
    23  H    2.251316   4.766357   5.429346   5.173602   5.374825
    24  H    1.088931   3.007007   4.023898   3.137503   3.313386
                   11         12         13         14         15
    11  H    0.000000
    12  H    1.775844   0.000000
    13  C    2.116671   2.113753   0.000000
    14  O    2.491334   3.006589   1.207164   0.000000
    15  H    3.851659   2.691902   2.185822   3.070547   0.000000
    16  H    5.524300   4.785627   3.535614   4.133255   2.349178
    17  C    5.106185   5.075316   3.272253   3.536231   3.484655
    18  O    6.270753   6.231834   4.408787   4.548982   4.420316
    19  N    4.492219   4.049342   3.753735   4.794082   3.683274
    20  H    4.616513   4.549174   3.925047   4.799617   4.274794
    21  H    6.535281   5.853537   5.426878   6.412629   4.679569
    22  Br   4.378507   4.970232   3.245545   3.369386   4.448354
    23  H    6.449218   5.121899   5.477159   6.618965   3.962218
    24  H    4.270906   2.744725   3.966857   5.142103   3.004803
                   16         17         18         19         20
    16  H    0.000000
    17  C    2.125343   0.000000
    18  O    2.562640   1.183345   0.000000
    19  N    3.684660   3.577758   4.445429   0.000000
    20  H    4.011408   3.341382   4.148372   1.012428   0.000000
    21  H    3.763227   4.129484   4.517126   2.142897   2.516301
    22  Br   3.894486   1.983488   2.742436   3.519056   2.868335
    23  H    4.064308   5.422907   6.029820   3.268813   4.210232
    24  H    4.556984   5.543497   6.534493   3.264834   4.202936
                   21         22         23         24
    21  H    0.000000
    22  Br   4.723484   0.000000
    23  H    2.730968   6.308695   0.000000
    24  H    4.357420   5.912620   2.730819   0.000000
 Stoichiometry    C10H10BrNO2
 Framework group  C1[X(C10H10BrNO2)]
 Deg. of freedom    66
 Full point group                 C1      NOp   1
 Largest Abelian subgroup         C1      NOp   1
 Largest concise Abelian subgroup C1      NOp   1
                         Standard orientation:                         
 ---------------------------------------------------------------------
 Center     Atomic      Atomic             Coordinates (Angstroms)
 Number     Number       Type             X           Y           Z
 ---------------------------------------------------------------------
      1          6           0       -2.056438   -2.095266   -0.335915
      2          6           0        0.388192   -0.583718    1.612641
      3          6           0       -2.057036    0.124190   -0.675411
      4          6           0       -0.281699    0.574802    1.567767
      5          6           0       -3.063526   -1.567799    0.444754
      6          6           0       -3.066495   -0.162525    0.228929
      7          6           0       -1.549518    1.438373   -1.189732
      8          1           0       -0.725696    1.260365   -1.896761
      9          1           0       -2.338585    1.953501   -1.758979
     10          6           0       -1.072343    2.389198   -0.080353
     11          1           0       -0.702815    3.333217   -0.504187
     12          1           0       -1.927784    2.633415    0.574400
     13          6           0        0.019790    1.850032    0.821822
     14          8           0        1.035513    2.460271    1.052388
     15          1           0       -1.152832    0.654651    2.226757
     16          1           0        0.064785   -1.352177    2.319954
     17          6           0        1.573947   -1.029356    0.858689
     18          8           0        2.294570   -1.908949    1.186293
     19          7           0       -1.473256   -1.062768   -1.015821
     20          1           0       -0.664603   -1.146453   -1.619217
     21          1           0       -1.726299   -3.121367   -0.477164
     22         35           0        1.922822   -0.149972   -0.884640
     23          1           0       -3.730370   -2.132706    1.092688
     24          1           0       -3.731704    0.567817    0.687043
 ---------------------------------------------------------------------
 Rotational constants (GHZ):           0.7269322           0.4564963           0.3836651
 Standard basis: def2SVP (5D, 7F)
 There are   280 symmetry adapted cartesian basis functions of A   symmetry.
 There are   264 symmetry adapted basis functions of A   symmetry.
   264 basis functions,   475 primitive gaussians,   280 cartesian basis functions
    64 alpha electrons       64 beta electrons
       nuclear repulsion energy      1239.9477804541 Hartrees.
 NAtoms=   24 NActive=   24 NUniq=   24 SFac= 1.00D+00 NAtFMM=   60 NAOKFM=F Big=F
 Integral buffers will be    131072 words long.
 Raffenetti 2 integral format.
 Two-electron integral symmetry is turned on.
 Nuclear repulsion after empirical dispersion term =     1239.9273485147 Hartrees.
 ------------------------------------------------------------------------------
 Polarizable Continuum Model (PCM)
 =================================
 Model                : PCM.
 Atomic radii         : UFF (Universal Force Field).
 Polarization charges : Total charges.
 Charge compensation  : None.
 Solution method      : On-the-fly selection.
 Cavity type          : Scaled VdW (van der Waals Surface) (Alpha=1.100).
 Cavity algorithm     : GePol (No added spheres)
                        Default sphere list used, NSphG=   24.
                        Lebedev-Laikov grids with approx.  5.0 points / Ang**2.
                        Smoothing algorithm: York/Karplus (Gamma=1.0000).
                        Polarization charges: spherical gaussians, with
                                              point-specific exponents (IZeta= 3).
                        Self-potential: point-specific (ISelfS= 7).
                        Self-field    : sphere-specific E.n sum rule (ISelfD= 2).
 1st derivatives      : Analytical E(r).r(x)/FMM algorithm (CHGder, D1EAlg=3).
                        Cavity 1st derivative terms included.
 Solvent              : Toluene, Eps=   2.374100 Eps(inf)=   2.238315
 ------------------------------------------------------------------------------
 One-electron integrals computed using PRISM.
   1 Symmetry operations used in ECPInt.
 ECPInt:  NShTT=    7260 NPrTT=   28205 LenC2=    7045 LenP2D=   20151.
 LDataN:  DoStor=T MaxTD1= 4 Len=   56
 NBasis=   264 RedAO= T EigKep=  6.61D-04  NBF=   264
 NBsUse=   264 1.00D-06 EigRej= -1.00D+00 NBFU=   264
 Initial guess from the checkpoint file:  "imda-2_1_sqm.chk"
 B after Tr=     0.000000   -0.000000   -0.000000
         Rot=    1.000000   -0.000129    0.000194    0.000143 Ang=  -0.03 deg.
 Requested convergence on RMS density matrix=1.00D-08 within 128 cycles.
 Requested convergence on MAX density matrix=1.00D-06.
 Requested convergence on             energy=1.00D-06.
 No special actions if energy rises.
 Inv3:  Mode=1 IEnd=    11430912.
 Iteration    1 A*A^-1 deviation from unit magnitude is 3.11D-15 for   1285.
 Iteration    1 A*A^-1 deviation from orthogonality  is 2.53D-15 for   1858   1568.
 Iteration    1 A^-1*A deviation from unit magnitude is 3.11D-15 for    245.
 Iteration    1 A^-1*A deviation from orthogonality  is 1.35D-15 for   1163    727.
 Error on total polarization charges =  0.00753
 SCF Done:  E(RwB97XD) =  -3165.54154328     A.U. after   10 cycles
            NFock= 10  Conv=0.48D-08     -V/T= 2.0027
   1 Symmetry operations used in ECPInt.
 ECPInt:  NShTT=    7260 NPrTT=   28205 LenC2=    7045 LenP2D=   20151.
 LDataN:  DoStor=T MaxTD1= 5 Len=  102
 D1PCM: PCM CHGder 1st derivatives, ID1Alg=3 FixD1E=F DoIter=F DoCFld=F I1PDM=0.
 Calling FoFJK, ICntrl=      2127 FMM=F ISym2X=0 I1Cent= 0 IOpClX= 0 NMat=1 NMatS=1 NMatT=0.
 ***** Axes restored to original set *****
 -------------------------------------------------------------------
 Center     Atomic                   Forces (Hartrees/Bohr)
 Number     Number              X              Y              Z
 -------------------------------------------------------------------
      1        6          -0.000001911    0.000000818   -0.000007880
      2        6          -0.000019243   -0.000018341   -0.000038489
      3        6          -0.000006460   -0.000007443    0.000004134
      4        6          -0.000002821    0.000008220    0.000022092
      5        6          -0.000000903   -0.000004410    0.000007601
      6        6           0.000007603    0.000000412   -0.000006263
      7        6          -0.000004104   -0.000002025   -0.000006638
      8        1           0.000001631    0.000007144   -0.000001240
      9        1           0.000002546    0.000000423   -0.000001568
     10        6           0.000012305    0.000006914    0.000022898
     11        1          -0.000003608   -0.000008012   -0.000015974
     12        1           0.000002604    0.000003915    0.000003425
     13        6          -0.000002727    0.000020034   -0.000019319
     14        8          -0.000004780    0.000002694   -0.000004413
     15        1           0.000001211   -0.000005957    0.000000506
     16        1           0.000011014    0.000017243    0.000025526
     17        6           0.000017032   -0.000004423    0.000006844
     18        8          -0.000011295    0.000004260   -0.000001294
     19        7           0.000005426    0.000033377    0.000003270
     20        1          -0.000007616   -0.000034944   -0.000003884
     21        1           0.000005588   -0.000008529    0.000003804
     22       35          -0.000006747   -0.000004734    0.000001126
     23        1          -0.000002032   -0.000003326    0.000004693
     24        1           0.000007289   -0.000003309    0.000001044
 -------------------------------------------------------------------
 Cartesian Forces:  Max     0.000038489 RMS     0.000011491

 GradGradGradGradGradGradGradGradGradGradGradGradGradGradGradGradGradGrad
 Berny optimization.
 FormGI is forming the generalized inverse of G from B-inverse, IUseBI=4.
 Internal  Forces:  Max     0.000043808 RMS     0.000009035
 Search for a saddle point.
 Step number   2 out of a maximum of   50
 All quantities printed in internal units (Hartrees-Bohrs-Radians)
 Swapping is turned off.
 Update second derivatives using D2CorX and points    1    2
 ITU=  0  0
     Eigenvalues ---   -0.00066   0.00241   0.00543   0.00711   0.01078
     Eigenvalues ---    0.01312   0.01401   0.01491   0.01586   0.02224
     Eigenvalues ---    0.02697   0.02794   0.03297   0.03452   0.03882
     Eigenvalues ---    0.04207   0.04351   0.04578   0.05028   0.06464
     Eigenvalues ---    0.07045   0.07857   0.08706   0.09020   0.09387
     Eigenvalues ---    0.09627   0.09791   0.11094   0.11281   0.11472
     Eigenvalues ---    0.11599   0.11811   0.12557   0.13783   0.16293
     Eigenvalues ---    0.17983   0.18855   0.19389   0.21489   0.21760
     Eigenvalues ---    0.25966   0.26123   0.26440   0.26679   0.26861
     Eigenvalues ---    0.27270   0.28116   0.28373   0.28484   0.29774
     Eigenvalues ---    0.32030   0.35751   0.36515   0.38693   0.40925
     Eigenvalues ---    0.42173   0.43855   0.47298   0.47664   0.48651
     Eigenvalues ---    0.50970   0.69617   0.74044   0.80217   0.81661
     Eigenvalues ---    1.00157
 Eigenvectors required to have negative eigenvalues:
                          D14       D13       D16       D34       D15
   1                   -0.42521  -0.38318  -0.35522   0.32191  -0.31319
                          D32       D33       D31       D53       D49
   1                    0.28483   0.23063   0.19355  -0.17092  -0.16936
 RFO step:  Lambda0=2.878421460D-11 Lambda=-4.89301949D-08.
 Linear search not attempted -- option 19 set.
 Iteration  1 RMS(Cart)=  0.00029142 RMS(Int)=  0.00000004
 Iteration  2 RMS(Cart)=  0.00000010 RMS(Int)=  0.00000000
 Variable       Old X    -DE/DX   Delta X   Delta X   Delta X     New X
                                 (Linear)    (Quad)   (Total)
    R1        2.60610   0.00000   0.00000   0.00001   0.00001   2.60611
    R2        2.58307   0.00000   0.00000   0.00000   0.00000   2.58308
    R3        2.05436  -0.00001   0.00000  -0.00003  -0.00003   2.05433
    R4        2.53036  -0.00001   0.00000   0.00001   0.00001   2.53037
    R5        2.06613  -0.00003   0.00000  -0.00013  -0.00013   2.06600
    R6        2.78570  -0.00001   0.00000   0.00001   0.00001   2.78570
    R7        2.61783  -0.00000   0.00000  -0.00001  -0.00001   2.61782
    R8        2.83407  -0.00000   0.00000  -0.00001  -0.00001   2.83406
    R9        2.58108   0.00000   0.00000   0.00001   0.00001   2.58110
   R10        2.84938  -0.00002   0.00000  -0.00003  -0.00003   2.84935
   R11        2.06967   0.00001   0.00000   0.00003   0.00003   2.06970
   R12        2.68673  -0.00000   0.00000  -0.00001  -0.00001   2.68672
   R13        2.05591  -0.00000   0.00000  -0.00000  -0.00000   2.05591
   R14        2.05778   0.00000   0.00000   0.00001   0.00001   2.05779
   R15        2.07892   0.00001   0.00000   0.00003   0.00003   2.07895
   R16        2.08044  -0.00000   0.00000  -0.00001  -0.00001   2.08042
   R17        2.90458   0.00000   0.00000   0.00002   0.00002   2.90460
   R18        2.07643  -0.00002   0.00000  -0.00009  -0.00009   2.07634
   R19        2.08737  -0.00000   0.00000  -0.00000  -0.00000   2.08737
   R20        2.86428  -0.00001   0.00000   0.00001   0.00001   2.86428
   R21        2.28121  -0.00001   0.00000  -0.00001  -0.00001   2.28120
   R22        2.23620  -0.00000   0.00000  -0.00001  -0.00001   2.23619
   R23        3.74825  -0.00000   0.00000   0.00007   0.00007   3.74832
   R24        1.91321  -0.00003   0.00000  -0.00012  -0.00012   1.91310
    A1        1.87992  -0.00000   0.00000  -0.00001  -0.00001   1.87992
    A2        2.28673   0.00000   0.00000  -0.00000  -0.00000   2.28673
    A3        2.11620   0.00000   0.00000   0.00001   0.00001   2.11621
    A4        2.07351   0.00002   0.00000   0.00013   0.00013   2.07365
    A5        2.27423  -0.00004   0.00000  -0.00024  -0.00024   2.27399
    A6        1.93513   0.00002   0.00000   0.00010   0.00010   1.93524
    A7        2.28080   0.00000   0.00000   0.00004   0.00004   2.28084
    A8        1.86951   0.00000   0.00000   0.00000   0.00000   1.86951
    A9        2.13105  -0.00000   0.00000  -0.00004  -0.00004   2.13101
   A10        2.27613  -0.00003   0.00000  -0.00016  -0.00016   2.27597
   A11        2.02733   0.00002   0.00000   0.00007   0.00007   2.02740
   A12        1.97691   0.00002   0.00000   0.00008   0.00008   1.97699
   A13        1.86882   0.00000   0.00000   0.00001   0.00001   1.86883
   A14        2.19708  -0.00000   0.00000  -0.00001  -0.00001   2.19707
   A15        2.21724  -0.00000   0.00000  -0.00000  -0.00000   2.21724
   A16        1.87774  -0.00000   0.00000  -0.00000  -0.00000   1.87774
   A17        2.19072   0.00000   0.00000  -0.00000  -0.00000   2.19072
   A18        2.21472  -0.00000   0.00000   0.00000   0.00000   2.21472
   A19        1.90925   0.00000   0.00000  -0.00000  -0.00000   1.90925
   A20        1.92282   0.00000   0.00000  -0.00002  -0.00002   1.92280
   A21        1.98189  -0.00000   0.00000   0.00006   0.00006   1.98195
   A22        1.85472   0.00000   0.00000   0.00001   0.00001   1.85473
   A23        1.90867  -0.00000   0.00000  -0.00003  -0.00003   1.90864
   A24        1.88206   0.00000   0.00000  -0.00002  -0.00002   1.88203
   A25        1.93636   0.00001   0.00000   0.00006   0.00006   1.93642
   A26        1.90094   0.00001   0.00000   0.00003   0.00003   1.90096
   A27        2.01889  -0.00002   0.00000  -0.00001  -0.00001   2.01888
   A28        1.87458  -0.00001   0.00000  -0.00009  -0.00009   1.87449
   A29        1.86803   0.00001   0.00000   0.00003   0.00003   1.86807
   A30        1.85860   0.00001   0.00000  -0.00003  -0.00003   1.85857
   A31        2.03895  -0.00000   0.00000   0.00003   0.00003   2.03897
   A32        2.09588  -0.00000   0.00000  -0.00003  -0.00003   2.09585
   A33        2.14140   0.00000   0.00000  -0.00002  -0.00002   2.14138
   A34        2.18090   0.00002   0.00000   0.00010   0.00010   2.18100
   A35        2.04540  -0.00002   0.00000  -0.00009  -0.00009   2.04531
   A36        2.05529   0.00001   0.00000  -0.00002  -0.00002   2.05527
   A37        1.92848  -0.00000   0.00000  -0.00000  -0.00000   1.92847
   A38        2.18314  -0.00000   0.00000   0.00001   0.00001   2.18315
   A39        2.16730   0.00000   0.00000   0.00001   0.00001   2.16731
[...]
      1          6           0       -2.056438   -2.095266   -0.335915
      2          6           0        0.388192   -0.583718    1.612641
      3          6           0       -2.057036    0.124190   -0.675411
      4          6           0       -0.281699    0.574802    1.567767
      5          6           0       -3.063526   -1.567799    0.444754
      6          6           0       -3.066495   -0.162525    0.228929
      7          6           0       -1.549518    1.438373   -1.189732
      8          1           0       -0.725696    1.260365   -1.896761
      9          1           0       -2.338585    1.953501   -1.758979
     10          6           0       -1.072343    2.389198   -0.080353
     11          1           0       -0.702815    3.333217   -0.504187
     12          1           0       -1.927784    2.633415    0.574400
     13          6           0        0.019790    1.850032    0.821822
     14          8           0        1.035513    2.460271    1.052388
     15          1           0       -1.152832    0.654651    2.226757
     16          1           0        0.064785   -1.352177    2.319954
     17          6           0        1.573947   -1.029356    0.858689
     18          8           0        2.294570   -1.908949    1.186293
     19          7           0       -1.473256   -1.062768   -1.015821
     20          1           0       -0.664603   -1.146453   -1.619217
     21          1           0       -1.726299   -3.121367   -0.477164
     22         35           0        1.922822   -0.149972   -0.884640
     23          1           0       -3.730370   -2.132706    1.092688
     24          1           0       -3.731704    0.567817    0.687043
 ---------------------------------------------------------------------
 Rotational constants (GHZ):           0.7269322           0.4564963           0.3836651

 **********************************************************************

            Population analysis using the SCF Density.

 **********************************************************************

 Orbital symmetries:
       Occupied  (A) (A) (A) (A) (A) (A) (A) (A) (A) (A) (A) (A)
                 (A) (A) (A) (A) (A) (A) (A) (A) (A) (A) (A) (A)
                 (A) (A) (A) (A) (A) (A) (A) (A) (A) (A) (A) (A)
                 (A) (A) (A) (A) (A) (A) (A) (A) (A) (A) (A) (A)
                 (A) (A) (A) (A) (A) (A) (A) (A) (A) (A) (A) (A)
                 (A) (A) (A) (A)
       Virtual   (A) (A) (A) (A) (A) (A) (A) (A) (A) (A) (A) (A)
                 (A) (A) (A) (A) (A) (A) (A) (A) (A) (A) (A) (A)
                 (A) (A) (A) (A) (A) (A) (A) (A) (A) (A) (A) (A)
                 (A) (A) (A) (A) (A) (A) (A) (A) (A) (A) (A) (A)
                 (A) (A) (A) (A) (A) (A) (A) (A) (A) (A) (A) (A)
                 (A) (A) (A) (A) (A) (A) (A) (A) (A) (A) (A) (A)
                 (A) (A) (A) (A) (A) (A) (A) (A) (A) (A) (A) (A)
                 (A) (A) (A) (A) (A) (A) (A) (A) (A) (A) (A) (A)
                 (A) (A) (A) (A) (A) (A) (A) (A) (A) (A) (A) (A)
                 (A) (A) (A) (A) (A) (A) (A) (A) (A) (A) (A) (A)
                 (A) (A) (A) (A) (A) (A) (A) (A) (A) (A) (A) (A)
                 (A) (A) (A) (A) (A) (A) (A) (A) (A) (A) (A) (A)
                 (A) (A) (A) (A) (A) (A) (A) (A) (A) (A) (A) (A)
                 (A) (A) (A) (A) (A) (A) (A) (A) (A) (A) (A) (A)
                 (A) (A) (A) (A) (A) (A) (A) (A) (A) (A) (A) (A)
                 (A) (A) (A) (A) (A) (A) (A) (A) (A) (A) (A) (A)
                 (A) (A) (A) (A) (A) (A) (A) (A)
 The electronic state is 1-A.
 Alpha  occ. eigenvalues -- -483.06643 -62.64874 -56.45600 -56.45317 -56.45282
 Alpha  occ. eigenvalues --  -19.29968 -19.26608 -14.49553 -10.45748 -10.41013
 Alpha  occ. eigenvalues --  -10.34944 -10.34314 -10.33035 -10.32325 -10.32321
 Alpha  occ. eigenvalues --  -10.31915 -10.28807 -10.28776  -8.81822  -6.64233
 Alpha  occ. eigenvalues --   -6.63171  -6.63058  -2.74626  -2.74347  -2.74260
 Alpha  occ. eigenvalues --   -2.73415  -2.73413  -1.19631  -1.15515  -1.08131
 Alpha  occ. eigenvalues --   -0.93083  -0.90652  -0.88337  -0.87011  -0.82599
 Alpha  occ. eigenvalues --   -0.78382  -0.74239  -0.68313  -0.67961  -0.66536
 Alpha  occ. eigenvalues --   -0.62006  -0.60956  -0.59637  -0.58490  -0.56164
 Alpha  occ. eigenvalues --   -0.55139  -0.54307  -0.53583  -0.52194  -0.51884
 Alpha  occ. eigenvalues --   -0.50847  -0.49974  -0.48101  -0.47569  -0.46974
 Alpha  occ. eigenvalues --   -0.45601  -0.44047  -0.39229  -0.38860  -0.38150
 Alpha  occ. eigenvalues --   -0.37202  -0.35018  -0.33367  -0.29254
 Alpha virt. eigenvalues --   -0.02314   0.04108   0.06148   0.09761   0.11654
 Alpha virt. eigenvalues --    0.13407   0.13805   0.14798   0.15695   0.17574
 Alpha virt. eigenvalues --    0.19705   0.20164   0.20581   0.21565   0.23373
 Alpha virt. eigenvalues --    0.23534   0.26896   0.27939   0.28645   0.30614
 Alpha virt. eigenvalues --    0.31331   0.32493   0.33902   0.35569   0.37618
 Alpha virt. eigenvalues --    0.39948   0.40475   0.42291   0.43021   0.46635
 Alpha virt. eigenvalues --    0.48285   0.49608   0.50164   0.50727   0.51955
 Alpha virt. eigenvalues --    0.52791   0.53993   0.54275   0.55795   0.56402
 Alpha virt. eigenvalues --    0.57053   0.57928   0.59886   0.60321   0.60834
 Alpha virt. eigenvalues --    0.61924   0.64768   0.65199   0.65980   0.67243
 Alpha virt. eigenvalues --    0.67701   0.69966   0.70202   0.70938   0.71928
 Alpha virt. eigenvalues --    0.72879   0.73947   0.74692   0.74917   0.75444
 Alpha virt. eigenvalues --    0.75672   0.76663   0.77490   0.78353   0.79096
 Alpha virt. eigenvalues --    0.79581   0.81388   0.81931   0.82526   0.83599
 Alpha virt. eigenvalues --    0.84544   0.87189   0.88487   0.89667   0.89849
 Alpha virt. eigenvalues --    0.91082   0.93578   0.94213   0.96480   0.98812
 Alpha virt. eigenvalues --    1.01859   1.02300   1.03468   1.06467   1.06843
 Alpha virt. eigenvalues --    1.11169   1.11809   1.12362   1.16034   1.19606
 Alpha virt. eigenvalues --    1.21066   1.22635   1.24241   1.26188   1.27987
 Alpha virt. eigenvalues --    1.29042   1.32301   1.34303   1.37356   1.37589
 Alpha virt. eigenvalues --    1.40493   1.42084   1.42731   1.47039   1.49235
 Alpha virt. eigenvalues --    1.51641   1.52050   1.57448   1.60741   1.65433
 Alpha virt. eigenvalues --    1.70281   1.72121   1.72491   1.74185   1.75554
 Alpha virt. eigenvalues --    1.76354   1.79046   1.79208   1.80153   1.82252
 Alpha virt. eigenvalues --    1.83244   1.84098   1.85024   1.86073   1.88040
 Alpha virt. eigenvalues --    1.88398   1.91916   1.92615   1.93146   1.93771
 Alpha virt. eigenvalues --    1.95586   1.97393   1.98483   1.99749   2.01052
 Alpha virt. eigenvalues --    2.02708   2.04253   2.05133   2.07613   2.09169
 Alpha virt. eigenvalues --    2.10539   2.12080   2.14509   2.16485   2.20253
 Alpha virt. eigenvalues --    2.22586   2.23909   2.24675   2.26371   2.31452
 Alpha virt. eigenvalues --    2.34740   2.35633   2.37343   2.40338   2.42289
 Alpha virt. eigenvalues --    2.43597   2.45221   2.46613   2.49877   2.52265
 Alpha virt. eigenvalues --    2.53514   2.55097   2.58431   2.64930   2.69988
 Alpha virt. eigenvalues --    2.73095   2.74406   2.75207   2.75717   2.77155
 Alpha virt. eigenvalues --    2.79081   2.79362   2.81728   2.82812   2.85657
 Alpha virt. eigenvalues --    2.87267   2.88982   2.92240   2.93958   2.96901
 Alpha virt. eigenvalues --    3.02488   3.04694   3.07019   3.10811   3.11892
 Alpha virt. eigenvalues --    3.20154   3.24662   3.27056   3.37660   3.40766
 Alpha virt. eigenvalues --    3.50273   3.53630   3.54752   3.57932   3.59728
 Alpha virt. eigenvalues --    3.67216   3.68962   3.69699   3.71841   3.89331
          Condensed to atoms (all electrons):
               1          2          3          4          5          6
     1  C    4.926598   0.004447  -0.144461  -0.004379   0.447109  -0.023758
     2  C    0.004447   5.102839  -0.010045   0.499887   0.000488  -0.005117
     3  C   -0.144461  -0.010045   5.184651   0.020765  -0.012132   0.418761
     4  C   -0.004379   0.499887   0.020765   5.157114  -0.000711  -0.002689
     5  C    0.447109   0.000488  -0.012132  -0.000711   4.972149   0.368414
     6  C   -0.023758  -0.005117   0.418761  -0.002689   0.368414   5.124852
     7  C    0.008523  -0.001126   0.327348   0.002907   0.010391  -0.098929
     8  H    0.000183   0.001360  -0.010320  -0.004379  -0.000639   0.011494
     9  H   -0.000169  -0.000054   0.004465   0.000093   0.000076  -0.008483
    10  C    0.000059   0.003222  -0.051290  -0.186454   0.000500   0.002463
    11  H   -0.000002  -0.000423   0.008115   0.014943   0.000005   0.000051
    12  H    0.000049   0.001423  -0.015121  -0.000340  -0.000284   0.007366
    13  C    0.000400  -0.004534  -0.016820   0.220236   0.000165  -0.005885
    14  O    0.000000  -0.002391  -0.000170  -0.091859  -0.000001   0.000012
    15  H    0.000112   0.017303  -0.000342   0.359033  -0.000703   0.008700
    16  H    0.002042   0.390534  -0.000338  -0.011460   0.001538  -0.000029
    17  C    0.002240   0.256562  -0.001469  -0.012453  -0.000117   0.000006
    18  O   -0.000067  -0.080309   0.000010   0.005344  -0.000003   0.000000
    19  N    0.394764   0.001001   0.444499  -0.004448  -0.061011  -0.098482
    20  H   -0.027207   0.001125  -0.020504  -0.001108   0.007058   0.010847
    21  H    0.431609  -0.000613   0.003987   0.000090  -0.049787   0.009210
    22  Br  -0.000067  -0.135740  -0.001793   0.014817  -0.000085  -0.000109
    23  H   -0.057775   0.000029   0.012729   0.000014   0.452542  -0.058602
    24  H    0.012171   0.000144  -0.056883  -0.000445  -0.057610   0.453441
               7          8          9         10         11         12
     1  C    0.008523   0.000183  -0.000169   0.000059  -0.000002   0.000049
     2  C   -0.001126   0.001360  -0.000054   0.003222  -0.000423   0.001423
     3  C    0.327348  -0.010320   0.004465  -0.051290   0.008115  -0.015121
     4  C    0.002907  -0.004379   0.000093  -0.186454   0.014943  -0.000340
     5  C    0.010391  -0.000639   0.000076   0.000500   0.000005  -0.000284
     6  C   -0.098929   0.011494  -0.008483   0.002463   0.000051   0.007366
     7  C    4.680424   0.364334   0.353693   0.358709  -0.008613  -0.011882
     8  H    0.364334   0.659507  -0.024125  -0.023779  -0.007036   0.007477
     9  H    0.353693  -0.024125   0.632683  -0.014385  -0.004100  -0.009529
    10  C    0.358709  -0.023779  -0.014385   5.012135   0.333611   0.368504
    11  H   -0.008613  -0.007036  -0.004100   0.333611   0.616792  -0.014029
    12  H   -0.011882   0.007477  -0.009529   0.368504  -0.014029   0.608299
    13  C   -0.028040  -0.004583   0.006653   0.323288  -0.005083  -0.019757
    14  O    0.002898   0.000683  -0.000160  -0.088497   0.009847   0.001796
    15  H   -0.003358   0.000047   0.000040   0.006713  -0.000259   0.000009
    16  H    0.000030   0.000010  -0.000003  -0.000229   0.000007   0.000021
    17  C   -0.000061  -0.000481   0.000008   0.000730  -0.000003  -0.000048
    18  O    0.000000   0.000003   0.000000  -0.000003   0.000000   0.000000
    19  N   -0.049237  -0.008690   0.003231  -0.003369  -0.000078   0.000008
    20  H   -0.012956   0.005103   0.000064   0.000386  -0.000023   0.000005
    21  H   -0.000301  -0.000007   0.000010   0.000007  -0.000000  -0.000000
    22  Br   0.001098   0.007377   0.000155  -0.007751   0.000043   0.000126
    23  H   -0.000263   0.000007   0.000004   0.000003  -0.000000   0.000005
    24  H   -0.007694  -0.000004   0.001364  -0.000061  -0.000036   0.001355
              13         14         15         16         17         18
     1  C    0.000400   0.000000   0.000112   0.002042   0.002240  -0.000067
     2  C   -0.004534  -0.002391   0.017303   0.390534   0.256562  -0.080309
     3  C   -0.016820  -0.000170  -0.000342  -0.000338  -0.001469   0.000010
     4  C    0.220236  -0.091859   0.359033  -0.011460  -0.012453   0.005344
     5  C    0.000165  -0.000001  -0.000703   0.001538  -0.000117  -0.000003
     6  C   -0.005885   0.000012   0.008700  -0.000029   0.000006   0.000000
     7  C   -0.028040   0.002898  -0.003358   0.000030  -0.000061   0.000000
     8  H   -0.004583   0.000683   0.000047   0.000010  -0.000481   0.000003
     9  H    0.006653  -0.000160   0.000040  -0.000003   0.000008   0.000000
    10  C    0.323288  -0.088497   0.006713  -0.000229   0.000730  -0.000003
    11  H   -0.005083   0.009847  -0.000259   0.000007  -0.000003   0.000000
    12  H   -0.019757   0.001796   0.000009   0.000021  -0.000048   0.000000
    13  C    4.798859   0.715587  -0.036212   0.006127  -0.022460  -0.000063
    14  O    0.715587   7.661323   0.001012  -0.000173   0.001562  -0.000002
    15  H   -0.036212   0.001012   0.565689  -0.013455   0.007108  -0.000077
    16  H    0.006127  -0.000173  -0.013455   0.576336  -0.036196   0.002834
    17  C   -0.022460   0.001562   0.007108  -0.036196   4.719484   0.702882
    18  O   -0.000063  -0.000002  -0.000077   0.002834   0.702882   7.585225
    19  N    0.001250   0.000004  -0.000493  -0.000804   0.001138  -0.000017
    20  H   -0.000040   0.000001  -0.000036  -0.000058  -0.001115  -0.000068
    21  H    0.000006   0.000000  -0.000008   0.000085   0.000167   0.000018
    22  Br   0.008086  -0.005138  -0.000016   0.004669   0.261126  -0.073326
    23  H   -0.000006  -0.000000  -0.000037  -0.000001  -0.000008  -0.000000
    24  H    0.000030  -0.000001   0.000718  -0.000010  -0.000003  -0.000000
              19         20         21         22         23         24
     1  C    0.394764  -0.027207   0.431609  -0.000067  -0.057775   0.012171
     2  C    0.001001   0.001125  -0.000613  -0.135740   0.000029   0.000144
     3  C    0.444499  -0.020504   0.003987  -0.001793   0.012729  -0.056883
     4  C   -0.004448  -0.001108   0.000090   0.014817   0.000014  -0.000445
     5  C   -0.061011   0.007058  -0.049787  -0.000085   0.452542  -0.057610
     6  C   -0.098482   0.010847   0.009210  -0.000109  -0.058602   0.453441
     7  C   -0.049237  -0.012956  -0.000301   0.001098  -0.000263  -0.007694
     8  H   -0.008690   0.005103  -0.000007   0.007377   0.000007  -0.000004
     9  H    0.003231   0.000064   0.000010   0.000155   0.000004   0.001364
    10  C   -0.003369   0.000386   0.000007  -0.007751   0.000003  -0.000061
    11  H   -0.000078  -0.000023  -0.000000   0.000043  -0.000000  -0.000036
    12  H    0.000008   0.000005  -0.000000   0.000126   0.000005   0.001355
    13  C    0.001250  -0.000040   0.000006   0.008086  -0.000006   0.000030
    14  O    0.000004   0.000001   0.000000  -0.005138  -0.000000  -0.000001
    15  H   -0.000493  -0.000036  -0.000008  -0.000016  -0.000037   0.000718
    16  H   -0.000804  -0.000058   0.000085   0.004669  -0.000001  -0.000010
    17  C    0.001138  -0.001115   0.000167   0.261126  -0.000008  -0.000003
    18  O   -0.000017  -0.000068   0.000018  -0.073326  -0.000000  -0.000000
    19  N    6.159994   0.365345  -0.034097  -0.004352   0.004396   0.005236
    20  H    0.365345   0.515406  -0.005078   0.014420  -0.000188  -0.000223
    21  H   -0.034097  -0.005078   0.606586   0.000036  -0.004156  -0.000182
    22  Br  -0.004352   0.014420   0.000036  35.061360   0.000000  -0.000000
    23  H    0.004396  -0.000188  -0.004156   0.000000   0.633665  -0.005499
    24  H    0.005236  -0.000223  -0.000182  -0.000000  -0.005499   0.642266
 Mulliken charges:
               1
     1  C    0.027579
     2  C   -0.040012
     3  C   -0.083642
     4  C    0.025483
     5  C   -0.077349
     6  C   -0.113533
     7  C    0.112105
     8  H    0.026462
     9  H    0.058469
    10  C   -0.034512
    11  H    0.056270
    12  H    0.074549
    13  C    0.062795
    14  O   -0.206331
    15  H    0.088511
    16  H    0.078527
    17  C    0.121404
    18  O   -0.142382
    19  N   -0.115788
    20  H    0.148842
    21  H    0.042421
    22  Br  -0.144937
    23  H    0.023140
    24  H    0.011927
 Sum of Mulliken charges =  -0.00000
 Mulliken charges with hydrogens summed into heavy atoms:
               1
     1  C    0.070000
     2  C    0.038515
     3  C   -0.083642
     4  C    0.113994
     5  C   -0.054209
     6  C   -0.101606
     7  C    0.197036
    10  C    0.096308
    13  C    0.062795
    14  O   -0.206331
    17  C    0.121404
    18  O   -0.142382
    19  N    0.033054
    22  Br  -0.144937
 Electronic spatial extent (au):  <R**2>=           3124.0254
 Charge=             -0.0000 electrons
 Dipole moment (field-independent basis, Debye):
    X=             -3.9761    Y=              0.2448    Z=             -0.7859  Tot=              4.0604
 Quadrupole moment (field-independent basis, Debye-Ang):
   XX=           -103.8901   YY=            -94.4318   ZZ=            -88.4611
   XY=             -4.2662   XZ=             -6.6474   YZ=             -1.3892
 Traceless Quadrupole moment (field-independent basis, Debye-Ang):
   XX=             -8.2958   YY=              1.1626   ZZ=              7.1333
   XY=             -4.2662   XZ=             -6.6474   YZ=             -1.3892
 Octapole moment (field-independent basis, Debye-Ang**2):
  XXX=             66.5349  YYY=            -15.2589  ZZZ=            -24.8824  XYY=             -8.1575
  XXY=             18.0270  XXZ=             -0.7758  XZZ=             17.2722  YZZ=             -1.2125
  YYZ=            -21.7788  XYZ=              1.5615
 Hexadecapole moment (field-independent basis, Debye-Ang**3):
 XXXX=          -2077.6110 YYYY=          -1219.2123 ZZZZ=           -624.0741 XXXY=            -25.4195
 XXXZ=           -109.4629 YYYX=            -27.0520 YYYZ=             -6.8153 ZZZX=            -61.7465
 ZZZY=              1.0461 XXYY=           -560.8916 XXZZ=           -446.4035 YYZZ=           -313.4793
 XXYZ=             -8.8267 YYXZ=            -45.8961 ZZXY=            -10.1731
 N-N= 1.239927348515D+03 E-N=-1.000844934809D+04  KE= 3.156863959721D+03
 Unable to Open any file for archive entry.
 1\1\GINC-NODE-008\FTS\RwB97XD\def2SVP\C10H10Br1N1O2\JP2658\28-Dec-2023
 \0\\# wb97xd def2svp geom=allchk scrf=(iefpcm,solvent=toluene) opt=(re
 adfc,ts,noeigen,maxcycles=50,maxstep=10)\\3g_exo_ts_6_reopt.out\\0,1\C
 ,-5.1277946404,3.6942720771,0.0203468882\C,-1.6703817941,4.0088443533,
 0.0924919273\C,-4.3710667525,3.4526631548,2.120401602\C,-1.6215696888,
 3.2956092028,1.2246804308\C,-5.0512418631,2.3398492944,0.2684767494\C,
 -4.5743207089,2.1854635262,1.5989261699\C,-3.794570664,3.8880373904,3.
 4346614627\H,-3.7894081713,4.986983257,3.4851694135\H,-4.434098639,3.5
 442788089,4.2622241729\C,-2.3734510144,3.3597116078,3.6872022224\H,-1.
 9904157473,3.7101891529,4.6556071908\H,-2.4028682969,2.2561034069,3.72
 33315661\C,-1.3402342131,3.7285437626,2.6413524853\O,-0.276337855,4.22
 48747406,2.9224658279\H,-1.7302969779,2.2111090669,1.1171928813\H,-1.7
 684051567,3.4800252266,-0.8594293643\C,-1.5796754067,5.464437233,-0.12
 21566716\O,-1.2957665175,5.9821558502,-1.1476653912\N,-4.7303256025,4.
 3477042423,1.1532501948\H,-4.6283317039,5.3511682127,1.2408181832\H,-5
 .4539140041,4.2408815718,-0.8609539112\Br,-2.0695553824,6.6374546858,1
 .4004301784\H,-5.317956866,1.5478625473,-0.4281141358\H,-4.3929123333,
 1.2487776277,2.1237899273\\Version=ES64L-G16RevC.01\State=1-A\HF=-3165
 .5415433\RMSD=4.849e-09\RMSF=1.149e-05\Dipole=-1.1562834,-1.0047689,0.
 4532667\Quadrupole=-6.6132136,3.9761135,2.6371001,-5.7247199,-0.666513
 7,1.594895\PG=C01 [X(C10H10Br1N1O2)]\\@
 The archive entry for this job was punched.


 IN THE UNIVERSE THE DIFFICULT THINGS ARE DONE AS IF THEY WERE EASY.

                                                          -- LAO-TSU
 Job cpu time:       0 days  0 hours 11 minutes  2.8 seconds.
 Elapsed time:       0 days  0 hours 11 minutes  5.2 seconds.
 File lengths (MBytes):  RWF=    112 Int=      0 D2E=      0 Chk=     12 Scr=      1
 Normal termination of Gaussian 16 at Thu Dec 28 13:53:17 2023.
