Unloading slurm/anatra/current
  ERROR: No such file or directory on
    '/cm/local/modulefiles/slurm/anatra/current'
environment: line 0: unalias: gv: not found
environment: line 0: unalias: sl: not found
 Entering Gaussian System, Link 0=g16
 Initial command:
 /apps/gaussian/g16/C.01/g16/l1.exe "/local/jobs/1153174/Gau-1516408.inp" -scrdir="/local/jobs/1153174/"
 Entering Link 1 = /apps/gaussian/g16/C.01/g16/l1.exe PID=   1516409.
  
 Copyright (c) 1988-2019, Gaussian, Inc.  All Rights Reserved.
  
 This is part of the Gaussian(R) 16 program.  It is based on
 the Gaussian(R) 09 system (copyright 2009, Gaussian, Inc.),
 the Gaussian(R) 03 system (copyright 2003, Gaussian, Inc.),
 the Gaussian(R) 98 system (copyright 1998, Gaussian, Inc.),
 the Gaussian(R) 94 system (copyright 1995, Gaussian, Inc.),
 the Gaussian 92(TM) system (copyright 1992, Gaussian, Inc.),
 the Gaussian 90(TM) system (copyright 1990, Gaussian, Inc.),
 the Gaussian 88(TM) system (copyright 1988, Gaussian, Inc.),
 the Gaussian 86(TM) system (copyright 1986, Carnegie Mellon
 University), and the Gaussian 82(TM) system (copyright 1983,
 Carnegie Mellon University). Gaussian is a federally registered
 trademark of Gaussian, Inc.
  
 This software contains proprietary and confidential information,
 including trade secrets, belonging to Gaussian, Inc.
  
 This software is provided under written license and may be
 used, copied, transmitted, or stored only in accord with that
 written license.
  
 The following legend is applicable only to US Government
 contracts under FAR:
  
                    RESTRICTED RIGHTS LEGEND
  
 Use, reproduction and disclosure by the US Government is
 subject to restrictions as set forth in subparagraphs (a)
 and (c) of the Commercial Computer Software - Restricted
 Rights clause in FAR 52.227-19.
  
 Gaussian, Inc.
 340 Quinnipiac St., Bldg. 40, Wallingford CT 06492
  
  
 ---------------------------------------------------------------
 Warning -- This program may not be used in any manner that
 competes with the business of Gaussian, Inc. or will provide
 assistance to any competitor of Gaussian, Inc.  The licensee
 of this program is prohibited from giving any competitor of
 Gaussian, Inc. access to this program.  By using this program,
 the user acknowledges that Gaussian, Inc. is engaged in the
 business of creating and licensing software in the field of
 computational chemistry and represents and warrants to the
 licensee that it is not a competitor of Gaussian, Inc. and that
 it will not use this program in any manner prohibited above.
 ---------------------------------------------------------------
  

 Cite this work as:
 Gaussian 16, Revision C.01,
 M. J. Frisch, G. W. Trucks, H. B. Schlegel, G. E. Scuseria, 
 M. A. Robb, J. R. Cheeseman, G. Scalmani, V. Barone, 
 G. A. Petersson, H. Nakatsuji, X. Li, M. Caricato, A. V. Marenich, 
 J. Bloino, B. G. Janesko, R. Gomperts, B. Mennucci, H. P. Hratchian, 
 J. V. Ortiz, A. F. Izmaylov, J. L. Sonnenberg, D. Williams-Young, 
 F. Ding, F. Lipparini, F. Egidi, J. Goings, B. Peng, A. Petrone, 
 T. Henderson, D. Ranasinghe, V. G. Zakrzewski, J. Gao, N. Rega, 
 G. Zheng, W. Liang, M. Hada, M. Ehara, K. Toyota, R. Fukuda, 
 J. Hasegawa, M. Ishida, T. Nakajima, Y. Honda, O. Kitao, H. Nakai, 
 T. Vreven, K. Throssell, J. A. Montgomery, Jr., J. E. Peralta, 
 F. Ogliaro, M. J. Bearpark, J. J. Heyd, E. N. Brothers, K. N. Kudin, 
 V. N. Staroverov, T. A. Keith, R. Kobayashi, J. Normand, 
 K. Raghavachari, A. P. Rendell, J. C. Burant, S. S. Iyengar, 
 J. Tomasi, M. Cossi, J. M. Millam, M. Klene, C. Adamo, R. Cammi, 
 J. W. Ochterski, R. L. Martin, K. Morokuma, O. Farkas, 
 J. B. Foresman, and D. J. Fox, Gaussian, Inc., Wallingford CT, 2019.
 
 ******************************************
 Gaussian 16:  ES64L-G16RevC.01  3-Jul-2019
                30-Dec-2023 
 ******************************************
 %chk=imda-2_1_opt_hf_freq.chk
 %nprocshared=12
 Will use up to   12 processors via shared memory.
 %mem=48GB
 -----------------------------------------------------------
 # wb97xd def2svp scrf=(iefpcm,solvent=toluene) freq=noraman
 -----------------------------------------------------------
 1/10=4,30=1,38=1/1,3;
 2/12=2,17=6,18=5,40=1/2;
 3/5=43,7=101,11=2,25=1,30=1,70=2201,71=2,72=13,74=-58,140=1/1,2,3;
 4//1;
 5/5=2,38=5,53=13,98=1/2;
 8/6=4,10=90,11=11/1;
 11/6=1,8=1,9=11,15=111,16=1/1,2,10;
 10/6=1/2;
 6/7=2,8=2,9=2,10=2,28=1/1;
 7/8=1,10=1,25=1/1,2,3,16;
 1/10=4,30=1/3;
 99//99;
 -------------------
 imda-2_1_opt_hf.out
 -------------------
 Symbolic Z-matrix:
 Charge =  0 Multiplicity = 1
 C                    -2.05534  -2.09438  -0.33713 
 C                     0.38593  -0.58464   1.61263 
 C                    -2.05539   0.12509  -0.67653 
 C                    -0.2819    0.57512   1.56816 
 C                    -3.06223  -1.56669   0.44363 
 C                    -3.06481  -0.16141   0.22793 
 C                    -1.54737   1.43916  -1.19063 
 H                    -0.72342   1.26096  -1.89748 
 H                    -2.33616   1.95457  -1.76 
 C                    -1.07024   2.38972  -0.08104 
 H                    -0.6999    3.33354  -0.50453 
 H                    -1.926     2.63453   0.5731 
 C                     0.02071   1.8502    0.82237 
 O                     1.03587   2.46062   1.05486 
 H                    -1.15213   0.65662   2.22819 
 H                     0.06165  -1.35242   2.32018 
 C                     1.56976  -1.0329    0.85738 
 O                     2.2866   -1.91666   1.18218 
 N                    -1.47197  -1.06199  -1.01708 
 H                    -0.6636   -1.14589  -1.62076 
 H                    -1.72547  -3.12055  -0.47845 
 Br                    1.92324  -0.14893  -0.88273 
 H                    -3.7292   -2.13146   1.09155 
 H                    -3.72969   0.5691    0.68627 
 

 GradGradGradGradGradGradGradGradGradGradGradGradGradGradGradGradGradGrad
 Berny optimization.
 Initialization pass.
 Trust Radius=3.00D-01 FncErr=1.00D-07 GrdErr=1.00D-07 EigMax=2.50D+02 EigMin=1.00D-04
 Number of steps in this run=      2 maximum allowed number of steps=      2.
 GradGradGradGradGradGradGradGradGradGradGradGradGradGradGradGradGradGrad

                          Input orientation:                          
 ---------------------------------------------------------------------
 Center     Atomic      Atomic             Coordinates (Angstroms)
 Number     Number       Type             X           Y           Z
 ---------------------------------------------------------------------
      1          6           0       -2.055340   -2.094380   -0.337130
      2          6           0        0.385930   -0.584640    1.612630
      3          6           0       -2.055390    0.125090   -0.676530
      4          6           0       -0.281900    0.575120    1.568160
      5          6           0       -3.062230   -1.566690    0.443630
      6          6           0       -3.064810   -0.161410    0.227930
      7          6           0       -1.547370    1.439160   -1.190630
      8          1           0       -0.723420    1.260960   -1.897480
      9          1           0       -2.336160    1.954570   -1.760000
     10          6           0       -1.070240    2.389720   -0.081040
     11          1           0       -0.699900    3.333540   -0.504530
     12          1           0       -1.926000    2.634530    0.573100
     13          6           0        0.020710    1.850200    0.822370
     14          8           0        1.035870    2.460620    1.054860
     15          1           0       -1.152130    0.656620    2.228190
     16          1           0        0.061650   -1.352420    2.320180
     17          6           0        1.569760   -1.032900    0.857380
     18          8           0        2.286600   -1.916660    1.182180
     19          7           0       -1.471970   -1.061990   -1.017080
     20          1           0       -0.663600   -1.145890   -1.620760
     21          1           0       -1.725470   -3.120550   -0.478450
     22         35           0        1.923240   -0.148930   -0.882730
     23          1           0       -3.729200   -2.131460    1.091550
     24          1           0       -3.729690    0.569100    0.686270
 ---------------------------------------------------------------------
                    Distance matrix (angstroms):
                    1          2          3          4          5
     1  C    0.000000
     2  C    3.469968   0.000000
     3  C    2.245270   3.421113   0.000000
     4  C    3.728465   1.339036   2.895933   0.000000
     5  C    1.379083   3.771046   2.265084   3.685397   0.000000
     6  C    2.252708   3.742208   1.385301   3.175418   1.421740
     7  C    3.670477   3.961273   1.499721   3.155773   3.741756
     8  H    3.932812   4.117981   2.134260   3.560334   4.352750
     9  H    4.300862   5.023146   2.144700   4.147230   4.216922
    10  C    4.598169   3.719646   2.540409   2.575677   4.460547
    11  H    5.597102   4.584051   3.487275   3.475579   5.521944
    12  H    4.817451   4.097401   2.806351   2.816803   4.354082
    13  C    4.605881   2.585796   3.087539   1.507848   4.617694
    14  O    5.678137   3.163406   4.243619   2.356927   5.778170
    15  H    3.868418   2.070089   3.088009   1.095254   3.431653
    16  H    3.477563   1.093284   3.955397   2.097372   3.650476
    17  C    3.961684   1.474040   4.103113   2.553347   4.680967
    18  O    4.603513   2.360532   5.145525   3.599325   5.410907
    19  N    1.366924   3.255001   1.365838   3.283270   2.217504
    20  H    2.117612   3.445479   2.108089   3.643732   3.192523
    21  H    1.087111   3.906593   3.268373   4.464357   2.247585
    22  Br   4.462236   2.963104   3.993382   3.375463   5.350158
    23  H    2.200979   4.427016   3.319603   4.408697   1.087940
    24  H    3.308311   4.373510   2.204008   3.558795   2.250772
                    6          7          8          9         10
     6  C    0.000000
     7  C    2.622358   0.000000
     8  H    3.467364   1.100130   0.000000
     9  H    2.993354   1.100917   1.760945   0.000000
    10  C    3.253004   1.537012   2.166527   2.147281   0.000000
    11  H    4.282986   2.185775   2.497289   2.480949   1.098768
    12  H    3.038636   2.164027   3.071915   2.464535   1.104607
    13  C    3.731001   2.584569   2.880715   3.497766   1.515719
    14  O    4.937047   3.571937   3.640137   4.421551   2.393950
    15  H    2.885924   3.529435   4.191679   4.358011   2.888405
    16  H    3.945981   4.765255   5.023420   5.773521   4.588098
    17  C    4.757619   4.474587   4.255552   5.570625   4.423184
    18  O    5.712187   5.620594   5.351803   6.709155   5.604374
    19  N    2.213195   2.508297   2.594519   3.224653   3.598869
    20  H    3.186325   2.765600   2.423444   3.525578   3.877710
    21  H    3.324051   4.618428   4.713319   5.269929   5.563303
    22  Br   5.110222   3.829095   3.165804   4.830818   4.006042
    23  H    2.251300   4.766346   5.429321   5.173735   5.374579
    24  H    1.088938   3.007038   4.023940   3.137784   3.313019
                   11         12         13         14         15
    11  H    0.000000
    12  H    1.775732   0.000000
    13  C    2.116658   2.113525   0.000000
    14  O    2.491302   3.005830   1.207151   0.000000
    15  H    3.852035   2.692643   2.185524   3.068951   0.000000
    16  H    5.524234   4.785270   3.535801   4.133934   2.349035
    17  C    5.106070   5.074564   3.273079   3.539593   3.484578
    18  O    6.271266   6.231397   4.410550   4.554242   4.420494
    19  N    4.492158   4.049577   3.754001   4.794891   3.686149
    20  H    4.616555   4.549533   3.926031   4.801464   4.278098
    21  H    6.535117   5.853795   5.426752   6.412916   4.682054
    22  Br   4.376242   4.968273   3.243996   3.369189   4.447992
    23  H    6.449058   5.122010   5.476121   6.617737   3.963159
    24  H    4.270803   2.744468   3.965506   5.140454   3.004828
                   16         17         18         19         20
    16  H    0.000000
    17  C    2.125152   0.000000
    18  O    2.561994   1.183379   0.000000
    19  N    3.684243   3.573033   4.437798   0.000000
    20  H    4.012437   3.337940   4.141768   1.012389   0.000000
    21  H    3.761969   4.123259   4.505968   2.142908   2.516291
    22  Br   3.895194   1.983516   2.742399   3.518406   2.868860
    23  H    4.060416   5.416701   6.020316   3.268818   4.210211
    24  H    4.553697   5.538940   6.528451   3.264836   4.202914
                   21         22         23         24
    21  H    0.000000
    22  Br   4.723034   0.000000
    23  H    2.730958   6.307003   0.000000
    24  H    4.357406   5.910410   2.730801   0.000000
 Stoichiometry    C10H10BrNO2
 Framework group  C1[X(C10H10BrNO2)]
 Deg. of freedom    66
 Full point group                 C1      NOp   1
 Largest Abelian subgroup         C1      NOp   1
 Largest concise Abelian subgroup C1      NOp   1
                         Standard orientation:                         
 ---------------------------------------------------------------------
 Center     Atomic      Atomic             Coordinates (Angstroms)
 Number     Number       Type             X           Y           Z
 ---------------------------------------------------------------------
      1          6           0       -2.055339   -2.094381   -0.337129
      2          6           0        0.385929   -0.584638    1.612631
      3          6           0       -2.055391    0.125089   -0.676529
      4          6           0       -0.281902    0.575121    1.568161
      5          6           0       -3.062229   -1.566692    0.443631
      6          6           0       -3.064811   -0.161412    0.227931
      7          6           0       -1.547373    1.439160   -1.190629
      8          1           0       -0.723423    1.260961   -1.897479
      9          1           0       -2.336164    1.954569   -1.759999
     10          6           0       -1.070244    2.389720   -0.081039
     11          1           0       -0.699905    3.333541   -0.504529
     12          1           0       -1.926005    2.634529    0.573101
     13          6           0        0.020706    1.850201    0.822371
     14          8           0        1.035866    2.460623    1.054861
     15          1           0       -1.152132    0.656620    2.228191
     16          1           0        0.061650   -1.352419    2.320181
     17          6           0        1.569760   -1.032897    0.857381
     18          8           0        2.286601   -1.916656    1.182181
     19          7           0       -1.471970   -1.061990   -1.017079
     20          1           0       -0.663600   -1.145889   -1.620759
     21          1           0       -1.725468   -3.120551   -0.478449
     22         35           0        1.923239   -0.148926   -0.882729
     23          1           0       -3.729199   -2.131463    1.091551
     24          1           0       -3.729692    0.569097    0.686271
 ---------------------------------------------------------------------
 Rotational constants (GHZ):           0.7266288           0.4571019           0.3838634
 Standard basis: def2SVP (5D, 7F)
 There are   280 symmetry adapted cartesian basis functions of A   symmetry.
 There are   264 symmetry adapted basis functions of A   symmetry.
   264 basis functions,   475 primitive gaussians,   280 cartesian basis functions
    64 alpha electrons       64 beta electrons
       nuclear repulsion energy      1240.1303452328 Hartrees.
 NAtoms=   24 NActive=   24 NUniq=   24 SFac= 1.00D+00 NAtFMM=   60 NAOKFM=F Big=F
 Integral buffers will be    131072 words long.
 Raffenetti 2 integral format.
 Two-electron integral symmetry is turned on.
 Nuclear repulsion after empirical dispersion term =     1240.1099050905 Hartrees.
 Force inversion solution in PCM.
 ------------------------------------------------------------------------------
 Polarizable Continuum Model (PCM)
 =================================
 Model                : PCM.
 Atomic radii         : UFF (Universal Force Field).
 Polarization charges : Total charges.
 Charge compensation  : None.
 Solution method      : Matrix inversion.
 Cavity type          : Scaled VdW (van der Waals Surface) (Alpha=1.100).
 Cavity algorithm     : GePol (No added spheres)
                        Default sphere list used, NSphG=   24.
                        Lebedev-Laikov grids with approx.  5.0 points / Ang**2.
                        Smoothing algorithm: York/Karplus (Gamma=1.0000).
                        Polarization charges: spherical gaussians, with
                                              point-specific exponents (IZeta= 3).
                        Self-potential: point-specific (ISelfS= 7).
                        Self-field    : sphere-specific E.n sum rule (ISelfD= 2).
 1st derivatives      : Analytical E(r).r(x)/FMM algorithm (CHGder, D1EAlg=3).
                        Cavity 1st derivative terms included.
 2nd derivatives      : Analytical E(r).r(xy)/FMM algorithm (CHGder, D2EAlg=3).
                        Cavity 2nd derivative terms included.
 Solvent              : Toluene, Eps=   2.374100 Eps(inf)=   2.238315
 ------------------------------------------------------------------------------
 One-electron integrals computed using PRISM.
   1 Symmetry operations used in ECPInt.
 ECPInt:  NShTT=    7260 NPrTT=   28205 LenC2=    7045 LenP2D=   20151.
 LDataN:  DoStor=T MaxTD1= 4 Len=   56
 NBasis=   264 RedAO= T EigKep=  6.61D-04  NBF=   264
 NBsUse=   264 1.00D-06 EigRej= -1.00D+00 NBFU=   264
 ExpMin= 1.22D-01 ExpMax= 1.13D+05 ExpMxC= 1.70D+04 IAcc=3 IRadAn=         5 AccDes= 0.00D+00
 Harris functional with IExCor= 4639 and IRadAn=       5 diagonalized for initial guess.
 HarFok:  IExCor= 4639 AccDes= 0.00D+00 IRadAn=         5 IDoV= 1 UseB2=F ITyADJ=14
 ICtDFT=  3500011 ScaDFX=  1.000000  1.000000  1.000000  1.000000
 FoFCou: FMM=F IPFlag=           0 FMFlag=      100000 FMFlg1=           0
         NFxFlg=           0 DoJE=T BraDBF=F KetDBF=T FulRan=T
         wScrn=  0.000000 ICntrl=       500 IOpCl=  0 I1Cent=   200000004 NGrid=           0
         NMat0=    1 NMatS0=      1 NMatT0=    0 NMatD0=    1 NMtDS0=    0 NMtDT0=    0
 Petite list used in FoFCou.
 Requested convergence on RMS density matrix=1.00D-08 within 128 cycles.
 Requested convergence on MAX density matrix=1.00D-06.
 Requested convergence on             energy=1.00D-06.
 No special actions if energy rises.
 Inv3:  Mode=1 IEnd=    11430912.
 Iteration    1 A*A^-1 deviation from unit magnitude is 3.77D-15 for   1266.
 Iteration    1 A*A^-1 deviation from orthogonality  is 1.77D-15 for   1233    440.
 Iteration    1 A^-1*A deviation from unit magnitude is 3.55D-15 for   1266.
 Iteration    1 A^-1*A deviation from orthogonality  is 1.99D-15 for   1442    123.
 Error on total polarization charges =  0.00752
 SCF Done:  E(RwB97XD) =  -3165.54154339     A.U. after   16 cycles
            NFock= 16  Conv=0.53D-08     -V/T= 2.0027
 DoSCS=F DFT=T ScalE2(SS,OS)=  1.000000  1.000000
 Range of M.O.s used for correlation:     1   264
 NBasis=   264 NAE=    64 NBE=    64 NFC=     0 NFV=     0
 NROrb=    264 NOA=    64 NOB=    64 NVA=   200 NVB=   200
   1 Symmetry operations used in ECPInt.
 ECPInt:  NShTT=    7260 NPrTT=   28205 LenC2=    7045 LenP2D=   20151.
 LDataN:  DoStor=T MaxTD1= 5 Len=  102
 Symmetrizing basis deriv contribution to polar:
 IMax=3 JMax=2 DiffMx= 0.00D+00
 G2DrvN: will do    25 centers at a time, making    1 passes.
 Calling FoFCou, ICntrl=  3107 FMM=F I1Cent=   0 AccDes= 0.00D+00.
 NEqPCM:  Using equilibrium solvation (IEInf=0, Eps=   2.3741, EpsInf=   2.2383)
 G2PCM: DoFxE=T DoFxN=T DoGrad=T DoDP/DQ/DG/TGxP=FFFF NFrqRd=   0 IEInf=0 SqF1=F DoCFld=F IF1Alg=4.
 End of G2Drv F.D. properties file   721 does not exist.
 End of G2Drv F.D. properties file   722 does not exist.
 End of G2Drv F.D. properties file   788 does not exist.
          IDoAtm=111111111111111111111111
 NEqPCM:  Using equilibrium solvation (IEInf=0, Eps=   2.3741, EpsInf=   2.2383)
          Differentiating once with respect to electric field.
                with respect to dipole field.
          Differentiating once with respect to nuclear coordinates.
 Keep R1 ints in memory in canonical form, NReq=1246293233.
          There are    75 degrees of freedom in the 1st order CPHF.  IDoFFX=6 NUNeed=     3.
     72 vectors produced by pass  0 Test12= 1.71D-14 1.33D-09 XBig12= 7.16D+01 3.45D+00.
 AX will form    72 AO Fock derivatives at one time.
     72 vectors produced by pass  1 Test12= 1.71D-14 1.33D-09 XBig12= 9.87D+00 6.00D-01.
     72 vectors produced by pass  2 Test12= 1.71D-14 1.33D-09 XBig12= 3.59D-01 9.72D-02.
     72 vectors produced by pass  3 Test12= 1.71D-14 1.33D-09 XBig12= 4.44D-03 9.50D-03.
     72 vectors produced by pass  4 Test12= 1.71D-14 1.33D-09 XBig12= 6.46D-05 1.01D-03.
     72 vectors produced by pass  5 Test12= 1.71D-14 1.33D-09 XBig12= 5.00D-07 9.53D-05.
     66 vectors produced by pass  6 Test12= 1.71D-14 1.33D-09 XBig12= 2.94D-09 6.92D-06.
     29 vectors produced by pass  7 Test12= 1.71D-14 1.33D-09 XBig12= 1.40D-11 3.16D-07.
      3 vectors produced by pass  8 Test12= 1.71D-14 1.33D-09 XBig12= 6.41D-14 2.28D-08.
      2 vectors produced by pass  9 Test12= 1.71D-14 1.33D-09 XBig12= 2.92D-16 1.83D-09.
 InvSVY:  IOpt=1 It=  1 EMax= 6.22D-15
 Solved reduced A of dimension   532 with    75 vectors.
 Isotropic polarizability for W=    0.000000      143.89 Bohr**3.
 End of Minotr F.D. properties file   721 does not exist.
 End of Minotr F.D. properties file   722 does not exist.
 End of Minotr F.D. properties file   788 does not exist.

 **********************************************************************

            Population analysis using the SCF Density.

 **********************************************************************

 Orbital symmetries:
       Occupied  (A) (A) (A) (A) (A) (A) (A) (A) (A) (A) (A) (A)
                 (A) (A) (A) (A) (A) (A) (A) (A) (A) (A) (A) (A)
                 (A) (A) (A) (A) (A) (A) (A) (A) (A) (A) (A) (A)
                 (A) (A) (A) (A) (A) (A) (A) (A) (A) (A) (A) (A)
                 (A) (A) (A) (A) (A) (A) (A) (A) (A) (A) (A) (A)
                 (A) (A) (A) (A)
       Virtual   (A) (A) (A) (A) (A) (A) (A) (A) (A) (A) (A) (A)
                 (A) (A) (A) (A) (A) (A) (A) (A) (A) (A) (A) (A)
                 (A) (A) (A) (A) (A) (A) (A) (A) (A) (A) (A) (A)
                 (A) (A) (A) (A) (A) (A) (A) (A) (A) (A) (A) (A)
                 (A) (A) (A) (A) (A) (A) (A) (A) (A) (A) (A) (A)
                 (A) (A) (A) (A) (A) (A) (A) (A) (A) (A) (A) (A)
                 (A) (A) (A) (A) (A) (A) (A) (A) (A) (A) (A) (A)
                 (A) (A) (A) (A) (A) (A) (A) (A) (A) (A) (A) (A)
                 (A) (A) (A) (A) (A) (A) (A) (A) (A) (A) (A) (A)
                 (A) (A) (A) (A) (A) (A) (A) (A) (A) (A) (A) (A)
                 (A) (A) (A) (A) (A) (A) (A) (A) (A) (A) (A) (A)
                 (A) (A) (A) (A) (A) (A) (A) (A) (A) (A) (A) (A)
                 (A) (A) (A) (A) (A) (A) (A) (A) (A) (A) (A) (A)
                 (A) (A) (A) (A) (A) (A) (A) (A) (A) (A) (A) (A)
                 (A) (A) (A) (A) (A) (A) (A) (A) (A) (A) (A) (A)
                 (A) (A) (A) (A) (A) (A) (A) (A) (A) (A) (A) (A)
                 (A) (A) (A) (A) (A) (A) (A) (A)
 The electronic state is 1-A.
 Alpha  occ. eigenvalues -- -483.06640 -62.64871 -56.45597 -56.45315 -56.45280
 Alpha  occ. eigenvalues --  -19.29963 -19.26607 -14.49556 -10.45744 -10.41015
 Alpha  occ. eigenvalues --  -10.34948 -10.34308 -10.33037 -10.32326 -10.32323
 Alpha  occ. eigenvalues --  -10.31916 -10.28809 -10.28778  -8.81819  -6.64231
 Alpha  occ. eigenvalues --   -6.63169  -6.63056  -2.74624  -2.74345  -2.74257
 Alpha  occ. eigenvalues --   -2.73412  -2.73411  -1.19625  -1.15515  -1.08134
 Alpha  occ. eigenvalues --   -0.93082  -0.90652  -0.88335  -0.87013  -0.82600
 Alpha  occ. eigenvalues --   -0.78384  -0.74241  -0.68316  -0.67961  -0.66538
 Alpha  occ. eigenvalues --   -0.62006  -0.60954  -0.59639  -0.58486  -0.56164
 Alpha  occ. eigenvalues --   -0.55130  -0.54307  -0.53587  -0.52195  -0.51887
 Alpha  occ. eigenvalues --   -0.50846  -0.49974  -0.48102  -0.47570  -0.46975
 Alpha  occ. eigenvalues --   -0.45603  -0.44046  -0.39222  -0.38860  -0.38149
 Alpha  occ. eigenvalues --   -0.37201  -0.35018  -0.33369  -0.29256
 Alpha virt. eigenvalues --   -0.02310   0.04107   0.06153   0.09765   0.11658
 Alpha virt. eigenvalues --    0.13408   0.13800   0.14790   0.15690   0.17575
 Alpha virt. eigenvalues --    0.19703   0.20164   0.20580   0.21565   0.23374
 Alpha virt. eigenvalues --    0.23532   0.26903   0.27937   0.28641   0.30614
 Alpha virt. eigenvalues --    0.31332   0.32494   0.33906   0.35569   0.37620
 Alpha virt. eigenvalues --    0.39947   0.40484   0.42274   0.43019   0.46635
 Alpha virt. eigenvalues --    0.48290   0.49613   0.50171   0.50717   0.51950
 Alpha virt. eigenvalues --    0.52798   0.53996   0.54278   0.55802   0.56403
 Alpha virt. eigenvalues --    0.57058   0.57921   0.59885   0.60324   0.60842
 Alpha virt. eigenvalues --    0.61918   0.64777   0.65196   0.65988   0.67247
 Alpha virt. eigenvalues --    0.67717   0.69969   0.70204   0.70944   0.71926
 Alpha virt. eigenvalues --    0.72884   0.73949   0.74697   0.74918   0.75450
 Alpha virt. eigenvalues --    0.75664   0.76663   0.77507   0.78355   0.79093
 Alpha virt. eigenvalues --    0.79585   0.81390   0.81936   0.82525   0.83602
 Alpha virt. eigenvalues --    0.84551   0.87199   0.88456   0.89683   0.89872
 Alpha virt. eigenvalues --    0.91081   0.93598   0.94220   0.96494   0.98815
 Alpha virt. eigenvalues --    1.01860   1.02309   1.03478   1.06497   1.06837
 Alpha virt. eigenvalues --    1.11164   1.11820   1.12376   1.16050   1.19648
 Alpha virt. eigenvalues --    1.21053   1.22618   1.24252   1.26203   1.28008
 Alpha virt. eigenvalues --    1.29042   1.32301   1.34324   1.37356   1.37593
 Alpha virt. eigenvalues --    1.40489   1.42093   1.42746   1.46996   1.49233
 Alpha virt. eigenvalues --    1.51653   1.52038   1.57463   1.60750   1.65442
 Alpha virt. eigenvalues --    1.70277   1.72124   1.72476   1.74193   1.75550
 Alpha virt. eigenvalues --    1.76356   1.79035   1.79200   1.80154   1.82268
 Alpha virt. eigenvalues --    1.83245   1.84109   1.85023   1.86079   1.88041
 Alpha virt. eigenvalues --    1.88402   1.91911   1.92625   1.93147   1.93768
 Alpha virt. eigenvalues --    1.95595   1.97398   1.98487   1.99762   2.01059
 Alpha virt. eigenvalues --    2.02704   2.04262   2.05145   2.07615   2.09190
 Alpha virt. eigenvalues --    2.10542   2.12087   2.14512   2.16451   2.20255
 Alpha virt. eigenvalues --    2.22589   2.23945   2.24677   2.26366   2.31459
 Alpha virt. eigenvalues --    2.34742   2.35616   2.37328   2.40335   2.42302
 Alpha virt. eigenvalues --    2.43601   2.45226   2.46602   2.49878   2.52257
 Alpha virt. eigenvalues --    2.53525   2.55105   2.58420   2.64930   2.69984
 Alpha virt. eigenvalues --    2.73116   2.74405   2.75205   2.75721   2.77158
 Alpha virt. eigenvalues --    2.79084   2.79371   2.81722   2.82813   2.85696
 Alpha virt. eigenvalues --    2.87259   2.88977   2.92232   2.93954   2.96891
 Alpha virt. eigenvalues --    3.02488   3.04694   3.07020   3.10814   3.11888
 Alpha virt. eigenvalues --    3.20195   3.24661   3.27057   3.37674   3.40767
 Alpha virt. eigenvalues --    3.50254   3.53627   3.54761   3.57946   3.59738
 Alpha virt. eigenvalues --    3.67216   3.68974   3.69707   3.71848   3.89356
          Condensed to atoms (all electrons):
               1          2          3          4          5          6
     1  C    4.926612   0.004428  -0.144504  -0.004419   0.447034  -0.023639
     2  C    0.004428   5.103369  -0.010093   0.499084   0.000499  -0.005169
     3  C   -0.144504  -0.010093   5.184922   0.020891  -0.012036   0.418477
     4  C   -0.004419   0.499084   0.020891   5.157877  -0.000685  -0.002657
     5  C    0.447034   0.000499  -0.012036  -0.000685   4.972182   0.368304
     6  C   -0.023639  -0.005169   0.418477  -0.002657   0.368304   5.125011
     7  C    0.008522  -0.001141   0.327346   0.002919   0.010398  -0.098964
     8  H    0.000183   0.001361  -0.010338  -0.004370  -0.000640   0.011498
     9  H   -0.000169  -0.000054   0.004471   0.000092   0.000076  -0.008482
    10  C    0.000060   0.003218  -0.051237  -0.186450   0.000496   0.002510
    11  H   -0.000002  -0.000423   0.008112   0.014940   0.000005   0.000051
    12  H    0.000050   0.001424  -0.015132  -0.000326  -0.000284   0.007370
    13  C    0.000399  -0.004444  -0.016823   0.220082   0.000168  -0.005921
    14  O    0.000000  -0.002361  -0.000170  -0.091812  -0.000001   0.000012
    15  H    0.000113   0.017438  -0.000384   0.359008  -0.000720   0.008696
    16  H    0.002049   0.390480  -0.000336  -0.011511   0.001550  -0.000034
    17  C    0.002275   0.256623  -0.001490  -0.012235  -0.000123   0.000003
    18  O   -0.000070  -0.080386   0.000010   0.005362  -0.000003   0.000000
    19  N    0.394721   0.000965   0.444491  -0.004480  -0.061009  -0.098465
    20  H   -0.027206   0.001109  -0.020502  -0.001098   0.007057   0.010846
    21  H    0.431624  -0.000620   0.003988   0.000090  -0.049790   0.009209
    22  Br  -0.000070  -0.135854  -0.001797   0.014847  -0.000085  -0.000110
    23  H   -0.057781   0.000029   0.012730   0.000014   0.452558  -0.058610
    24  H    0.012169   0.000146  -0.056895  -0.000450  -0.057611   0.453461
               7          8          9         10         11         12
     1  C    0.008522   0.000183  -0.000169   0.000060  -0.000002   0.000050
     2  C   -0.001141   0.001361  -0.000054   0.003218  -0.000423   0.001424
     3  C    0.327346  -0.010338   0.004471  -0.051237   0.008112  -0.015132
     4  C    0.002919  -0.004370   0.000092  -0.186450   0.014940  -0.000326
     5  C    0.010398  -0.000640   0.000076   0.000496   0.000005  -0.000284
     6  C   -0.098964   0.011498  -0.008482   0.002510   0.000051   0.007370
     7  C    4.680549   0.364371   0.353639   0.358458  -0.008606  -0.011868
     8  H    0.364371   0.659444  -0.024122  -0.023750  -0.007042   0.007473
     9  H    0.353639  -0.024122   0.632717  -0.014351  -0.004093  -0.009538
    10  C    0.358458  -0.023750  -0.014351   5.012373   0.333601   0.368530
    11  H   -0.008606  -0.007042  -0.004093   0.333601   0.616762  -0.014017
    12  H   -0.011868   0.007473  -0.009538   0.368530  -0.014017   0.608264
    13  C   -0.027974  -0.004604   0.006650   0.323262  -0.005068  -0.019796
    14  O    0.002909   0.000679  -0.000160  -0.088521   0.009854   0.001791
    15  H   -0.003334   0.000046   0.000040   0.006697  -0.000259   0.000008
    16  H    0.000030   0.000010  -0.000003  -0.000229   0.000007   0.000021
    17  C   -0.000052  -0.000483   0.000008   0.000714  -0.000003  -0.000048
    18  O    0.000000   0.000003   0.000000  -0.000003   0.000000   0.000000
    19  N   -0.049239  -0.008689   0.003231  -0.003368  -0.000078   0.000008
    20  H   -0.012960   0.005105   0.000064   0.000387  -0.000023   0.000005
    21  H   -0.000301  -0.000007   0.000010   0.000007  -0.000000  -0.000000
    22  Br   0.001100   0.007383   0.000156  -0.007770   0.000042   0.000127
    23  H   -0.000263   0.000007   0.000004   0.000003  -0.000000   0.000005
    24  H   -0.007700  -0.000004   0.001363  -0.000055  -0.000036   0.001355
              13         14         15         16         17         18
     1  C    0.000399   0.000000   0.000113   0.002049   0.002275  -0.000070
     2  C   -0.004444  -0.002361   0.017438   0.390480   0.256623  -0.080386
     3  C   -0.016823  -0.000170  -0.000384  -0.000336  -0.001490   0.000010
     4  C    0.220082  -0.091812   0.359008  -0.011511  -0.012235   0.005362
     5  C    0.000168  -0.000001  -0.000720   0.001550  -0.000123  -0.000003
     6  C   -0.005921   0.000012   0.008696  -0.000034   0.000003   0.000000
     7  C   -0.027974   0.002909  -0.003334   0.000030  -0.000052   0.000000
     8  H   -0.004604   0.000679   0.000046   0.000010  -0.000483   0.000003
     9  H    0.006650  -0.000160   0.000040  -0.000003   0.000008   0.000000
    10  C    0.323262  -0.088521   0.006697  -0.000229   0.000714  -0.000003
    11  H   -0.005068   0.009854  -0.000259   0.000007  -0.000003   0.000000
    12  H   -0.019796   0.001791   0.000008   0.000021  -0.000048   0.000000
    13  C    4.798809   0.715624  -0.036283   0.006127  -0.022506  -0.000062
    14  O    0.715624   7.661332   0.000999  -0.000173   0.001504  -0.000002
    15  H   -0.036283   0.000999   0.565608  -0.013458   0.007095  -0.000077
    16  H    0.006127  -0.000173  -0.013458   0.576548  -0.036151   0.002854
    17  C   -0.022506   0.001504   0.007095  -0.036151   4.719449   0.702904
    18  O   -0.000062  -0.000002  -0.000077   0.002854   0.702904   7.585326
    19  N    0.001248   0.000004  -0.000482  -0.000807   0.001201  -0.000018
    20  H   -0.000042   0.000001  -0.000035  -0.000059  -0.001107  -0.000069
    21  H    0.000005   0.000000  -0.000008   0.000085   0.000169   0.000019
    22  Br   0.008161  -0.005151  -0.000014   0.004675   0.261216  -0.073333
    23  H   -0.000006  -0.000000  -0.000037  -0.000001  -0.000008  -0.000000
    24  H    0.000028  -0.000001   0.000719  -0.000010  -0.000003  -0.000000
              19         20         21         22         23         24
     1  C    0.394721  -0.027206   0.431624  -0.000070  -0.057781   0.012169
     2  C    0.000965   0.001109  -0.000620  -0.135854   0.000029   0.000146
     3  C    0.444491  -0.020502   0.003988  -0.001797   0.012730  -0.056895
     4  C   -0.004480  -0.001098   0.000090   0.014847   0.000014  -0.000450
     5  C   -0.061009   0.007057  -0.049790  -0.000085   0.452558  -0.057611
     6  C   -0.098465   0.010846   0.009209  -0.000110  -0.058610   0.453461
     7  C   -0.049239  -0.012960  -0.000301   0.001100  -0.000263  -0.007700
     8  H   -0.008689   0.005105  -0.000007   0.007383   0.000007  -0.000004
     9  H    0.003231   0.000064   0.000010   0.000156   0.000004   0.001363
    10  C   -0.003368   0.000387   0.000007  -0.007770   0.000003  -0.000055
    11  H   -0.000078  -0.000023  -0.000000   0.000042  -0.000000  -0.000036
    12  H    0.000008   0.000005  -0.000000   0.000127   0.000005   0.001355
    13  C    0.001248  -0.000042   0.000005   0.008161  -0.000006   0.000028
    14  O    0.000004   0.000001   0.000000  -0.005151  -0.000000  -0.000001
    15  H   -0.000482  -0.000035  -0.000008  -0.000014  -0.000037   0.000719
    16  H   -0.000807  -0.000059   0.000085   0.004675  -0.000001  -0.000010
    17  C    0.001201  -0.001107   0.000169   0.261216  -0.000008  -0.000003
    18  O   -0.000018  -0.000069   0.000019  -0.073333  -0.000000  -0.000000
    19  N    6.160047   0.365373  -0.034102  -0.004351   0.004397   0.005236
    20  H    0.365373   0.515385  -0.005078   0.014376  -0.000188  -0.000223
    21  H   -0.034102  -0.005078   0.606541   0.000035  -0.004157  -0.000182
    22  Br  -0.004351   0.014376   0.000035  35.061393   0.000000  -0.000000
    23  H    0.004397  -0.000188  -0.004157   0.000000   0.633654  -0.005499
    24  H    0.005236  -0.000223  -0.000182  -0.000000  -0.005499   0.642253
 Mulliken charges:
               1
     1  C    0.027619
     2  C   -0.039627
     3  C   -0.083701
     4  C    0.025288
     5  C   -0.077339
     6  C   -0.113397
     7  C    0.112163
     8  H    0.026486
     9  H    0.058450
    10  C   -0.034583
    11  H    0.056276
    12  H    0.074581
    13  C    0.062965
    14  O   -0.206354
    15  H    0.088624
    16  H    0.078336
    17  C    0.121047
    18  O   -0.142457
    19  N   -0.115834
    20  H    0.148885
    21  H    0.042461
    22  Br  -0.144976
    23  H    0.023149
    24  H    0.011940
 Sum of Mulliken charges =  -0.00000
 Mulliken charges with hydrogens summed into heavy atoms:
               1
     1  C    0.070080
     2  C    0.038709
     3  C   -0.083701
     4  C    0.113911
     5  C   -0.054190
     6  C   -0.101457
     7  C    0.197099
    10  C    0.096274
    13  C    0.062965
    14  O   -0.206354
    17  C    0.121047
    18  O   -0.142457
    19  N    0.033051
    22  Br  -0.144976
 APT charges:
               1
     1  C   -0.005711
     2  C   -0.350357
     3  C   -0.002546
     4  C    0.050258
     5  C   -0.118974
     6  C   -0.140963
     7  C    0.159176
     8  H   -0.005631
     9  H   -0.028641
    10  C   -0.087610
    11  H   -0.004508
    12  H    0.021815
    13  C    0.886120
    14  O   -0.721718
    15  H    0.073216
    16  H    0.044340
    17  C    1.458578
    18  O   -0.886273
    19  N   -0.395945
    20  H    0.290633
    21  H    0.091168
    22  Br  -0.470061
    23  H    0.067944
    24  H    0.075689
 Sum of APT charges =   0.00000
 APT charges with hydrogens summed into heavy atoms:
               1
     1  C    0.085457
     2  C   -0.306017
     3  C   -0.002546
     4  C    0.123474
     5  C   -0.051030
     6  C   -0.065273
     7  C    0.124904
    10  C   -0.070303
    13  C    0.886120
    14  O   -0.721718
    17  C    1.458578
    18  O   -0.886273
    19  N   -0.105311
    22  Br  -0.470061
 Electronic spatial extent (au):  <R**2>=           3122.3240
 Charge=              0.0000 electrons
 Dipole moment (field-independent basis, Debye):
    X=             -3.9752    Y=              0.2526    Z=             -0.7876  Tot=              4.0603
 Quadrupole moment (field-independent basis, Debye-Ang):
   XX=           -103.8556   YY=            -94.4619   ZZ=            -88.4507
   XY=             -4.2540   XZ=             -6.6456   YZ=             -1.3942
 Traceless Quadrupole moment (field-independent basis, Debye-Ang):
   XX=             -8.2662   YY=              1.1275   ZZ=              7.1387
   XY=             -4.2540   XZ=             -6.6456   YZ=             -1.3942
 Octapole moment (field-independent basis, Debye-Ang**2):
  XXX=             66.6429  YYY=            -15.1174  ZZZ=            -24.8001  XYY=             -8.2337
  XXY=             17.9688  XXZ=             -0.7009  XZZ=             17.2842  YZZ=             -1.2368
  YYZ=            -21.8318  XYZ=              1.5162
 Hexadecapole moment (field-independent basis, Debye-Ang**3):
 XXXX=          -2074.0190 YYYY=          -1220.6963 ZZZZ=           -623.7378 XXXY=            -25.4674
 XXXZ=           -109.1997 YYYX=            -26.7561 YYYZ=             -6.7681 ZZZX=            -61.6832
 ZZZY=              0.9934 XXYY=           -560.5990 XXZZ=           -445.7386 YYZZ=           -313.6613
 XXYZ=             -8.9617 YYXZ=            -45.9504 ZZXY=            -10.2362
 N-N= 1.240109905091D+03 E-N=-1.000881550111D+04  KE= 3.156863922142D+03
  Exact polarizability:     150.282      -7.882     157.958     -12.234     -13.853     123.436
 Approx polarizability:     150.344     -12.376     166.455     -14.050     -16.504     136.867
   1 Symmetry operations used in ECPInt.
 ECPInt:  NShTT=    7260 NPrTT=   28205 LenC2=    7045 LenP2D=   20151.
 LDataN:  DoStor=T MaxTD1= 6 Len=  172
 D2PCM: PCM CHGder 2nd derivatives, FixD1E=F FixD2E=F DoIter=F DoCFld=F I1PDM=0
 Calling FoFJK, ICntrl=    100127 FMM=F ISym2X=0 I1Cent= 0 IOpClX= 0 NMat=1 NMatS=1 NMatT=0.
 Full mass-weighted force constant matrix:
 Low frequencies ---  -13.3500  -10.0028   -5.0702   -0.0076   -0.0044    0.0113
 Low frequencies ---    5.8397   45.9670   71.0455
 ******    1 imaginary frequencies (negative Signs) ****** 
 Diagonal vibrational polarizability:
       39.9959739     107.5124871      62.6848533
 Harmonic frequencies (cm**-1), IR intensities (KM/Mole), Raman scattering
 activities (A**4/AMU), depolarization ratios for plane and unpolarized
 incident light, reduced masses (AMU), force constants (mDyne/A),
 and normal coordinates:
                      1                      2                      3
                      A                      A                      A
 Frequencies --     -9.9875                45.8373                71.0183
 Red. masses --     10.7045                 5.2111                10.2934
 Frc consts  --      0.0006                 0.0065                 0.0306
 IR Inten    --      0.2750                 2.3638                 1.0925
  Atom  AN      X      Y      Z        X      Y      Z        X      Y      Z
     1   6    -0.12   0.05  -0.13     0.22   0.04  -0.11    -0.17   0.00   0.01
     2   6     0.05  -0.03   0.00    -0.03   0.07   0.04     0.06   0.03  -0.04
     3   6    -0.07   0.06  -0.01     0.00   0.06   0.02    -0.19   0.01   0.07
     4   6    -0.04  -0.09   0.00    -0.01   0.08   0.03     0.05   0.02  -0.03
     5   6    -0.15   0.02  -0.14     0.21  -0.10  -0.04    -0.22  -0.03  -0.03
     6   6    -0.12   0.03  -0.07     0.07  -0.08   0.04    -0.23  -0.03   0.01
     7   6    -0.04   0.09   0.08    -0.12   0.13   0.08    -0.20   0.03   0.10
     8   1    -0.03   0.11   0.08    -0.14   0.24   0.02    -0.20   0.05   0.09
     9   1    -0.03   0.13   0.09    -0.19   0.12   0.15    -0.21   0.03   0.11
    10   6    -0.04   0.02   0.14    -0.12   0.09   0.12    -0.20   0.01   0.11
    11   1    -0.05   0.05   0.19    -0.20   0.14   0.16    -0.31   0.06   0.13
    12   1    -0.04  -0.04   0.16    -0.10  -0.02   0.19    -0.16  -0.11   0.20
    13   6    -0.02  -0.06   0.06    -0.03   0.06  -0.01    -0.04   0.02  -0.07
    14   8     0.05  -0.14  -0.01     0.05  -0.00  -0.18     0.02  -0.01  -0.28
    15   1    -0.11  -0.18  -0.09     0.01   0.10   0.05     0.05  -0.02  -0.03
    16   1     0.07  -0.10  -0.06    -0.04   0.09   0.06     0.06   0.03  -0.04
    17   6     0.20   0.14   0.11    -0.06  -0.00   0.03     0.05  -0.03  -0.04
    18   8     0.41   0.37   0.28    -0.10  -0.02   0.06    -0.07  -0.13  -0.06
    19   7    -0.08   0.07  -0.05     0.10   0.13  -0.08    -0.15   0.03   0.07
    20   1    -0.04   0.10   0.00     0.08   0.24  -0.11    -0.12   0.05   0.11
    21   1    -0.13   0.05  -0.17     0.31   0.08  -0.18    -0.15   0.01   0.00
    22  35    -0.02  -0.10  -0.05    -0.03  -0.08   0.00     0.22   0.02   0.04
    23   1    -0.18  -0.01  -0.20     0.28  -0.19  -0.04    -0.25  -0.06  -0.09
    24   1    -0.13   0.01  -0.06     0.02  -0.17   0.11    -0.27  -0.05  -0.02
                      4                      5                      6
                      A                      A                      A
 Frequencies --     94.7840               111.0345               113.7759
 Red. masses --      5.8216                 3.7255                14.1713
 Frc consts  --      0.0308                 0.0271                 0.1081
 IR Inten    --      6.4076                 5.5944                 1.6051
  Atom  AN      X      Y      Z        X      Y      Z        X      Y      Z
     1   6     0.11   0.10   0.14     0.15   0.04   0.19    -0.02  -0.00  -0.00
     2   6    -0.15  -0.12  -0.16    -0.02  -0.01  -0.01     0.07   0.11  -0.03
     3   6    -0.05   0.07  -0.03     0.01   0.01  -0.01     0.04   0.00   0.03
     4   6    -0.18  -0.13  -0.15    -0.03  -0.02   0.02     0.05   0.10   0.03
     5   6     0.16   0.10   0.21    -0.06   0.02  -0.07    -0.04   0.01  -0.04
     6   6     0.05   0.08   0.09    -0.15  -0.00  -0.20    -0.00   0.01  -0.02
     7   6    -0.09   0.07  -0.07     0.00   0.02   0.01     0.05   0.00   0.05
     8   1    -0.12   0.06  -0.10     0.00   0.05   0.01     0.17   0.01   0.17
     9   1    -0.12   0.07  -0.02    -0.00   0.03   0.03     0.12  -0.05  -0.09
    10   6    -0.03   0.03  -0.06    -0.00   0.00   0.04    -0.15   0.06   0.08
    11   1     0.06  -0.00  -0.04    -0.00   0.01   0.06    -0.25   0.12   0.11
    12   1    -0.03   0.10  -0.08    -0.01  -0.02   0.04    -0.23  -0.05   0.02
    13   6    -0.11  -0.08  -0.02    -0.01  -0.02   0.03    -0.14   0.22   0.16
    14   8    -0.11  -0.12   0.10     0.02  -0.06   0.00    -0.34   0.47   0.39
    15   1    -0.24  -0.20  -0.22    -0.04  -0.04   0.00     0.09   0.02   0.10
    16   1    -0.20  -0.17  -0.24    -0.02  -0.04  -0.03     0.08   0.12  -0.02
    17   6    -0.03  -0.02  -0.03    -0.02  -0.00  -0.02     0.02   0.00  -0.04
    18   8     0.01   0.05   0.05    -0.02  -0.01  -0.03    -0.04  -0.04  -0.00
    19   7    -0.03   0.07  -0.01     0.18   0.03   0.21     0.03   0.00   0.04
    20   1    -0.07   0.08  -0.06     0.31   0.06   0.38     0.05  -0.00   0.06
    21   1     0.15   0.10   0.18     0.28   0.06   0.35    -0.03  -0.00  -0.00
    22  35     0.08  -0.01  -0.01    -0.01  -0.00  -0.03     0.09  -0.17  -0.12
    23   1     0.26   0.11   0.32    -0.15   0.01  -0.16    -0.07   0.01  -0.07
    24   1     0.07   0.08   0.12    -0.32  -0.02  -0.40    -0.01   0.01  -0.03
                      7                      8                      9
                      A                      A                      A
 Frequencies --    155.4504               161.4829               231.7261
 Red. masses --      3.3493                 6.2971                 5.1926
 Frc consts  --      0.0477                 0.0967                 0.1643
 IR Inten    --      1.6164                 1.7437                 5.2589
  Atom  AN      X      Y      Z        X      Y      Z        X      Y      Z
     1   6    -0.05  -0.01   0.03     0.05   0.10   0.06     0.01   0.02  -0.02
     2   6    -0.04   0.01   0.01     0.25  -0.04   0.12     0.14   0.17   0.28
     3   6     0.12  -0.02  -0.04    -0.04   0.06  -0.16    -0.06   0.02  -0.04
     4   6    -0.07  -0.00   0.09     0.12  -0.10  -0.02    -0.10   0.02   0.20
     5   6     0.01   0.09   0.03     0.06   0.14   0.04     0.02  -0.00   0.01
     6   6     0.11   0.08  -0.01     0.00   0.12  -0.09    -0.02  -0.00  -0.00
     7   6     0.18  -0.03   0.00    -0.05   0.06  -0.13    -0.07   0.00  -0.07
     8   1     0.37  -0.00   0.22    -0.02   0.12  -0.10    -0.13  -0.03  -0.13
     9   1     0.29  -0.08  -0.20    -0.04   0.09  -0.12    -0.09   0.04  -0.00
    10   6    -0.16  -0.03   0.14    -0.14  -0.06   0.01     0.06  -0.02  -0.10
    11   1    -0.29   0.08   0.28    -0.22   0.04   0.16     0.25  -0.12  -0.14
    12   1    -0.28  -0.28   0.08    -0.17  -0.25   0.04     0.06   0.18  -0.17
    13   6    -0.10  -0.01   0.08    -0.07  -0.07  -0.07    -0.10  -0.09   0.05
    14   8    -0.01  -0.09  -0.12    -0.15   0.06  -0.06    -0.04  -0.20   0.09
    15   1    -0.05  -0.05   0.11     0.16  -0.13   0.03    -0.05   0.01   0.27
    16   1    -0.01  -0.03  -0.02     0.35   0.05   0.26     0.39   0.20   0.43
    17   6    -0.04   0.04  -0.02     0.16  -0.10   0.03     0.00   0.13   0.06
    18   8    -0.05   0.03  -0.01     0.16  -0.15  -0.10    -0.10  -0.00  -0.05
    19   7     0.02  -0.07  -0.01    -0.01   0.05  -0.07    -0.03   0.03  -0.04
    20   1     0.00  -0.16  -0.03    -0.02   0.02  -0.07    -0.06   0.05  -0.07
    21   1    -0.14  -0.04   0.06     0.08   0.10   0.16     0.04   0.03  -0.02
    22  35     0.01   0.01  -0.03    -0.06  -0.01   0.07     0.05  -0.01  -0.06
    23   1    -0.03   0.17   0.06     0.10   0.19   0.13     0.06  -0.02   0.04
    24   1     0.19   0.15  -0.01     0.00   0.15  -0.14    -0.03  -0.02   0.01
                     10                     11                     12
                      A                      A                      A
 Frequencies --    263.0481               339.0147               357.8201
 Red. masses --      5.3010                 2.5003                 7.1505
 Frc consts  --      0.2161                 0.1693                 0.5394
 IR Inten    --      9.5120                 4.8520                12.6020
  Atom  AN      X      Y      Z        X      Y      Z        X      Y      Z
     1   6    -0.07  -0.01  -0.08     0.06   0.03  -0.00     0.04   0.02   0.00
     2   6     0.10   0.05   0.03     0.03   0.05  -0.03     0.08  -0.00   0.10
     3   6     0.19   0.04   0.23    -0.12   0.04   0.01    -0.07   0.02   0.01
     4   6    -0.12  -0.07  -0.21    -0.04   0.01  -0.04     0.02  -0.06  -0.18
     5   6    -0.09  -0.01  -0.10     0.04  -0.06   0.03     0.02  -0.03   0.02
     6   6     0.11   0.02   0.14    -0.11  -0.05   0.02    -0.07  -0.03   0.02
     7   6     0.02   0.02   0.03     0.16  -0.06   0.01     0.12  -0.03   0.02
     8   1     0.04   0.01   0.05     0.38  -0.31   0.32     0.28  -0.18   0.24
     9   1    -0.05  -0.18  -0.04     0.46  -0.02  -0.36     0.32  -0.01  -0.23
    10   6    -0.05   0.16  -0.09     0.01   0.05  -0.01    -0.03  -0.00   0.05
    11   1     0.07   0.09  -0.14     0.05   0.01  -0.06    -0.17   0.07   0.10
    12   1    -0.05   0.27  -0.14    -0.06   0.09  -0.12    -0.05  -0.18   0.08
    13   6    -0.13   0.01  -0.10    -0.03   0.04   0.03     0.04  -0.01  -0.06
    14   8    -0.09  -0.10  -0.02     0.02  -0.02  -0.01     0.02  -0.00   0.03
    15   1    -0.17  -0.14  -0.26    -0.10  -0.07  -0.10    -0.11  -0.08  -0.34
    16   1     0.17   0.12   0.13     0.01   0.01  -0.08    -0.01   0.08   0.15
    17   6     0.07  -0.00   0.03     0.03   0.05  -0.04     0.08  -0.13   0.24
    18   8     0.03  -0.07  -0.06     0.03   0.01  -0.10    -0.10  -0.22   0.35
    19   7     0.13   0.03   0.15    -0.08   0.08  -0.02    -0.06   0.04  -0.02
    20   1     0.15   0.04   0.18    -0.06   0.16  -0.01     0.01   0.11   0.06
    21   1    -0.16  -0.02  -0.20     0.16   0.06  -0.01     0.10   0.04   0.00
    22  35    -0.02  -0.01   0.02    -0.01  -0.02   0.03    -0.01   0.08  -0.11
    23   1    -0.22  -0.04  -0.27     0.11  -0.13   0.05     0.07  -0.07   0.04
    24   1     0.12   0.02   0.15    -0.16  -0.13   0.08    -0.10  -0.08   0.05
                     13                     14                     15
                      A                      A                      A
 Frequencies --    361.2998               451.6991               491.9523
 Red. masses --      4.2128                 2.6372                 2.4723
 Frc consts  --      0.3240                 0.3170                 0.3525
 IR Inten    --      5.3420                 4.0586                18.2869
  Atom  AN      X      Y      Z        X      Y      Z        X      Y      Z
     1   6     0.02   0.08  -0.07    -0.01  -0.03   0.03    -0.00  -0.03   0.02
     2   6    -0.09  -0.16   0.02     0.02  -0.02  -0.07     0.02   0.00  -0.06
     3   6    -0.02   0.08   0.11     0.01  -0.03  -0.04    -0.00  -0.01  -0.01
     4   6     0.08  -0.04   0.20    -0.01  -0.00   0.12     0.09   0.04  -0.04
     5   6    -0.02  -0.01  -0.07     0.01  -0.00   0.02    -0.00  -0.02   0.01
     6   6    -0.01   0.03   0.11    -0.00  -0.02  -0.06    -0.01  -0.03  -0.03
     7   6     0.05  -0.06  -0.07    -0.01   0.04   0.06     0.01   0.03   0.00
     8   1     0.10  -0.24   0.03    -0.01   0.08   0.04     0.09   0.02   0.10
     9   1     0.15  -0.06  -0.21    -0.02   0.02   0.05     0.06  -0.03  -0.12
    10   6     0.02  -0.10  -0.10     0.03   0.15  -0.02    -0.07   0.13  -0.02
    11   1     0.17  -0.14  -0.07     0.44  -0.10  -0.23    -0.10   0.13  -0.03
    12   1    -0.01  -0.00  -0.19     0.02   0.64  -0.23    -0.06   0.10   0.00
    13   6    -0.04  -0.09  -0.00    -0.12   0.07   0.14    -0.04   0.03  -0.08
    14   8    -0.12   0.07  -0.12    -0.02   0.01  -0.10     0.01  -0.12   0.09
    15   1     0.29   0.11   0.47    -0.04  -0.19   0.11     0.47   0.28   0.45
    16   1    -0.00  -0.12   0.10    -0.07  -0.11  -0.19     0.31   0.26   0.35
    17   6    -0.09  -0.12  -0.02     0.08  -0.07   0.01    -0.10  -0.12  -0.13
    18   8     0.05   0.03   0.06     0.04  -0.09   0.06     0.03   0.04   0.07
    19   7     0.04   0.15   0.08    -0.02  -0.06  -0.04    -0.02  -0.03  -0.01
    20   1     0.04   0.24   0.06    -0.00  -0.10  -0.02    -0.03  -0.05  -0.02
    21   1     0.05   0.10  -0.16    -0.02  -0.04   0.06     0.02  -0.02   0.05
    22  35     0.01   0.02  -0.02    -0.01   0.01  -0.01     0.00   0.01   0.01
    23   1    -0.04  -0.09  -0.16     0.02   0.03   0.07     0.01  -0.01   0.04
    24   1    -0.05  -0.03   0.15     0.01   0.01  -0.08    -0.02  -0.03  -0.03
                     16                     17                     18
                      A                      A                      A
 Frequencies --    504.1767               563.6367               590.0845
 Red. masses --      5.7658                 4.4093                 1.5450
 Frc consts  --      0.8635                 0.8253                 0.3170
 IR Inten    --     71.4970                25.8660               105.5472
  Atom  AN      X      Y      Z        X      Y      Z        X      Y      Z
     1   6    -0.00  -0.03   0.04    -0.01   0.00  -0.02     0.04   0.02   0.04
     2   6    -0.18  -0.13   0.32    -0.12   0.04   0.00     0.01   0.01  -0.03
     3   6     0.02  -0.01  -0.01    -0.03   0.00  -0.01     0.03  -0.01   0.04
     4   6    -0.08  -0.06  -0.08    -0.03   0.15   0.10     0.00   0.01   0.00
     5   6     0.01  -0.01   0.04    -0.01  -0.01  -0.01    -0.02   0.01  -0.03
     6   6    -0.02  -0.03  -0.06     0.03   0.00   0.06     0.03   0.02   0.04
     7   6     0.04   0.07   0.11    -0.07  -0.04  -0.17    -0.00  -0.03   0.02
     8   1     0.12   0.09   0.18    -0.09  -0.07  -0.19    -0.04  -0.02  -0.02
     9   1     0.09   0.04   0.01    -0.11  -0.09  -0.16    -0.04  -0.05   0.06
    10   6     0.03   0.14   0.04    -0.13   0.02  -0.10     0.00  -0.02  -0.01
    11   1     0.12   0.07  -0.04    -0.41   0.16  -0.04    -0.01  -0.03  -0.02
    12   1     0.10   0.27   0.08    -0.24  -0.26  -0.13     0.00  -0.02  -0.00
    13   6     0.04   0.01  -0.09    -0.01   0.17   0.08    -0.01  -0.00  -0.00
    14   8    -0.02   0.10  -0.05     0.15  -0.09   0.09    -0.01  -0.01  -0.00
    15   1    -0.08   0.23  -0.11    -0.11   0.06   0.00     0.04   0.01   0.05
    16   1    -0.17   0.04   0.52    -0.43  -0.00  -0.18     0.04   0.01  -0.01
    17   6    -0.19  -0.12   0.18     0.04  -0.13   0.15     0.01   0.01  -0.00
    18   8     0.16   0.05  -0.17     0.17  -0.10  -0.07    -0.01   0.00   0.00
    19   7    -0.06  -0.06  -0.08     0.01   0.02   0.03    -0.10  -0.01  -0.14
    20   1     0.09  -0.06   0.12     0.10   0.06   0.14     0.56   0.14   0.71
    21   1     0.02  -0.04   0.09    -0.01   0.01  -0.05     0.16   0.04   0.20
    22  35     0.03   0.00  -0.03     0.00   0.01  -0.01    -0.00  -0.00   0.00
    23   1     0.03   0.02   0.09    -0.05  -0.03  -0.07    -0.10  -0.01  -0.13
    24   1    -0.04  -0.02  -0.10     0.00  -0.02   0.07    -0.03   0.02  -0.05
                     19                     20                     21
                      A                      A                      A
 Frequencies --    640.2606               653.4145               692.4915
 Red. masses --      2.8264                 2.7521                 2.6098
 Frc consts  --      0.6826                 0.6923                 0.7374
 IR Inten    --      1.1772                14.1084                17.6461
  Atom  AN      X      Y      Z        X      Y      Z        X      Y      Z
     1   6    -0.11   0.02  -0.16    -0.11  -0.09  -0.06     0.01  -0.01   0.03
     2   6    -0.00   0.03  -0.02     0.01  -0.05   0.00    -0.01   0.03  -0.03
     3   6     0.04  -0.03   0.07    -0.03   0.06  -0.07     0.17   0.06   0.20
     4   6    -0.00   0.03  -0.01     0.03  -0.05   0.04    -0.08   0.01   0.05
     5   6     0.17   0.09   0.16     0.04  -0.09   0.12    -0.00  -0.04   0.03
     6   6    -0.11   0.03  -0.12     0.02  -0.08   0.01    -0.08  -0.05  -0.07
     7   6    -0.02  -0.11   0.09     0.05   0.18  -0.16     0.09   0.06  -0.06
     8   1    -0.06  -0.10   0.04     0.07   0.17  -0.14    -0.09   0.12  -0.29
     9   1    -0.08  -0.17   0.12     0.08   0.23  -0.16    -0.14  -0.00   0.19
    10   6    -0.01  -0.05  -0.01     0.03   0.08  -0.01     0.07   0.00  -0.03
    11   1    -0.02  -0.09  -0.11     0.01   0.20   0.23    -0.14   0.20   0.24
    12   1     0.00   0.01  -0.00    -0.03  -0.12  -0.00    -0.02  -0.40  -0.00
    13   6    -0.01   0.01  -0.01     0.01  -0.03  -0.01    -0.01  -0.00  -0.00
    14   8    -0.00  -0.02   0.01    -0.01   0.02  -0.01    -0.02   0.01  -0.02
    15   1     0.01   0.03   0.01     0.03  -0.05   0.03    -0.04  -0.02   0.10
    16   1    -0.01   0.06   0.02     0.02  -0.12  -0.06     0.04   0.02  -0.01
    17   6    -0.01  -0.03  -0.01     0.03   0.07   0.01     0.02  -0.03  -0.01
    18   8     0.02  -0.00  -0.00    -0.05   0.01   0.00     0.03  -0.03   0.01
    19   7     0.06   0.03   0.01    -0.01  -0.02   0.09    -0.11  -0.00  -0.06
    20   1     0.28   0.12   0.29     0.35  -0.02   0.57    -0.30  -0.07  -0.30
    21   1    -0.32  -0.02  -0.36    -0.15  -0.08  -0.20     0.16   0.02   0.12
    22  35    -0.00   0.00   0.00    -0.00  -0.00   0.00    -0.00   0.00   0.00
    23   1     0.25   0.07   0.22    -0.01  -0.06   0.09     0.08  -0.03   0.13
    24   1    -0.28   0.04  -0.38    -0.13  -0.18  -0.04    -0.29  -0.13  -0.24
                     22                     23                     24
                      A                      A                      A
 Frequencies --    696.7221               714.5645               741.6401
 Red. masses --      4.3506                 4.3154                 1.2387
 Frc consts  --      1.2443                 1.2982                 0.4014
 IR Inten    --      4.3439                19.4973                91.4564
  Atom  AN      X      Y      Z        X      Y      Z        X      Y      Z
     1   6     0.01   0.01   0.00     0.00   0.01  -0.01    -0.08  -0.01  -0.09
     2   6    -0.05  -0.20   0.02     0.14  -0.10   0.16     0.00   0.01  -0.00
     3   6     0.09  -0.00   0.12     0.02  -0.00   0.04     0.00   0.00   0.00
     4   6     0.22  -0.06   0.05    -0.02  -0.19  -0.05    -0.01   0.00  -0.00
     5   6     0.01   0.02  -0.01     0.01   0.01  -0.00    -0.03  -0.01  -0.04
     6   6    -0.04   0.01  -0.06    -0.02   0.01   0.01    -0.01  -0.00  -0.01
     7   6    -0.07  -0.03  -0.01    -0.04  -0.06  -0.11    -0.00  -0.00   0.00
     8   1     0.09  -0.07   0.18    -0.12  -0.08  -0.20    -0.00  -0.00   0.01
     9   1    -0.03  -0.27  -0.27    -0.14  -0.12  -0.03     0.00   0.01  -0.00
    10   6    -0.16   0.13  -0.07    -0.07   0.04  -0.05     0.00  -0.01   0.00
    11   1    -0.10   0.06  -0.18    -0.15   0.05  -0.11     0.01  -0.01  -0.00
    12   1    -0.12   0.24  -0.06    -0.23   0.01  -0.25     0.01   0.01   0.01
    13   6     0.04  -0.00  -0.07     0.03   0.15   0.19     0.00   0.00   0.00
    14   8     0.03  -0.04   0.06     0.15   0.07  -0.02     0.00   0.00  -0.00
    15   1     0.23   0.05   0.05    -0.23  -0.45  -0.29    -0.01  -0.00  -0.01
    16   1    -0.13  -0.33  -0.17     0.24  -0.18   0.13    -0.00   0.01   0.00
    17   6     0.10   0.24   0.15    -0.14  -0.06  -0.18    -0.00  -0.01  -0.00
    18   8    -0.11   0.01  -0.04    -0.06   0.10   0.06     0.00  -0.00   0.00
    19   7    -0.02  -0.01  -0.05    -0.01   0.01  -0.01     0.03   0.00   0.03
    20   1    -0.17  -0.04  -0.24     0.01   0.04   0.01     0.06   0.00   0.07
    21   1     0.11   0.02   0.14     0.03   0.02   0.01     0.48   0.08   0.53
    22  35    -0.00  -0.01  -0.00     0.00   0.00   0.00     0.00   0.00   0.00
    23   1     0.10   0.03   0.09     0.01  -0.01  -0.01     0.40   0.07   0.47
    24   1    -0.10   0.03  -0.16    -0.09  -0.01  -0.07     0.16   0.03   0.18
                     25                     26                     27
                      A                      A                      A
 Frequencies --    784.8598               826.1231               830.1529
 Red. masses --      2.0572                 1.3221                 2.8174
 Frc consts  --      0.7466                 0.5316                 1.1440
 IR Inten    --     35.2104                19.9615                31.9843
  Atom  AN      X      Y      Z        X      Y      Z        X      Y      Z
     1   6    -0.01  -0.01   0.00     0.05   0.01   0.05     0.01  -0.00   0.01
     2   6     0.07   0.08   0.07     0.02  -0.00   0.02     0.03   0.03   0.02
     3   6     0.04   0.02   0.04     0.01   0.00   0.02     0.00  -0.01   0.02
     4   6     0.15   0.09   0.02     0.04   0.01   0.01    -0.17  -0.04   0.18
     5   6     0.00  -0.01   0.01    -0.02  -0.00  -0.02     0.01   0.02  -0.01
     6   6     0.02  -0.01   0.00    -0.09  -0.01  -0.09     0.00   0.01  -0.02
     7   6    -0.02   0.05  -0.02     0.04  -0.00   0.01    -0.10   0.02   0.04
     8   1     0.09   0.03   0.10    -0.06   0.04  -0.11     0.16  -0.12   0.38
     9   1     0.05   0.01  -0.15    -0.07  -0.04   0.12     0.12  -0.13  -0.40
    10   6    -0.04  -0.02   0.02     0.01   0.02  -0.02    -0.02   0.09  -0.06
    11   1     0.18  -0.10   0.03    -0.06   0.07   0.03    -0.24   0.17  -0.08
    12   1     0.01   0.16   0.00    -0.03  -0.08  -0.04     0.22  -0.05   0.32
    13   6    -0.01  -0.08  -0.02    -0.02   0.00  -0.01     0.13  -0.06  -0.15
    14   8    -0.05  -0.05   0.02    -0.02  -0.02   0.00     0.02   0.06   0.03
    15   1    -0.25  -0.10  -0.49    -0.03  -0.05  -0.07    -0.28  -0.09   0.05
    16   1    -0.49  -0.12  -0.41    -0.11  -0.07  -0.11     0.09  -0.22  -0.21
    17   6    -0.10  -0.08  -0.06    -0.01  -0.01  -0.01     0.04  -0.04  -0.12
    18   8     0.01   0.04   0.01    -0.00   0.01   0.00     0.02  -0.03   0.04
    19   7    -0.02  -0.00  -0.01    -0.01   0.00  -0.01     0.02  -0.02  -0.02
    20   1    -0.03  -0.03  -0.02     0.11   0.04   0.14     0.07  -0.02   0.03
    21   1     0.08   0.00   0.08    -0.26  -0.04  -0.29    -0.08  -0.03  -0.01
    22  35     0.00   0.00   0.00     0.00   0.00   0.00    -0.00   0.00   0.00
    23   1    -0.05  -0.00  -0.03     0.17   0.02   0.19     0.01   0.03   0.01
    24   1    -0.13  -0.04  -0.17     0.49   0.07   0.61     0.10   0.06   0.03
                     28                     29                     30
                      A                      A                      A
 Frequencies --    884.7053               899.9669               912.9980
 Red. masses --      2.2795                 4.4973                 1.3798
 Frc consts  --      1.0512                 2.1461                 0.6777
 IR Inten    --     15.7170                 4.0753                 2.3668
  Atom  AN      X      Y      Z        X      Y      Z        X      Y      Z
     1   6     0.00  -0.07  -0.05    -0.11   0.31   0.01     0.04   0.02   0.05
     2   6     0.03  -0.03   0.05     0.02  -0.02   0.03     0.01  -0.00   0.01
     3   6    -0.10  -0.04  -0.06     0.03  -0.05  -0.10    -0.02  -0.01  -0.03
     4   6     0.04  -0.01   0.05     0.02  -0.01   0.03     0.01  -0.00   0.01
     5   6     0.08   0.06  -0.03    -0.18  -0.14   0.21    -0.09  -0.01  -0.09
     6   6    -0.01   0.07   0.07     0.08  -0.18  -0.02     0.05   0.01   0.08
     7   6     0.10  -0.05   0.11     0.06  -0.04   0.08     0.02  -0.01   0.02
     8   1    -0.17   0.01  -0.22    -0.06   0.01  -0.07    -0.02  -0.01  -0.03
     9   1    -0.08   0.00   0.42    -0.02  -0.01   0.22     0.00   0.01   0.06
    10   6     0.07   0.11  -0.06     0.02   0.03  -0.05     0.01   0.02  -0.01
    11   1    -0.29   0.29   0.02    -0.20   0.10  -0.09    -0.05   0.05   0.00
    12   1    -0.02  -0.32  -0.02    -0.02  -0.16  -0.04     0.00  -0.06   0.00
    13   6    -0.05   0.04  -0.08    -0.03   0.04  -0.04    -0.01   0.01  -0.01
    14   8    -0.05  -0.03  -0.00    -0.02  -0.02   0.00    -0.01  -0.01  -0.00
    15   1    -0.03  -0.11  -0.02    -0.01  -0.07  -0.01    -0.01  -0.02  -0.01
    16   1    -0.17  -0.21  -0.23    -0.08  -0.12  -0.13    -0.03  -0.04  -0.05
    17   6    -0.00   0.00  -0.02    -0.00   0.00  -0.01    -0.00   0.00  -0.00
    18   8    -0.01   0.01   0.01    -0.01   0.01   0.00    -0.00   0.00   0.00
    19   7     0.00  -0.03   0.03     0.12   0.09  -0.10     0.01   0.00  -0.01
    20   1    -0.05   0.06  -0.05     0.09  -0.15  -0.12     0.04   0.01   0.03
    21   1     0.18  -0.05   0.24     0.06   0.36   0.09    -0.29  -0.04  -0.29
    22  35     0.00  -0.00   0.00    -0.00  -0.00   0.00    -0.00  -0.00   0.00
    23   1    -0.12   0.02  -0.27    -0.21  -0.39  -0.02     0.48   0.07   0.56
    24   1    -0.16  -0.00  -0.03     0.24   0.10  -0.22    -0.31  -0.05  -0.37
                     31                     32                     33
                      A                      A                      A
 Frequencies --    963.4604               997.3375              1002.3876
 Red. masses --      2.4350                 1.3211                 2.0071
 Frc consts  --      1.3318                 0.7742                 1.1882
 IR Inten    --     28.8963                 2.3315                43.5968
  Atom  AN      X      Y      Z        X      Y      Z        X      Y      Z
     1   6    -0.01   0.06  -0.01     0.00  -0.00   0.00     0.01  -0.03   0.00
     2   6     0.01   0.02  -0.02     0.06   0.04   0.07     0.03  -0.01  -0.03
     3   6    -0.03  -0.08   0.06     0.00   0.00   0.00     0.01   0.03   0.02
     4   6     0.03   0.01  -0.03    -0.07  -0.05  -0.09     0.05  -0.01  -0.02
     5   6     0.00   0.03  -0.00    -0.00   0.00   0.00    -0.00   0.01   0.00
     6   6    -0.13   0.05   0.10     0.00  -0.01  -0.01     0.08  -0.05  -0.07
     7   6    -0.07   0.00  -0.10    -0.01  -0.00  -0.01    -0.13   0.01   0.05
     8   1    -0.01  -0.20   0.01     0.00  -0.02   0.01     0.00  -0.36   0.30
     9   1     0.04  -0.02  -0.27     0.01   0.01  -0.03     0.16   0.10  -0.26
    10   6     0.10   0.08   0.05     0.00  -0.01   0.02     0.13  -0.01  -0.06
    11   1     0.14   0.23   0.41     0.03  -0.03   0.00    -0.17   0.18   0.11
    12   1     0.08  -0.13   0.11     0.01   0.02   0.00     0.20  -0.35   0.18
    13   6    -0.03  -0.02   0.06    -0.00   0.01   0.02    -0.08   0.07   0.05
    14   8    -0.02  -0.00  -0.02     0.01   0.01  -0.00    -0.02  -0.03  -0.02
    15   1     0.06  -0.04   0.01     0.41   0.29   0.51     0.08  -0.32   0.05
    16   1    -0.05   0.07   0.01    -0.40  -0.27  -0.47    -0.02   0.06   0.01
    17   6    -0.02  -0.00   0.03     0.00   0.00  -0.01    -0.06  -0.01   0.08
    18   8    -0.00   0.01  -0.01    -0.00   0.00   0.00    -0.01   0.02  -0.02
    19   7     0.14  -0.09  -0.10    -0.00   0.00   0.00    -0.02   0.02   0.01
    20   1     0.13  -0.09  -0.12    -0.00   0.00   0.01    -0.02  -0.00   0.01
    21   1    -0.31  -0.08   0.30     0.01   0.00  -0.02     0.08   0.01  -0.09
    22  35     0.00  -0.00  -0.00    -0.00  -0.00   0.00     0.00  -0.00  -0.00
    23   1     0.21  -0.39  -0.15    -0.02   0.03   0.01    -0.18   0.35   0.10
    24   1    -0.07   0.12   0.10     0.00  -0.01  -0.00     0.11  -0.03  -0.07
                     34                     35                     36
                      A                      A                      A
 Frequencies --   1026.3121              1046.6898              1064.3938
 Red. masses --      1.9847                 1.3423                 3.1175
 Frc consts  --      1.2317                 0.8664                 2.0810
 IR Inten    --     12.4719                 3.7942               160.2975
  Atom  AN      X      Y      Z        X      Y      Z        X      Y      Z
     1   6    -0.02   0.00   0.02     0.01  -0.03  -0.00    -0.00   0.02  -0.00
     2   6     0.02  -0.01  -0.00     0.02   0.01  -0.02     0.14   0.08  -0.16
     3   6     0.01   0.04   0.02     0.00   0.00   0.00     0.00  -0.02  -0.03
     4   6    -0.00  -0.01   0.00    -0.00  -0.01   0.00    -0.03  -0.08   0.05
     5   6     0.02   0.02  -0.02     0.01  -0.08   0.01    -0.01   0.02   0.00
     6   6    -0.05   0.00   0.04    -0.00   0.10  -0.02    -0.03  -0.02   0.03
     7   6     0.02   0.14   0.08    -0.00   0.03   0.01     0.06  -0.04  -0.04
     8   1     0.13   0.23   0.20     0.04   0.06   0.05     0.05   0.25  -0.13
     9   1     0.20   0.41   0.06     0.02   0.04  -0.01    -0.15  -0.23   0.10
    10   6    -0.04  -0.14  -0.11     0.00  -0.02  -0.02    -0.06   0.04   0.03
    11   1    -0.21  -0.20  -0.38    -0.06  -0.02  -0.07     0.04  -0.05  -0.09
    12   1    -0.01  -0.07  -0.10     0.06  -0.01   0.06     0.05   0.19   0.12
    13   6    -0.02   0.07  -0.02    -0.01   0.02  -0.01     0.07  -0.05  -0.06
    14   8     0.02  -0.01   0.01     0.00  -0.00  -0.00     0.02   0.03   0.01
    15   1     0.03  -0.14   0.06     0.04  -0.13   0.06     0.09  -0.57   0.26
    16   1     0.02  -0.05  -0.03     0.01   0.00  -0.03     0.13   0.05  -0.21
    17   6    -0.02  -0.00   0.02    -0.03  -0.01   0.04    -0.18  -0.06   0.23
    18   8    -0.00   0.01  -0.00    -0.00   0.01  -0.01    -0.01   0.05  -0.05
    19   7     0.06  -0.05  -0.05    -0.06  -0.00   0.05     0.00   0.01  -0.00
    20   1     0.06  -0.13  -0.05    -0.06  -0.00   0.05    -0.02   0.05  -0.04
    21   1    -0.28  -0.12   0.26     0.10   0.01  -0.10     0.04   0.03  -0.02
    22  35     0.00  -0.00  -0.00     0.00  -0.00  -0.00     0.00   0.00  -0.00
    23   1     0.11  -0.14  -0.07     0.26  -0.54  -0.13    -0.06   0.11   0.03
    24   1    -0.18  -0.20   0.19     0.29   0.57  -0.33    -0.15  -0.21   0.15
                     37                     38                     39
                      A                      A                      A
 Frequencies --   1125.9791              1133.9553              1152.1039
 Red. masses --      1.8672                 1.5867                 1.3920
 Frc consts  --      1.3948                 1.2021                 1.0886
 IR Inten    --     16.2478                44.2273                32.2970
  Atom  AN      X      Y      Z        X      Y      Z        X      Y      Z
     1   6     0.06  -0.10  -0.04     0.02   0.06  -0.02    -0.03  -0.07   0.03
     2   6    -0.00  -0.00   0.00    -0.02  -0.04   0.04    -0.01  -0.02   0.02
     3   6    -0.02  -0.07   0.04     0.04  -0.03  -0.02    -0.00  -0.00   0.01
     4   6    -0.00   0.00   0.00     0.01   0.02   0.00     0.00   0.01   0.00
     5   6    -0.09  -0.02   0.09    -0.00   0.03  -0.00    -0.00  -0.03   0.01
     6   6    -0.10   0.05   0.07    -0.04   0.02   0.03     0.03  -0.03  -0.02
     7   6     0.02   0.05  -0.02     0.00  -0.03  -0.07     0.02  -0.03  -0.05
     8   1     0.08   0.19   0.01     0.15   0.30   0.02     0.07   0.17  -0.04
     9   1     0.07   0.16   0.01    -0.06  -0.10  -0.04    -0.06  -0.10  -0.00
    10   6    -0.01  -0.02  -0.01     0.03  -0.04   0.05     0.01  -0.02   0.04
    11   1     0.00  -0.03  -0.02     0.01  -0.09  -0.08     0.03  -0.06  -0.04
    12   1    -0.01   0.01  -0.03     0.42   0.12   0.50     0.24   0.09   0.30
    13   6    -0.00   0.01  -0.01    -0.07   0.12  -0.05    -0.04   0.07  -0.03
    14   8     0.00  -0.00   0.00    -0.01  -0.03   0.00    -0.00  -0.01   0.00
    15   1    -0.01   0.00  -0.00    -0.00  -0.14   0.01     0.00  -0.09   0.01
    16   1     0.02  -0.02  -0.00    -0.00  -0.07   0.01     0.01  -0.05  -0.00
    17   6     0.00   0.00  -0.01     0.02   0.01  -0.03     0.01   0.01  -0.01
    18   8    -0.00  -0.00   0.00    -0.00  -0.00   0.01    -0.00  -0.00   0.00
    19   7     0.09  -0.01  -0.08    -0.03  -0.04   0.03     0.01   0.09  -0.02
    20   1     0.09   0.26  -0.13    -0.02  -0.27   0.08     0.00   0.59  -0.12
    21   1     0.37   0.02  -0.33     0.26   0.18  -0.28    -0.39  -0.24   0.39
    22  35    -0.00  -0.00   0.00    -0.00  -0.00   0.00    -0.00  -0.00   0.00
    23   1    -0.36   0.43   0.24     0.04  -0.05  -0.03    -0.03   0.01   0.02
    24   1     0.08   0.35  -0.12    -0.16  -0.17   0.16     0.09   0.06  -0.09
                     40                     41                     42
                      A                      A                      A
 Frequencies --   1197.0815              1251.2903              1270.6352
 Red. masses --      1.6649                 1.1728                 1.3208
 Frc consts  --      1.4057                 1.0819                 1.2564
 IR Inten    --     39.7175                23.2994                10.0825
  Atom  AN      X      Y      Z        X      Y      Z        X      Y      Z
     1   6     0.01   0.01  -0.01    -0.01   0.00   0.00    -0.00   0.00   0.00
     2   6     0.01  -0.02  -0.00     0.03  -0.02  -0.02    -0.02  -0.00   0.02
     3   6    -0.01   0.03   0.05     0.01  -0.03  -0.02    -0.02  -0.01  -0.01
     4   6    -0.02   0.01   0.04    -0.01   0.03  -0.00    -0.01  -0.00   0.00
     5   6     0.01  -0.00  -0.01    -0.00   0.01  -0.00     0.00   0.00  -0.00
     6   6     0.01  -0.02  -0.02     0.00  -0.00   0.00     0.01  -0.00   0.00
     7   6    -0.01  -0.04  -0.05    -0.01   0.02   0.03     0.00   0.04   0.05
     8   1    -0.21  -0.45  -0.18     0.09   0.15   0.12     0.03   0.04   0.09
     9   1     0.22   0.53   0.14    -0.08  -0.18  -0.06    -0.13  -0.30  -0.06
    10   6    -0.01  -0.01   0.12     0.02  -0.03  -0.03    -0.03  -0.06  -0.04
    11   1     0.20  -0.11   0.08     0.15   0.04   0.23     0.51  -0.01   0.54
    12   1    -0.13   0.15  -0.11    -0.04  -0.09  -0.09    -0.16  -0.09  -0.20
    13   6    -0.02   0.10  -0.15    -0.03   0.04   0.01    -0.01   0.06  -0.09
    14   8     0.01  -0.01   0.02     0.00  -0.01  -0.00     0.04   0.01   0.02
    15   1    -0.07  -0.05  -0.01    -0.11   0.48  -0.18     0.06  -0.40   0.15
    16   1     0.24  -0.23  -0.13     0.52  -0.43  -0.23    -0.16   0.10   0.07
    17   6    -0.02  -0.01   0.02    -0.04  -0.02   0.05     0.02   0.01  -0.03
    18   8     0.00   0.00  -0.00     0.00   0.00  -0.00    -0.00  -0.00   0.00
    19   7     0.01  -0.02  -0.01    -0.01   0.00   0.01    -0.00  -0.00   0.00
    20   1     0.01  -0.17   0.02    -0.02   0.10  -0.01    -0.00  -0.01   0.00
    21   1    -0.04  -0.01   0.02     0.03   0.02  -0.02     0.01   0.01   0.00
    22  35     0.00  -0.00   0.00     0.00   0.00  -0.00    -0.00  -0.00   0.00
    23   1    -0.03   0.07   0.01     0.03  -0.05  -0.02     0.00   0.01  -0.00
    24   1     0.09   0.09  -0.07    -0.02  -0.04   0.02     0.00   0.01  -0.02
                     43                     44                     45
                      A                      A                      A
 Frequencies --   1282.4342              1299.4924              1359.3342
 Red. masses --      2.5094                 1.4238                 1.5112
 Frc consts  --      2.4316                 1.4166                 1.6452
 IR Inten    --      5.9817                 2.5930                 5.7182
  Atom  AN      X      Y      Z        X      Y      Z        X      Y      Z
     1   6    -0.03  -0.12   0.05    -0.04  -0.03   0.04     0.02   0.01  -0.01
     2   6    -0.00  -0.00   0.00    -0.00   0.00   0.00    -0.02   0.00   0.01
     3   6     0.02   0.19  -0.06     0.08  -0.07  -0.04    -0.01   0.02  -0.00
     4   6    -0.00   0.01  -0.00    -0.00  -0.00   0.01     0.00   0.02   0.00
     5   6    -0.06  -0.12   0.07    -0.05   0.05   0.03     0.02  -0.04  -0.01
     6   6     0.01   0.18  -0.03     0.03   0.05  -0.03    -0.02   0.00   0.02
     7   6     0.01  -0.01   0.04    -0.06  -0.03  -0.00    -0.04   0.01  -0.03
     8   1    -0.20  -0.46  -0.08     0.04   0.04   0.10     0.18   0.23   0.17
     9   1    -0.19  -0.41  -0.04     0.15   0.29  -0.01    -0.19  -0.33  -0.14
    10   6    -0.01  -0.02   0.03     0.04   0.02   0.04     0.13   0.00   0.14
    11   1    -0.00  -0.07  -0.07     0.00   0.01  -0.03    -0.19  -0.11  -0.39
    12   1     0.08   0.03   0.13    -0.20  -0.08  -0.25    -0.36  -0.17  -0.46
    13   6    -0.01   0.02  -0.01     0.00   0.00  -0.03    -0.00   0.02  -0.05
    14   8    -0.00  -0.01   0.00    -0.00   0.00   0.00    -0.02  -0.01   0.00
    15   1    -0.01   0.03  -0.01     0.01  -0.10   0.03     0.02  -0.15   0.04
    16   1     0.08  -0.07  -0.03    -0.07   0.05   0.02     0.05  -0.06  -0.03
    17   6    -0.00  -0.00   0.00     0.01   0.00  -0.01     0.00   0.00  -0.00
    18   8     0.00  -0.00  -0.00    -0.00  -0.00   0.00     0.00  -0.00   0.00
    19   7     0.09   0.03  -0.08    -0.01   0.01   0.01    -0.00   0.01   0.00
    20   1     0.09  -0.20  -0.06    -0.01   0.54  -0.07     0.00  -0.17   0.03
    21   1     0.12  -0.08  -0.09     0.22   0.08  -0.21    -0.09  -0.04   0.09
    22  35    -0.00  -0.00  -0.00    -0.00  -0.00   0.00    -0.00  -0.00   0.00
    23   1    -0.04  -0.20   0.07     0.16  -0.34  -0.08    -0.07   0.12   0.04
    24   1    -0.30  -0.26   0.28    -0.19  -0.30   0.21     0.03   0.09  -0.03
                     46                     47                     48
                      A                      A                      A
 Frequencies --   1383.9543              1399.8981              1444.4313
 Red. masses --      1.6630                 1.6929                 1.0918
 Frc consts  --      1.8767                 1.9547                 1.3421
 IR Inten    --     14.1167                38.5638                13.4968
  Atom  AN      X      Y      Z        X      Y      Z        X      Y      Z
     1   6    -0.00   0.00  -0.00     0.00   0.00  -0.00    -0.00  -0.00   0.00
     2   6    -0.04   0.01   0.02     0.12  -0.06  -0.07    -0.01   0.01   0.00
     3   6    -0.00  -0.06  -0.01    -0.00  -0.01  -0.01    -0.00   0.00  -0.00
     4   6     0.01   0.03  -0.02    -0.03  -0.10   0.09     0.00   0.00  -0.00
     5   6    -0.02   0.10  -0.00    -0.00   0.02  -0.00     0.00  -0.00   0.00
     6   6    -0.01  -0.08   0.02    -0.01  -0.02   0.01     0.00   0.00  -0.00
     7   6     0.07   0.16   0.02     0.01   0.05   0.00    -0.00  -0.00  -0.01
     8   1    -0.32  -0.47  -0.28    -0.06  -0.13  -0.03     0.07  -0.02   0.08
     9   1    -0.06  -0.36  -0.28    -0.07  -0.18  -0.09    -0.06  -0.02   0.08
    10   6    -0.00  -0.04   0.04     0.03  -0.04   0.04     0.04  -0.07  -0.01
    11   1    -0.17  -0.10  -0.24    -0.05  -0.04  -0.01    -0.50   0.32   0.37
    12   1     0.04   0.08   0.05    -0.01   0.06  -0.06     0.06   0.64  -0.23
    13   6     0.01  -0.00   0.00    -0.03   0.08  -0.05     0.01  -0.00  -0.01
    14   8    -0.01  -0.01  -0.00     0.01  -0.01   0.01    -0.00  -0.00  -0.00
    15   1     0.06  -0.19   0.06    -0.19   0.57  -0.19     0.02  -0.07   0.03
    16   1     0.15  -0.14  -0.06    -0.49   0.43   0.17     0.02  -0.02  -0.01
    17   6     0.00   0.00  -0.01    -0.01   0.00   0.02     0.00   0.00  -0.00
    18   8     0.00  -0.01   0.00    -0.02   0.02  -0.01     0.00  -0.00   0.00
    19   7    -0.01  -0.04   0.01    -0.00  -0.01   0.00     0.00   0.00  -0.00
    20   1    -0.02   0.26  -0.04    -0.01   0.05  -0.01     0.00  -0.01   0.00
    21   1     0.11   0.06  -0.10     0.02   0.01  -0.02     0.00  -0.00  -0.00
    22  35    -0.00  -0.00   0.00     0.00  -0.00  -0.00    -0.00   0.00   0.00
    23   1     0.10  -0.10  -0.07     0.02  -0.01  -0.01     0.00  -0.00   0.00
    24   1     0.06   0.03  -0.07     0.02   0.02  -0.02    -0.02  -0.02   0.00
                     49                     50                     51
                      A                      A                      A
 Frequencies --   1464.7668              1485.6067              1515.5048
 Red. masses --      1.2702                 2.5726                 3.5956
 Frc consts  --      1.6056                 3.3453                 4.8657
 IR Inten    --      8.1248                10.3351                 7.5536
  Atom  AN      X      Y      Z        X      Y      Z        X      Y      Z
     1   6    -0.01  -0.05   0.02    -0.02  -0.17   0.05     0.12   0.00  -0.10
     2   6    -0.00   0.00   0.00     0.00  -0.00  -0.00     0.00  -0.00   0.00
     3   6    -0.01   0.02  -0.00     0.05   0.06  -0.05     0.25  -0.17  -0.19
     4   6     0.00   0.00  -0.00    -0.00   0.00   0.00    -0.00   0.01  -0.00
     5   6    -0.02   0.08   0.00    -0.04   0.17   0.01    -0.02  -0.07   0.03
     6   6    -0.01  -0.06   0.02    -0.06  -0.14   0.07    -0.12   0.05   0.10
     7   6     0.01   0.02  -0.08    -0.02  -0.08   0.05    -0.02   0.05   0.02
[...]
 0.00642271,0.01639360,-0.00836786,0.00026689,-0.00030337,0.00012971,0.
 00023846,0.00042310,-0.00055921,-0.00012606,-0.00000745,0.00009586,0.0
 0000704,0.00000303,-0.00005426,-0.00000933,-0.00005822,-0.00005015,-0.
 00018752,-0.00052862,-0.00053533,0.00011937,-0.00000241,-0.00003217,0.
 00007020,-0.00007875,0.00005025,0.00172127,0.00060162,0.00759244,0.002
 13882,0.00255894,-0.00198565,-0.00201228,-0.00125690,-0.00469116,0.072
 89698,-0.00022502,0.00001946,-0.00015535,-0.05918419,-0.18959521,0.139
 01759,-0.00045676,-0.00009406,-0.00007782,-0.00716507,-0.01707240,0.01
 751984,0.00004836,-0.00010918,-0.00006827,0.00006497,0.00009121,-0.000
 25164,-0.00003355,-0.00016446,-0.00006842,0.00000459,0.00003039,0.0000
 2477,0.00002343,0.00006467,0.00004172,-0.00069891,-0.00132318,0.000418
 16,0.00030373,-0.00019807,0.00026179,0.00002779,-0.00001021,-0.0000136
 6,0.00660793,0.00143382,0.00283796,-0.00085708,0.00042881,-0.00104846,
 -0.00211062,-0.00111773,-0.00236106,0.05557639,0.20211924,0.00022324,-
 0.00024284,-0.00005122,0.06430513,0.14124877,-0.16748612,-0.00062181,-
 0.00002320,-0.00021152,0.00036239,-0.00133232,0.00580239,0.00009223,0.
 00001838,0.00037777,0.00002648,0.00018738,-0.00039814,-0.00004683,-0.0
 0002287,-0.00011970,-0.00000066,0.00000549,0.00004219,-0.00002383,-0.0
 0003943,0.00001634,-0.00050242,-0.00126625,-0.00009894,0.00028760,-0.0
 0017873,0.00014522,0.00006321,-0.00004401,0.00004063,0.00491292,-0.000
 21487,0.00764042,0.00094084,0.00192513,-0.00168699,-0.00320359,-0.0027
 9074,-0.00351672,-0.07451919,-0.14740681,0.16985130,-0.00017656,-0.000
 07247,-0.00009864,-0.16401681,0.00994329,0.07501982,0.00447212,0.00164
 646,0.00068195,-0.02110031,0.01769340,-0.00043281,-0.00024545,-0.00003
 923,0.00049390,-0.00025023,-0.00074297,0.00363335,0.00022637,0.0004604
 3,-0.00128624,-0.00000558,-0.00005456,0.00044589,-0.00004407,-0.000007
 49,0.00025517,-0.00101876,-0.00080287,0.00034079,0.00027916,-0.0002277
 3,0.00044242,-0.00005786,0.00021714,0.00005141,-0.00054041,0.00448968,
 -0.00854430,-0.00313415,-0.00477256,0.00371921,0.00540709,0.00444766,0
 .00645873,-0.00612154,0.00706598,0.00824040,0.60529019,0.00073713,0.00
 048979,0.00006440,0.02726355,-0.08307646,-0.01685659,0.00050542,-0.001
 13552,-0.00075822,0.02901451,-0.01083511,-0.01592064,-0.00040851,0.000
 22434,0.00067445,-0.00034427,-0.00039367,0.00006359,0.00046528,0.00005
 829,-0.00065374,0.00011050,-0.00023509,0.00061129,-0.00034829,-0.00007
 038,0.00014716,0.00021422,-0.00017200,0.00015747,-0.00009299,-0.000035
 51,-0.00009592,-0.00023263,0.00013509,0.00004117,0.00230020,0.00103310
 ,-0.00440086,-0.00330735,0.00019205,0.00150179,0.00416597,-0.00239416,
 0.00464869,-0.01505192,0.00475036,0.01018479,-0.40920209,0.62227659,-0
 .00122996,-0.00208182,0.00177178,0.06859768,-0.00626052,-0.12200342,-0
 .00499836,0.00066854,0.00028473,0.00468415,-0.00536527,0.00588788,0.00
 113483,-0.00022702,-0.00133591,0.00077435,0.00086538,-0.00356343,-0.00
 034986,-0.00029590,0.00230684,-0.00018102,0.00011731,-0.00135376,0.000
 40736,-0.00018756,-0.00050664,0.00114618,0.00309031,0.00031746,-0.0008
 3294,0.00062541,-0.00062267,0.00011776,-0.00010885,-0.00037084,-0.0109
 5600,-0.00950143,0.00409628,0.00524964,0.00300557,-0.00404542,0.002812
 21,0.00440806,0.00581152,0.01663908,-0.00580206,-0.00908937,0.01062675
 ,-0.12968379,0.29219614,-0.00008671,0.00002823,0.00012881,-0.03440672,
 0.05492884,-0.00061220,-0.00161368,-0.00057125,-0.00024578,0.00146826,
 -0.00448599,0.00574578,0.00008635,-0.00011901,-0.00010252,0.00016728,0
 .00031249,-0.00132681,0.00009265,-0.00010576,0.00026351,0.00009515,-0.
 00003945,0.00002950,-0.00009173,-0.00001140,-0.00003712,0.00032075,0.0
 0048009,-0.00002830,-0.00011657,0.00007666,-0.00022628,-0.00000486,-0.
 00004760,-0.00002278,-0.00090531,-0.00334147,0.00165418,0.00118792,0.0
 0190275,-0.00057538,-0.00121302,0.00090430,-0.00079731,0.00102217,-0.0
 0039493,-0.00294898,-0.38171087,0.36509748,-0.10549878,0.40152889,-0.0
 0027457,-0.00024037,-0.00009979,0.04149278,-0.02067181,0.00282595,0.00
 089902,0.00070977,0.00042536,-0.00331271,0.00748666,-0.00205725,0.0000
 9336,0.00003322,-0.00027663,-0.00002732,-0.00009544,0.00077133,-0.0003
 0791,0.00004424,0.00033914,-0.00018302,0.00013799,-0.00045891,0.000247
 37,0.00002806,-0.00010883,-0.00015786,-0.00017260,-0.00020716,0.000071
 09,0.00001927,0.00015206,0.00008529,-0.00004147,-0.00000941,0.00013500
 ,0.00199067,0.00090915,0.00007551,-0.00086996,-0.00030405,-0.00076941,
 -0.00104182,-0.00148512,0.00071770,0.00045059,-0.00026448,0.38220450,-
 0.51181256,0.14402748,-0.42755399,0.55174831,0.00030022,0.00046870,-0.
 00031870,0.01343592,-0.00893743,0.01896885,0.00092332,-0.00021236,-0.0
 0014585,0.00230582,-0.00168875,0.00045539,-0.00027310,0.00002271,0.000
 37904,-0.00013657,-0.00017918,0.00064337,0.00017671,0.00008162,-0.0007
 9697,0.00013895,-0.00004833,0.00055057,-0.00018670,0.00004816,0.000195
 32,-0.00014796,-0.00069146,-0.00001134,0.00018127,-0.00018681,0.000114
 42,-0.00005718,0.00003517,0.00012687,0.00249592,0.00255339,-0.00223857
 ,-0.00156303,-0.00095191,0.00132187,-0.00064125,-0.00106631,-0.0011756
 0,-0.00141139,-0.00133668,0.00066108,-0.13100282,0.16733180,-0.1245864
 6,0.12640697,-0.19553914,0.13863600,-0.13351081,-0.07186131,0.07703433
 ,-0.00010927,-0.00301687,-0.00236446,-0.13645791,0.09075452,0.05394048
 ,-0.00242100,0.00072223,-0.00284925,-0.04222693,0.00655910,0.04790125,
 -0.04235203,0.00695231,0.04799283,0.00673274,-0.00998901,-0.00615012,0
 .00130814,-0.00037417,-0.00096016,-0.00012272,-0.00088862,0.00003551,-
 0.00122042,-0.00313614,0.00056150,-0.00044818,-0.00059765,-0.00054293,
 0.00005597,-0.00009568,0.00000281,0.00070786,0.00075835,0.00028437,-0.
 00036372,-0.00024772,-0.00003423,-0.00020691,-0.00023890,-0.00032762,0
 .00016247,0.00012049,0.00022155,0.00080073,-0.00149204,0.00277476,-0.0
 0034874,0.00077630,-0.00071337,0.64874781,-0.07283343,-0.25137907,0.09
 550398,0.00206380,0.00036933,0.00191103,0.08394062,-0.28918474,-0.0478
 1064,0.00065335,-0.00228143,-0.00297178,-0.02535629,-0.00439949,0.0272
 8619,0.03908831,-0.01318630,-0.03409763,0.01150065,-0.02800973,-0.0066
 0248,0.00121585,0.00224376,-0.00162256,-0.00001853,-0.00040117,-0.0012
 6701,0.00193522,-0.00087123,0.00119111,-0.00021027,0.00019599,0.000003
 26,-0.00019554,-0.00000883,-0.00019987,-0.00017625,0.00086733,-0.00072
 047,0.00006336,-0.00025415,0.00032665,-0.00012990,-0.00032910,0.000095
 06,-0.00018723,-0.00010229,0.00008545,-0.00023238,0.00054839,0.0010048
 7,0.00012918,-0.00020280,-0.00014941,-0.05505913,0.67873165,0.07472052
 ,0.09188721,-0.13633799,-0.00097152,-0.00222091,-0.00183316,0.05120530
 ,-0.04515819,-0.09338214,-0.00147711,-0.00002922,-0.00242736,0.0521149
 6,-0.00332770,-0.03238936,0.04053749,-0.00135588,-0.02332874,-0.007349
 01,0.01266188,0.00341091,-0.00115970,-0.00029683,0.00138330,0.00017999
 ,0.00285129,-0.00103953,-0.00107973,-0.00034593,-0.00106989,-0.0000808
 9,-0.00005288,0.00024363,0.00007927,0.00029724,0.00032295,0.00048416,0
 .00042456,0.00019932,-0.00024088,-0.00013120,-0.00006514,0.00019206,0.
 00015055,0.00014977,0.00025679,0.00009013,0.00012372,0.00042556,-0.000
 05911,-0.00070194,-0.00006827,0.00003625,0.00023972,-0.43243604,-0.036
 83814,0.45408707,-0.00579238,0.00291476,-0.00023720,-0.00052386,0.0003
 7819,0.00052211,-0.00758225,-0.00274464,0.00217575,0.00037215,-0.00034
 273,0.00038985,0.00172073,-0.00177920,0.00038017,0.00145830,0.00224067
 ,-0.00026163,-0.00031657,-0.00047850,-0.00168686,0.00030779,0.00031395
 ,0.00016868,-0.00004130,0.00003890,0.00007636,0.00006764,-0.00021648,0
 .00013097,-0.00006419,-0.00010020,-0.00014233,-0.00002095,-0.00000874,
 -0.00005962,0.00064004,-0.00046090,0.00024011,-0.00040781,0.00022866,-
 0.00007002,-0.00003109,0.00005929,0.00003880,-0.00013665,0.00001979,0.
 00009614,0.00061836,0.00177101,-0.00377389,0.00020731,-0.00098089,0.00
 112164,-0.29891735,0.03204852,0.22060392,0.30832932,-0.02005679,0.0124
 3758,0.01241639,-0.00004384,0.00003954,0.00012529,0.02090157,0.0079164
 9,-0.01762683,0.00015491,-0.00006254,0.00006855,-0.00281709,-0.0047681
 6,0.00364237,0.00305776,-0.00622172,-0.00159810,0.00063506,0.00133599,
 -0.00143128,-0.00087949,-0.00106855,0.00099907,-0.00024346,0.00032535,
 0.00022398,-0.00026112,-0.00009992,0.00015188,0.00002071,0.00000528,0.
 00002009,0.00003524,0.00013729,0.00020034,-0.00020447,-0.00004521,-0.0
 0031688,0.00017373,0.00004006,0.00011608,-0.00000255,-0.00001070,0.000
 03536,-0.00004809,0.00000958,0.00005037,-0.00000157,0.00131638,-0.0010
 5626,0.00026526,-0.00085514,0.00043516,0.03141391,-0.07565666,-0.01310
 405,-0.03273708,0.06406408,0.00535422,-0.00526190,-0.00887502,0.000125
 35,0.00058854,0.00001284,-0.00017372,0.00054585,-0.00541331,0.00026110
 ,-0.00018625,0.00008462,0.00077345,0.00356512,0.00136079,0.00038316,-0
 .00164417,0.00256942,-0.00227668,-0.00000343,-0.00103660,0.00030788,-0
 .00003309,0.00023896,0.00002422,0.00054421,0.00003626,0.00024592,-0.00
 018326,-0.00005609,-0.00000500,0.00004087,-0.00003699,-0.00004037,-0.0
 0004302,-0.00007579,-0.00008661,-0.00080012,0.00023591,0.00015532,0.00
 033480,-0.00010469,-0.00004931,0.,-0.00002595,-0.00003858,-0.00000068,
 -0.00005936,-0.00129372,0.00021754,-0.00108476,0.00029873,-0.00020798,
 0.00008555,0.21676282,-0.01403934,-0.17235495,-0.22218242,0.01660108,0
 .18273879,-0.07491089,0.09583698,0.03085734,-0.00012670,0.00000993,0.0
 0003084,-0.00107710,-0.00169612,0.00297988,-0.00002463,0.00003625,-0.0
 0001597,0.00305984,0.01737849,-0.00295631,-0.00147164,0.00155992,0.004
 84297,0.00151005,-0.00044335,0.00112202,-0.00000571,0.00004905,-0.0000
 6843,-0.00024842,-0.00049067,0.00017842,0.00012355,0.00037733,-0.00013
 712,0.00003157,0.00004943,0.00002150,0.00000308,-0.00004842,-0.0000422
 9,0.00003548,-0.00010223,0.00006242,0.00000967,0.00007117,-0.00003065,
 -0.00001298,0.00000413,-0.00001196,0.00001296,0.00000674,-0.00007522,0
 .00003386,-0.00032548,-0.00000966,-0.00001327,0.00020504,-0.00000587,0
 .00626421,-0.01776043,-0.00539537,-0.00041956,0.00037072,-0.00140991,0
 .06755176,0.08950589,-0.32767265,-0.03395481,-0.00006814,0.00009042,0.
 00010513,-0.00293818,0.00022652,0.00260251,0.00005759,0.00000017,-0.00
 000724,-0.00170188,-0.00016378,0.00173090,0.00119282,0.00050350,-0.000
 52896,0.00070816,-0.00021435,-0.00004968,-0.00000185,0.00004489,-0.000
 03390,-0.00006948,-0.00021636,0.00002760,0.00002603,0.00000568,0.00005
 720,-0.00002991,-0.00000907,-0.00004321,0.00000807,0.00000493,-0.00001
 953,0.00010292,-0.00008902,0.00011647,-0.00005168,0.00004519,-0.000052
 32,0.00000224,0.00000452,0.00001066,-0.00000372,-0.00001142,-0.0000791
 8,0.00003211,-0.00028533,-0.00001165,-0.00004531,0.00017218,-0.0000143
 4,0.00839797,-0.01572047,-0.00563595,0.00004065,0.00007335,-0.00024794
 ,-0.09519766,0.34324092,0.03198224,-0.04144650,-0.04662868,-0.00014505
 ,0.00006434,0.00014504,0.00394958,0.00112234,-0.00152803,0.00008641,0.
 00002478,-0.00001055,-0.00075690,-0.01346491,0.00478938,0.00441493,-0.
 00141008,0.00098932,0.00067954,0.00045967,0.00185797,-0.00005458,-0.00
 006303,-0.00000206,-0.00021646,-0.00026625,0.00013108,0.00019653,0.000
 59443,-0.00033015,0.00005791,0.00010978,0.00011449,0.00000202,-0.00001
 112,-0.00001354,-0.00004974,-0.00005384,0.00001319,0.00005786,0.000044
 17,-0.00002376,0.00000206,0.00000054,0.00002711,0.00001261,-0.00001954
 ,-0.00011073,-0.00001175,-0.00035033,0.00014301,-0.00002288,0.00020947
 ,-0.00007411,-0.00920359,0.01902551,0.00260329,-0.00114137,-0.00062644
 ,-0.00092878,-0.02807726,0.03643134,0.03975786,0.00017005,0.00061845,-
 0.00059687,0.00040876,-0.00514843,0.01545016,-0.00014067,-0.00040688,-
 0.00026132,-0.00104642,-0.00077050,0.00189908,-0.00033219,0.00032452,0
 .00019989,-0.00034682,-0.00019967,0.00002604,-0.00089589,0.00055593,-0
 .00044204,-0.00186172,0.00065527,-0.00026119,-0.00016900,0.00004606,0.
 00012400,0.00011263,-0.00009534,-0.00007500,-0.00000048,0.00005674,-0.
 00001133,0.00000898,-0.00003513,-0.00005145,0.00018682,-0.00022190,0.0
 0098520,0.00001594,0.00227899,0.00117515,-0.00028313,-0.00016370,-0.00
 046522,-0.00118418,0.00124838,0.00215620,-0.03855119,-0.00065762,0.012
 44391,0.01427646,0.00649268,-0.01122304,-0.00387919,-0.00176526,-0.000
 26047,-0.00136770,-0.00009864,0.00052777,0.00000987,-0.00001847,-0.000
 02004,0.03478713,0.00000784,0.00003102,-0.00007090,0.00115907,0.006045
 45,0.00413650,-0.00099415,-0.00025297,0.00008246,0.00004552,-0.0006371
 8,0.00108488,0.00002773,0.00016400,-0.00014139,-0.00010933,0.00011354,
 -0.00058863,0.00038317,-0.00036556,0.00068316,0.00088520,-0.00016735,-
 0.00019992,0.00024177,0.00001987,-0.00017161,0.00022746,0.00069205,0.0
 0000408,-0.00015276,0.00015563,-0.00010144,0.00007685,-0.00005213,0.00
 000843,-0.00220829,-0.00368567,0.00093714,0.00446791,-0.00178428,-0.00
 404575,-0.00071232,0.00015112,-0.00092652,0.00027546,0.00039670,0.0002
 4089,-0.01209442,-0.02055249,0.00283986,0.01261755,-0.02685494,0.04001
 684,-0.00110129,-0.00019421,-0.00008087,-0.00045990,-0.00043152,0.0000
 3576,0.00005747,0.00002706,0.00003027,-0.00273631,0.04717363,0.0004222
 0,0.00094867,-0.00062840,0.00591559,0.01294764,-0.01743772,0.00201884,
 -0.00055061,-0.00034058,-0.00019128,0.00111628,-0.00270009,-0.00046361
 ,-0.00003397,0.00073587,-0.00031227,-0.00024260,0.00152400,0.00000442,
 0.00028641,-0.00129309,-0.00029200,0.00004086,0.00081767,-0.00029233,0
 .00008662,0.00032650,-0.00032392,-0.00087711,-0.00000576,0.00024450,-0
 .00022086,0.00019066,-0.00007416,0.00010035,0.00016385,0.00204655,0.00
 194431,-0.00348926,-0.00001266,-0.00408886,0.00018262,0.00037847,-0.00
 061033,0.00044443,0.00284582,-0.00164095,-0.00188406,0.03219278,-0.016
 91078,-0.04366819,-0.02216158,0.05141614,-0.03300853,-0.00177697,-0.00
 033567,0.00052811,0.00164367,0.00053838,0.00026164,-0.00003693,-0.0000
 4293,-0.00012307,-0.02151982,-0.04389605,0.09945167,-0.00463462,-0.014
 28326,0.00595390,0.00002012,0.00003103,0.00005990,0.00124994,0.0017689
 4,0.00186799,0.00010005,0.00004222,0.00002354,-0.16040504,-0.09316218,
 0.12501944,0.00421270,0.00310083,-0.00416526,0.00068602,0.00000195,0.0
 0031106,0.00005513,0.00006036,-0.00007820,-0.00007483,-0.00009293,0.00
 005906,0.00005270,0.00004071,-0.00007025,-0.00001513,0.00000359,0.0000
 0566,-0.00001190,-0.00000861,-0.00000566,0.00006528,-0.00004407,0.0000
 4280,-0.00002753,0.00001579,-0.00002529,0.00000073,-0.00005598,0.00001
 193,-0.00007144,-0.00000488,-0.00003498,0.00007202,-0.00010719,0.00014
 423,-0.00003359,0.00009464,-0.00005849,-0.00089743,0.00159822,0.004745
 59,0.00095941,-0.00052252,0.00122864,-0.00106033,-0.00001743,-0.002110
 57,0.00002276,0.00003192,-0.00010222,0.16084198,0.00767808,0.01133938,
 -0.00832866,-0.00008490,0.00010366,0.00002477,0.00089492,-0.00603968,0
 .00048459,0.00012168,0.00000713,0.00009098,-0.09487475,-0.13892898,0.0
 9694683,-0.01818570,-0.00258691,0.01556842,-0.00087602,0.00066488,0.00
 089592,-0.00019193,-0.00044539,0.00016431,0.00001303,-0.00002396,-0.00
 000213,0.00000391,0.00010527,0.00007981,-0.00002566,-0.00003557,-0.000
 03781,0.00003458,0.00004223,-0.00002033,0.00019737,-0.00008578,0.00009
 428,-0.00010631,0.00000776,-0.00005320,-0.00002287,-0.00003752,0.00002
 210,-0.00004698,0.00001240,-0.00000753,0.00010725,-0.00002364,-0.00006
 225,-0.00004832,0.00004264,-0.00000387,0.00349379,-0.00078169,-0.00205
 231,0.00027787,0.00085489,-0.00012891,-0.00099497,-0.00007919,0.000306
 70,0.00003047,0.00000432,0.00001692,0.10221982,0.13469890,0.00318448,0
 .01059305,-0.00427224,0.00006405,-0.00000587,-0.00001601,0.00155222,0.
 00020652,0.00252463,-0.00000699,0.00005354,0.00000584,0.12485871,0.095
 02608,-0.14887575,-0.00062490,-0.00180390,0.00083490,0.00046214,-0.000
 02524,0.00061545,-0.00001950,0.00003061,-0.00001304,-0.00007760,-0.000
 02710,0.00006678,0.00006663,0.00008937,-0.00012333,0.00000770,0.000029
 12,0.00002757,-0.00001146,-0.00002874,-0.00000139,-0.00004531,-0.00008
 437,0.00001459,0.00003968,0.00004162,-0.00000623,-0.00000068,-0.000032
 09,-0.00001049,-0.00004152,0.00001052,-0.00002298,-0.00009864,0.000065
 37,-0.00000236,0.00005319,-0.00005496,0.00000323,0.00470746,-0.0013411
 7,0.00149266,0.00090498,0.00082135,0.00112106,-0.00206270,-0.00048954,
 -0.00178217,0.00009761,0.00003058,0.00001030,-0.13175374,-0.10315004,0
 .14983859,0.00146730,-0.00109349,0.00206651,0.00017311,-0.00014187,-0.
 00022705,-0.00462543,0.01488724,0.00105960,0.00006958,0.00022485,0.000
 38105,0.00397544,-0.00383070,-0.00303508,-0.15779737,0.12372536,0.0925
 4533,-0.00077301,0.00024338,-0.00144315,-0.00000517,0.00000039,-0.0000
 9167,-0.00015858,0.00013950,-0.00000148,-0.00008547,-0.00005252,0.0001
 2796,0.00019941,-0.00009048,-0.00019579,-0.00038614,-0.00064198,-0.000
 14506,-0.00026650,-0.00006045,-0.00011686,0.00017764,0.00007389,0.0001
 2553,-0.00013278,0.00007669,-0.00019783,0.00004834,0.00001244,0.000049
 16,-0.00022612,-0.00007488,0.00027758,0.00009188,-0.00002261,-0.000065
 96,-0.00129731,-0.00031244,0.00497338,0.00094063,0.00088782,0.00110774
 ,0.00072534,0.00006923,0.00036850,0.00005916,0.00006384,-0.00015310,-0
 .00110701,0.00038566,-0.00125580,0.15893304,-0.00019691,-0.00576253,0.
 00152711,-0.00000865,-0.00002794,0.00002681,-0.00610464,0.00916431,0.0
 0381672,-0.00004168,-0.00000465,-0.00004897,0.01726343,-0.00605254,-0.
 01382360,0.12492620,-0.19126985,-0.08213285,0.00031925,-0.00018445,-0.
 00068626,0.00008016,0.00011514,-0.00005609,0.00008849,0.00008738,-0.00
 001585,-0.00012474,-0.00003941,-0.00002677,0.00006563,0.00000445,0.000
 00372,-0.00032987,-0.00028736,0.00002728,-0.00007551,0.00005704,-0.000
 04986,0.00006972,-0.00000767,0.00003167,0.00009849,0.00001070,0.000046
 27,0.00000278,-0.00000901,-0.00003337,-0.00005757,-0.00000245,-0.00000
 844,0.00002166,-0.00000470,0.00001243,-0.00185045,0.00000689,0.0022900
 5,-0.00002301,0.00066426,0.00030629,0.00104666,0.00002232,-0.00071128,
 0.00001036,0.00000390,0.00000817,-0.00071097,0.00118484,0.00004528,-0.
 13446884,0.19233135,0.00176010,0.00208760,0.00190709,0.00016864,-0.000
 13534,-0.00014134,0.00560682,-0.01461856,-0.00308387,-0.00007967,0.000
 22205,0.00012338,-0.00595153,0.00414068,0.00425967,0.09131529,-0.08132
 359,-0.09366655,-0.00179039,-0.00040241,-0.00121281,-0.00015746,-0.000
 01377,-0.00011146,-0.00010524,0.00050061,-0.00024412,-0.00014298,0.000
 02185,0.00001940,0.00005795,-0.00000587,-0.00006533,0.00017075,0.00009
 155,0.00004104,0.00007511,-0.00033896,0.00026150,-0.00005851,0.0000912
 4,-0.00008893,-0.00004739,0.00001053,-0.00004801,0.00002166,0.00002890
 ,0.00003481,-0.00025920,-0.00001952,0.00011953,0.00009431,-0.00003863,
 -0.00002516,0.00513907,0.00156304,0.00014579,0.00106219,-0.00068591,0.
 00130646,0.00024028,0.00012937,0.00098390,0.00010279,0.00009222,-0.000
 05858,-0.00106909,-0.00084859,-0.00142962,-0.09615351,0.08945153,0.090
 97322\\0.00000135,0.00000276,0.00000385,0.00000263,-0.00000679,0.00000
 657,-0.00000143,-0.00000756,-0.00000546,-0.00000613,0.00001044,0.00000
 656,0.00000496,-0.00000517,-0.00000217,0.00000125,-0.00000574,-0.00000
 746,-0.00000476,0.00000658,0.00000739,0.00000403,0.00000018,-0.0000027
 9,-0.00000291,-0.00000144,0.00000237,0.00001063,0.00000088,-0.00000871
 ,-0.00000561,0.00000123,0.00000663,-0.00000647,-0.00000432,0.00000146,
 -0.00000192,-0.00000268,0.00000033,-0.00000673,0.00000007,0.00000232,-
 0.00000017,0.00000125,0.00000362,-0.00000043,0.00000209,-0.00000505,-0
 .00001659,0.00001870,-0.00000302,0.00001835,-0.00001308,0.00000855,-0.
 00000081,0.00000239,-0.00000849,0.00000234,0.00000111,0.00000229,0.000
 00403,-0.00000218,-0.00000332,0.00000580,0.00000604,-0.00000180,0.0000
 0103,-0.00000378,-0.00000317,-0.00000245,-0.00000097,-0.00000049\\\@
 The archive entry for this job was punched.


 THE HURRIEDER I GO, THE BEHINDER I GET.
 Job cpu time:       0 days  0 hours 36 minutes 42.5 seconds.
 Elapsed time:       0 days  0 hours  3 minutes  5.7 seconds.
 File lengths (MBytes):  RWF=    288 Int=      0 D2E=      0 Chk=     12 Scr=      1
 Normal termination of Gaussian 16 at Sat Dec 30 21:00:28 2023.
