Unloading slurm/anatra/current
  ERROR: No such file or directory on
    '/cm/local/modulefiles/slurm/anatra/current'
environment: line 0: unalias: gv: not found
environment: line 0: unalias: sl: not found
 Entering Gaussian System, Link 0=g16
 Initial command:
 /apps/gaussian/g16/C.01/g16/l1.exe "/local/jobs/1153173/Gau-1516150.inp" -scrdir="/local/jobs/1153173/"
 Entering Link 1 = /apps/gaussian/g16/C.01/g16/l1.exe PID=   1516151.
  
 Copyright (c) 1988-2019, Gaussian, Inc.  All Rights Reserved.
  
 This is part of the Gaussian(R) 16 program.  It is based on
 the Gaussian(R) 09 system (copyright 2009, Gaussian, Inc.),
 the Gaussian(R) 03 system (copyright 2003, Gaussian, Inc.),
 the Gaussian(R) 98 system (copyright 1998, Gaussian, Inc.),
 the Gaussian(R) 94 system (copyright 1995, Gaussian, Inc.),
 the Gaussian 92(TM) system (copyright 1992, Gaussian, Inc.),
 the Gaussian 90(TM) system (copyright 1990, Gaussian, Inc.),
 the Gaussian 88(TM) system (copyright 1988, Gaussian, Inc.),
 the Gaussian 86(TM) system (copyright 1986, Carnegie Mellon
 University), and the Gaussian 82(TM) system (copyright 1983,
 Carnegie Mellon University). Gaussian is a federally registered
 trademark of Gaussian, Inc.
  
 This software contains proprietary and confidential information,
 including trade secrets, belonging to Gaussian, Inc.
  
 This software is provided under written license and may be
 used, copied, transmitted, or stored only in accord with that
 written license.
  
 The following legend is applicable only to US Government
 contracts under FAR:
  
                    RESTRICTED RIGHTS LEGEND
  
 Use, reproduction and disclosure by the US Government is
 subject to restrictions as set forth in subparagraphs (a)
 and (c) of the Commercial Computer Software - Restricted
 Rights clause in FAR 52.227-19.
  
 Gaussian, Inc.
 340 Quinnipiac St., Bldg. 40, Wallingford CT 06492
  
  
 ---------------------------------------------------------------
 Warning -- This program may not be used in any manner that
 competes with the business of Gaussian, Inc. or will provide
 assistance to any competitor of Gaussian, Inc.  The licensee
 of this program is prohibited from giving any competitor of
 Gaussian, Inc. access to this program.  By using this program,
 the user acknowledges that Gaussian, Inc. is engaged in the
 business of creating and licensing software in the field of
 computational chemistry and represents and warrants to the
 licensee that it is not a competitor of Gaussian, Inc. and that
 it will not use this program in any manner prohibited above.
 ---------------------------------------------------------------
  

 Cite this work as:
 Gaussian 16, Revision C.01,
 M. J. Frisch, G. W. Trucks, H. B. Schlegel, G. E. Scuseria, 
 M. A. Robb, J. R. Cheeseman, G. Scalmani, V. Barone, 
 G. A. Petersson, H. Nakatsuji, X. Li, M. Caricato, A. V. Marenich, 
 J. Bloino, B. G. Janesko, R. Gomperts, B. Mennucci, H. P. Hratchian, 
 J. V. Ortiz, A. F. Izmaylov, J. L. Sonnenberg, D. Williams-Young, 
 F. Ding, F. Lipparini, F. Egidi, J. Goings, B. Peng, A. Petrone, 
 T. Henderson, D. Ranasinghe, V. G. Zakrzewski, J. Gao, N. Rega, 
 G. Zheng, W. Liang, M. Hada, M. Ehara, K. Toyota, R. Fukuda, 
 J. Hasegawa, M. Ishida, T. Nakajima, Y. Honda, O. Kitao, H. Nakai, 
 T. Vreven, K. Throssell, J. A. Montgomery, Jr., J. E. Peralta, 
 F. Ogliaro, M. J. Bearpark, J. J. Heyd, E. N. Brothers, K. N. Kudin, 
 V. N. Staroverov, T. A. Keith, R. Kobayashi, J. Normand, 
 K. Raghavachari, A. P. Rendell, J. C. Burant, S. S. Iyengar, 
 J. Tomasi, M. Cossi, J. M. Millam, M. Klene, C. Adamo, R. Cammi, 
 J. W. Ochterski, R. L. Martin, K. Morokuma, O. Farkas, 
 J. B. Foresman, and D. J. Fox, Gaussian, Inc., Wallingford CT, 2019.
 
 ******************************************
 Gaussian 16:  ES64L-G16RevC.01  3-Jul-2019
                30-Dec-2023 
 ******************************************
 %chk=imda-2_1_opt_dft_freq.chk
 %nprocshared=12
 Will use up to   12 processors via shared memory.
 %mem=48GB
 -----------------------------------------------------------
 # wb97xd def2svp scrf=(iefpcm,solvent=toluene) freq=noraman
 -----------------------------------------------------------
 1/10=4,30=1,38=1/1,3;
 2/12=2,17=6,18=5,40=1/2;
 3/5=43,7=101,11=2,25=1,30=1,70=2201,71=2,72=13,74=-58,140=1/1,2,3;
 4//1;
 5/5=2,38=5,53=13,98=1/2;
 8/6=4,10=90,11=11/1;
 11/6=1,8=1,9=11,15=111,16=1/1,2,10;
 10/6=1/2;
 6/7=2,8=2,9=2,10=2,28=1/1;
 7/8=1,10=1,25=1/1,2,3,16;
 1/10=4,30=1/3;
 99//99;
 --------------------
 imda-2_1_opt_dft.out
 --------------------
 Symbolic Z-matrix:
 Charge =  0 Multiplicity = 1
 C                    -2.05577  -2.09477  -0.33673 
 C                     0.38698  -0.58424   1.61273 
 C                    -2.05607   0.12472  -0.67603 
 C                    -0.28186   0.57491   1.56799 
 C                    -3.06265  -1.56721   0.44414 
 C                    -3.06539  -0.16192   0.2285 
 C                    -1.54826   1.43885  -1.19018 
 H                    -0.72423   1.26073  -1.89695 
 H                    -2.33708   1.95413  -1.75963 
 C                    -1.07122   2.38952  -0.08062 
 H                    -0.70121   3.33342  -0.50421 
 H                    -1.92686   2.63404   0.57377 
 C                     0.02027   1.85005   0.82216 
 O                     1.03578   2.46027   1.05368 
 H                    -1.15252   0.65565   2.22754 
 H                     0.06321  -1.35228   2.32024 
 C                     1.57162  -1.03131   0.85797 
 O                     2.29013  -1.91328   1.1839 
 N                    -1.47256  -1.0623   -1.01668 
 H                    -0.66411  -1.14606  -1.62026 
 H                    -1.72572  -3.12088  -0.47801 
 Br                    1.92295  -0.14933  -0.88357 
 H                    -3.72951  -2.13207   1.09208 
 H                    -3.73031   0.5685    0.68693 
 

 GradGradGradGradGradGradGradGradGradGradGradGradGradGradGradGradGradGrad
 Berny optimization.
 Initialization pass.
 Trust Radius=3.00D-01 FncErr=1.00D-07 GrdErr=1.00D-07 EigMax=2.50D+02 EigMin=1.00D-04
 Number of steps in this run=      2 maximum allowed number of steps=      2.
 GradGradGradGradGradGradGradGradGradGradGradGradGradGradGradGradGradGrad

                          Input orientation:                          
 ---------------------------------------------------------------------
 Center     Atomic      Atomic             Coordinates (Angstroms)
 Number     Number       Type             X           Y           Z
 ---------------------------------------------------------------------
      1          6           0       -2.055770   -2.094770   -0.336730
      2          6           0        0.386980   -0.584240    1.612730
      3          6           0       -2.056070    0.124720   -0.676030
      4          6           0       -0.281860    0.574910    1.567990
      5          6           0       -3.062650   -1.567210    0.444140
      6          6           0       -3.065390   -0.161920    0.228500
      7          6           0       -1.548260    1.438850   -1.190180
      8          1           0       -0.724230    1.260730   -1.896950
      9          1           0       -2.337080    1.954130   -1.759630
     10          6           0       -1.071220    2.389520   -0.080620
     11          1           0       -0.701210    3.333420   -0.504210
     12          1           0       -1.926860    2.634040    0.573770
     13          6           0        0.020270    1.850050    0.822160
     14          8           0        1.035780    2.460270    1.053680
     15          1           0       -1.152520    0.655650    2.227540
     16          1           0        0.063210   -1.352280    2.320240
     17          6           0        1.571620   -1.031310    0.857970
     18          8           0        2.290130   -1.913280    1.183900
     19          7           0       -1.472560   -1.062300   -1.016680
     20          1           0       -0.664110   -1.146060   -1.620260
     21          1           0       -1.725720   -3.120880   -0.478010
     22         35           0        1.922950   -0.149330   -0.883570
     23          1           0       -3.729510   -2.132070    1.092080
     24          1           0       -3.730310    0.568500    0.686930
 ---------------------------------------------------------------------
                    Distance matrix (angstroms):
                    1          2          3          4          5
     1  C    0.000000
     2  C    3.471185   0.000000
     3  C    2.245275   3.421921   0.000000
     4  C    3.728526   1.339021   2.895879   0.000000
     5  C    1.379088   3.772503   2.265085   3.685717   0.000000
     6  C    2.252715   3.743435   1.385303   3.175719   1.421741
     7  C    3.670479   3.961610   1.499720   3.155576   3.741761
     8  H    3.932768   4.117834   2.134236   3.559754   4.352718
     9  H    4.300857   5.023608   2.144737   4.147196   4.216976
    10  C    4.598237   3.719816   2.540425   2.575619   4.460592
    11  H    5.597154   4.584065   3.487252   3.475521   5.521951
    12  H    4.817393   4.097636   2.806311   2.816827   4.354001
    13  C    4.605928   2.585584   3.087479   1.507822   4.617896
    14  O    5.677967   3.162676   4.243374   2.356963   5.778344
    15  H    3.867318   2.070116   3.086909   1.095251   3.430775
    16  H    3.478629   1.093290   3.956073   2.097383   3.651978
    17  C    3.964368   1.474078   4.104838   2.553323   4.683471
    18  O    4.607830   2.360556   5.148032   3.599131   5.414726
    19  N    1.366916   3.255799   1.365849   3.283099   2.217502
    20  H    2.117597   3.445672   2.108081   3.643184   3.192508
    21  H    1.087104   3.907587   3.268373   4.464271   2.247584
    22  Br   4.462509   2.963084   3.993842   3.375775   5.350645
    23  H    2.200976   4.428583   3.319596   4.409141   1.087932
    24  H    3.308318   4.374699   2.204015   3.559230   2.250772
                    6          7          8          9         10
     6  C    0.000000
     7  C    2.622366   0.000000
     8  H    3.467348   1.100125   0.000000
     9  H    2.993454   1.100920   1.760950   0.000000
    10  C    3.253016   1.537031   2.166477   2.147333   0.000000
    11  H    4.282944   2.185736   2.497258   2.480845   1.098764
    12  H    3.038561   2.164102   3.071930   2.464815   1.104598
    13  C    3.731187   2.584354   2.880128   3.497652   1.515714
    14  O    4.937246   3.571480   3.639059   4.421207   2.393970
    15  H    2.885074   3.528572   4.190581   4.357380   2.887995
    16  H    3.947211   4.765532   5.023204   5.774000   4.588260
    17  C    4.759615   4.475518   4.256050   5.571590   4.423532
    18  O    5.715037   5.621945   5.352788   6.710611   5.604621
    19  N    2.213202   2.508303   2.594483   3.224627   3.598936
    20  H    3.186313   2.765583   2.423388   3.525540   3.877700
    21  H    3.324051   4.618421   4.713266   5.269918   5.563344
    22  Br   5.110811   3.829572   3.165876   4.831137   4.006937
    23  H    2.251292   4.766344   5.429282   5.173794   5.374617
    24  H    1.088940   3.007057   4.023945   3.137948   3.313006
                   11         12         13         14         15
    11  H    0.000000
    12  H    1.775779   0.000000
    13  C    2.116643   2.113682   0.000000
    14  O    2.491294   3.006284   1.207158   0.000000
    15  H    3.851830   2.692320   2.185663   3.069732   0.000000
    16  H    5.524277   4.785529   3.535676   4.133474   2.349122
    17  C    5.106090   5.074931   3.272645   3.537875   3.484608
    18  O    6.271020   6.231644   4.409736   4.551735   4.420455
    19  N    4.492211   4.049549   3.753886   4.794440   3.684934
    20  H    4.616566   4.549446   3.925617   4.800541   4.276712
    21  H    6.535158   5.853700   5.426700   6.412581   4.680891
    22  Br   4.377177   4.969107   3.244569   3.368979   4.448091
    23  H    6.449056   5.121913   5.476403   6.618085   3.962516
    24  H    4.270719   2.744393   3.965792   5.140906   3.004343
                   16         17         18         19         20
    16  H    0.000000
    17  C    2.125219   0.000000
    18  O    2.562257   1.183367   0.000000
    19  N    3.684795   3.575235   4.441234   0.000000
    20  H    4.012364   3.339653   4.144813   1.012381   0.000000
    21  H    3.762768   4.125966   4.510797   2.142897   2.516280
    22  Br   3.894884   1.983503   2.742403   3.518625   2.868634
    23  H    4.062164   5.419267   6.024315   3.268807   4.210188
    24  H    4.554985   5.540678   6.530843   3.264848   4.202907
                   21         22         23         24
    21  H    0.000000
    22  Br   4.723069   0.000000
    23  H    2.730953   6.307516   0.000000
    24  H    4.357406   5.911100   2.730792   0.000000
 Stoichiometry    C10H10BrNO2
 Framework group  C1[X(C10H10BrNO2)]
 Deg. of freedom    66
 Full point group                 C1      NOp   1
 Largest Abelian subgroup         C1      NOp   1
 Largest concise Abelian subgroup C1      NOp   1
                         Standard orientation:                         
 ---------------------------------------------------------------------
 Center     Atomic      Atomic             Coordinates (Angstroms)
 Number     Number       Type             X           Y           Z
 ---------------------------------------------------------------------
      1          6           0       -2.055770   -2.094771   -0.336730
      2          6           0        0.386979   -0.584240    1.612730
      3          6           0       -2.056071    0.124719   -0.676030
      4          6           0       -0.281862    0.574909    1.567990
      5          6           0       -3.062651   -1.567212    0.444140
      6          6           0       -3.065391   -0.161922    0.228500
      7          6           0       -1.548262    1.438849   -1.190180
      8          1           0       -0.724232    1.260729   -1.896950
      9          1           0       -2.337082    1.954129   -1.759630
     10          6           0       -1.071222    2.389519   -0.080620
     11          1           0       -0.701213    3.333419   -0.504210
     12          1           0       -1.926863    2.634039    0.573770
     13          6           0        0.020268    1.850050    0.822160
     14          8           0        1.035778    2.460270    1.053680
     15          1           0       -1.152522    0.655649    2.227540
     16          1           0        0.063209   -1.352280    2.320240
     17          6           0        1.571619   -1.031310    0.857970
     18          8           0        2.290130   -1.913279    1.183900
     19          7           0       -1.472561   -1.062301   -1.016680
     20          1           0       -0.664111   -1.146061   -1.620260
     21          1           0       -1.725720   -3.120881   -0.478010
     22         35           0        1.922949   -0.149329   -0.883570
     23          1           0       -3.729510   -2.132072    1.092080
     24          1           0       -3.730312    0.568498    0.686930
 ---------------------------------------------------------------------
 Rotational constants (GHZ):           0.7267772           0.4568578           0.3837985
 Standard basis: def2SVP (5D, 7F)
 There are   280 symmetry adapted cartesian basis functions of A   symmetry.
 There are   264 symmetry adapted basis functions of A   symmetry.
   264 basis functions,   475 primitive gaussians,   280 cartesian basis functions
    64 alpha electrons       64 beta electrons
       nuclear repulsion energy      1240.0678461129 Hartrees.
 NAtoms=   24 NActive=   24 NUniq=   24 SFac= 1.00D+00 NAtFMM=   60 NAOKFM=F Big=F
 Integral buffers will be    131072 words long.
 Raffenetti 2 integral format.
 Two-electron integral symmetry is turned on.
 Nuclear repulsion after empirical dispersion term =     1240.0474093556 Hartrees.
 Force inversion solution in PCM.
 ------------------------------------------------------------------------------
 Polarizable Continuum Model (PCM)
 =================================
 Model                : PCM.
 Atomic radii         : UFF (Universal Force Field).
 Polarization charges : Total charges.
 Charge compensation  : None.
 Solution method      : Matrix inversion.
 Cavity type          : Scaled VdW (van der Waals Surface) (Alpha=1.100).
 Cavity algorithm     : GePol (No added spheres)
                        Default sphere list used, NSphG=   24.
                        Lebedev-Laikov grids with approx.  5.0 points / Ang**2.
                        Smoothing algorithm: York/Karplus (Gamma=1.0000).
                        Polarization charges: spherical gaussians, with
                                              point-specific exponents (IZeta= 3).
                        Self-potential: point-specific (ISelfS= 7).
                        Self-field    : sphere-specific E.n sum rule (ISelfD= 2).
 1st derivatives      : Analytical E(r).r(x)/FMM algorithm (CHGder, D1EAlg=3).
                        Cavity 1st derivative terms included.
 2nd derivatives      : Analytical E(r).r(xy)/FMM algorithm (CHGder, D2EAlg=3).
                        Cavity 2nd derivative terms included.
 Solvent              : Toluene, Eps=   2.374100 Eps(inf)=   2.238315
 ------------------------------------------------------------------------------
 One-electron integrals computed using PRISM.
   1 Symmetry operations used in ECPInt.
 ECPInt:  NShTT=    7260 NPrTT=   28205 LenC2=    7045 LenP2D=   20149.
 LDataN:  DoStor=T MaxTD1= 4 Len=   56
 NBasis=   264 RedAO= T EigKep=  6.61D-04  NBF=   264
 NBsUse=   264 1.00D-06 EigRej= -1.00D+00 NBFU=   264
 ExpMin= 1.22D-01 ExpMax= 1.13D+05 ExpMxC= 1.70D+04 IAcc=3 IRadAn=         5 AccDes= 0.00D+00
 Harris functional with IExCor= 4639 and IRadAn=       5 diagonalized for initial guess.
 HarFok:  IExCor= 4639 AccDes= 0.00D+00 IRadAn=         5 IDoV= 1 UseB2=F ITyADJ=14
 ICtDFT=  3500011 ScaDFX=  1.000000  1.000000  1.000000  1.000000
 FoFCou: FMM=F IPFlag=           0 FMFlag=      100000 FMFlg1=           0
         NFxFlg=           0 DoJE=T BraDBF=F KetDBF=T FulRan=T
         wScrn=  0.000000 ICntrl=       500 IOpCl=  0 I1Cent=   200000004 NGrid=           0
         NMat0=    1 NMatS0=      1 NMatT0=    0 NMatD0=    1 NMtDS0=    0 NMtDT0=    0
 Petite list used in FoFCou.
 Requested convergence on RMS density matrix=1.00D-08 within 128 cycles.
 Requested convergence on MAX density matrix=1.00D-06.
 Requested convergence on             energy=1.00D-06.
 No special actions if energy rises.
 Inv3:  Mode=1 IEnd=    11430912.
 Iteration    1 A*A^-1 deviation from unit magnitude is 2.78D-15 for   1516.
 Iteration    1 A*A^-1 deviation from orthogonality  is 1.77D-15 for   1450   1140.
 Iteration    1 A^-1*A deviation from unit magnitude is 2.78D-15 for   1516.
 Iteration    1 A^-1*A deviation from orthogonality  is 1.91D-15 for   1442    123.
 Error on total polarization charges =  0.00752
 SCF Done:  E(RwB97XD) =  -3165.54154334     A.U. after   16 cycles
            NFock= 16  Conv=0.53D-08     -V/T= 2.0027
 DoSCS=F DFT=T ScalE2(SS,OS)=  1.000000  1.000000
 Range of M.O.s used for correlation:     1   264
 NBasis=   264 NAE=    64 NBE=    64 NFC=     0 NFV=     0
 NROrb=    264 NOA=    64 NOB=    64 NVA=   200 NVB=   200
   1 Symmetry operations used in ECPInt.
 ECPInt:  NShTT=    7260 NPrTT=   28205 LenC2=    7045 LenP2D=   20149.
 LDataN:  DoStor=T MaxTD1= 5 Len=  102
 Symmetrizing basis deriv contribution to polar:
 IMax=3 JMax=2 DiffMx= 0.00D+00
 G2DrvN: will do    25 centers at a time, making    1 passes.
 Calling FoFCou, ICntrl=  3107 FMM=F I1Cent=   0 AccDes= 0.00D+00.
 NEqPCM:  Using equilibrium solvation (IEInf=0, Eps=   2.3741, EpsInf=   2.2383)
 G2PCM: DoFxE=T DoFxN=T DoGrad=T DoDP/DQ/DG/TGxP=FFFF NFrqRd=   0 IEInf=0 SqF1=F DoCFld=F IF1Alg=4.
 End of G2Drv F.D. properties file   721 does not exist.
 End of G2Drv F.D. properties file   722 does not exist.
 End of G2Drv F.D. properties file   788 does not exist.
          IDoAtm=111111111111111111111111
 NEqPCM:  Using equilibrium solvation (IEInf=0, Eps=   2.3741, EpsInf=   2.2383)
          Differentiating once with respect to electric field.
                with respect to dipole field.
          Differentiating once with respect to nuclear coordinates.
 Keep R1 ints in memory in canonical form, NReq=1246293233.
          There are    75 degrees of freedom in the 1st order CPHF.  IDoFFX=6 NUNeed=     3.
     72 vectors produced by pass  0 Test12= 1.71D-14 1.33D-09 XBig12= 7.16D+01 3.45D+00.
 AX will form    72 AO Fock derivatives at one time.
     72 vectors produced by pass  1 Test12= 1.71D-14 1.33D-09 XBig12= 9.85D+00 6.01D-01.
     72 vectors produced by pass  2 Test12= 1.71D-14 1.33D-09 XBig12= 3.58D-01 9.69D-02.
     72 vectors produced by pass  3 Test12= 1.71D-14 1.33D-09 XBig12= 4.45D-03 9.52D-03.
     72 vectors produced by pass  4 Test12= 1.71D-14 1.33D-09 XBig12= 6.46D-05 1.01D-03.
     72 vectors produced by pass  5 Test12= 1.71D-14 1.33D-09 XBig12= 5.00D-07 9.55D-05.
     66 vectors produced by pass  6 Test12= 1.71D-14 1.33D-09 XBig12= 2.95D-09 6.94D-06.
     29 vectors produced by pass  7 Test12= 1.71D-14 1.33D-09 XBig12= 1.40D-11 3.17D-07.
      3 vectors produced by pass  8 Test12= 1.71D-14 1.33D-09 XBig12= 6.43D-14 2.27D-08.
      2 vectors produced by pass  9 Test12= 1.71D-14 1.33D-09 XBig12= 2.92D-16 1.83D-09.
 InvSVY:  IOpt=1 It=  1 EMax= 9.77D-15
 Solved reduced A of dimension   532 with    75 vectors.
 Isotropic polarizability for W=    0.000000      143.89 Bohr**3.
 End of Minotr F.D. properties file   721 does not exist.
 End of Minotr F.D. properties file   722 does not exist.
 End of Minotr F.D. properties file   788 does not exist.

 **********************************************************************

            Population analysis using the SCF Density.

 **********************************************************************

 Orbital symmetries:
       Occupied  (A) (A) (A) (A) (A) (A) (A) (A) (A) (A) (A) (A)
                 (A) (A) (A) (A) (A) (A) (A) (A) (A) (A) (A) (A)
                 (A) (A) (A) (A) (A) (A) (A) (A) (A) (A) (A) (A)
                 (A) (A) (A) (A) (A) (A) (A) (A) (A) (A) (A) (A)
                 (A) (A) (A) (A) (A) (A) (A) (A) (A) (A) (A) (A)
                 (A) (A) (A) (A)
       Virtual   (A) (A) (A) (A) (A) (A) (A) (A) (A) (A) (A) (A)
                 (A) (A) (A) (A) (A) (A) (A) (A) (A) (A) (A) (A)
                 (A) (A) (A) (A) (A) (A) (A) (A) (A) (A) (A) (A)
                 (A) (A) (A) (A) (A) (A) (A) (A) (A) (A) (A) (A)
                 (A) (A) (A) (A) (A) (A) (A) (A) (A) (A) (A) (A)
                 (A) (A) (A) (A) (A) (A) (A) (A) (A) (A) (A) (A)
                 (A) (A) (A) (A) (A) (A) (A) (A) (A) (A) (A) (A)
                 (A) (A) (A) (A) (A) (A) (A) (A) (A) (A) (A) (A)
                 (A) (A) (A) (A) (A) (A) (A) (A) (A) (A) (A) (A)
                 (A) (A) (A) (A) (A) (A) (A) (A) (A) (A) (A) (A)
                 (A) (A) (A) (A) (A) (A) (A) (A) (A) (A) (A) (A)
                 (A) (A) (A) (A) (A) (A) (A) (A) (A) (A) (A) (A)
                 (A) (A) (A) (A) (A) (A) (A) (A) (A) (A) (A) (A)
                 (A) (A) (A) (A) (A) (A) (A) (A) (A) (A) (A) (A)
                 (A) (A) (A) (A) (A) (A) (A) (A) (A) (A) (A) (A)
                 (A) (A) (A) (A) (A) (A) (A) (A) (A) (A) (A) (A)
                 (A) (A) (A) (A) (A) (A) (A) (A)
 The electronic state is 1-A.
 Alpha  occ. eigenvalues -- -483.06641 -62.64872 -56.45598 -56.45316 -56.45280
 Alpha  occ. eigenvalues --  -19.29965 -19.26607 -14.49555 -10.45746 -10.41014
 Alpha  occ. eigenvalues --  -10.34946 -10.34311 -10.33036 -10.32326 -10.32322
 Alpha  occ. eigenvalues --  -10.31916 -10.28808 -10.28777  -8.81820  -6.64231
 Alpha  occ. eigenvalues --   -6.63169  -6.63056  -2.74625  -2.74345  -2.74258
 Alpha  occ. eigenvalues --   -2.73413  -2.73411  -1.19627  -1.15515  -1.08133
 Alpha  occ. eigenvalues --   -0.93083  -0.90652  -0.88335  -0.87013  -0.82600
 Alpha  occ. eigenvalues --   -0.78383  -0.74240  -0.68315  -0.67961  -0.66538
 Alpha  occ. eigenvalues --   -0.62006  -0.60955  -0.59638  -0.58488  -0.56164
 Alpha  occ. eigenvalues --   -0.55133  -0.54306  -0.53586  -0.52195  -0.51886
 Alpha  occ. eigenvalues --   -0.50846  -0.49974  -0.48101  -0.47569  -0.46975
 Alpha  occ. eigenvalues --   -0.45602  -0.44047  -0.39224  -0.38860  -0.38149
 Alpha  occ. eigenvalues --   -0.37201  -0.35018  -0.33368  -0.29255
 Alpha virt. eigenvalues --   -0.02312   0.04108   0.06151   0.09763   0.11658
 Alpha virt. eigenvalues --    0.13408   0.13803   0.14794   0.15692   0.17575
 Alpha virt. eigenvalues --    0.19704   0.20164   0.20581   0.21565   0.23374
 Alpha virt. eigenvalues --    0.23533   0.26900   0.27938   0.28642   0.30614
 Alpha virt. eigenvalues --    0.31332   0.32493   0.33905   0.35569   0.37619
 Alpha virt. eigenvalues --    0.39948   0.40481   0.42282   0.43020   0.46634
 Alpha virt. eigenvalues --    0.48288   0.49610   0.50169   0.50721   0.51952
 Alpha virt. eigenvalues --    0.52795   0.53995   0.54277   0.55800   0.56403
 Alpha virt. eigenvalues --    0.57055   0.57925   0.59885   0.60323   0.60840
 Alpha virt. eigenvalues --    0.61920   0.64773   0.65198   0.65986   0.67246
 Alpha virt. eigenvalues --    0.67711   0.69968   0.70203   0.70942   0.71928
 Alpha virt. eigenvalues --    0.72882   0.73949   0.74695   0.74918   0.75448
 Alpha virt. eigenvalues --    0.75668   0.76663   0.77500   0.78355   0.79095
 Alpha virt. eigenvalues --    0.79584   0.81389   0.81934   0.82525   0.83602
 Alpha virt. eigenvalues --    0.84549   0.87195   0.88470   0.89677   0.89863
 Alpha virt. eigenvalues --    0.91080   0.93592   0.94218   0.96486   0.98816
 Alpha virt. eigenvalues --    1.01861   1.02304   1.03470   1.06489   1.06840
 Alpha virt. eigenvalues --    1.11167   1.11817   1.12369   1.16041   1.19632
 Alpha virt. eigenvalues --    1.21057   1.22625   1.24249   1.26196   1.28000
 Alpha virt. eigenvalues --    1.29040   1.32301   1.34314   1.37358   1.37595
 Alpha virt. eigenvalues --    1.40490   1.42088   1.42741   1.47016   1.49233
 Alpha virt. eigenvalues --    1.51646   1.52044   1.57456   1.60748   1.65436
 Alpha virt. eigenvalues --    1.70280   1.72123   1.72484   1.74190   1.75553
 Alpha virt. eigenvalues --    1.76355   1.79041   1.79206   1.80154   1.82260
 Alpha virt. eigenvalues --    1.83244   1.84105   1.85024   1.86078   1.88043
 Alpha virt. eigenvalues --    1.88402   1.91913   1.92622   1.93149   1.93769
 Alpha virt. eigenvalues --    1.95592   1.97395   1.98487   1.99756   2.01054
 Alpha virt. eigenvalues --    2.02707   2.04261   2.05141   2.07614   2.09184
 Alpha virt. eigenvalues --    2.10542   2.12083   2.14511   2.16468   2.20254
 Alpha virt. eigenvalues --    2.22589   2.23929   2.24676   2.26368   2.31456
 Alpha virt. eigenvalues --    2.34739   2.35623   2.37333   2.40336   2.42298
 Alpha virt. eigenvalues --    2.43601   2.45224   2.46607   2.49878   2.52263
 Alpha virt. eigenvalues --    2.53521   2.55103   2.58426   2.64930   2.69988
 Alpha virt. eigenvalues --    2.73107   2.74405   2.75205   2.75719   2.77159
 Alpha virt. eigenvalues --    2.79083   2.79370   2.81726   2.82813   2.85680
 Alpha virt. eigenvalues --    2.87261   2.88979   2.92237   2.93955   2.96897
 Alpha virt. eigenvalues --    3.02488   3.04694   3.07018   3.10813   3.11892
 Alpha virt. eigenvalues --    3.20178   3.24661   3.27054   3.37669   3.40766
 Alpha virt. eigenvalues --    3.50265   3.53629   3.54758   3.57941   3.59735
 Alpha virt. eigenvalues --    3.67218   3.68969   3.69704   3.71846   3.89346
          Condensed to atoms (all electrons):
               1          2          3          4          5          6
     1  C    4.926590   0.004440  -0.144488  -0.004402   0.447064  -0.023689
     2  C    0.004440   5.103176  -0.010075   0.499348   0.000496  -0.005148
     3  C   -0.144488  -0.010075   5.184830   0.020843  -0.012075   0.418587
     4  C   -0.004402   0.499348   0.020843   5.157672  -0.000699  -0.002673
     5  C    0.447064   0.000496  -0.012075  -0.000699   4.972167   0.368346
     6  C   -0.023689  -0.005148   0.418587  -0.002673   0.368346   5.124967
     7  C    0.008523  -0.001136   0.327332   0.002913   0.010397  -0.098960
     8  H    0.000183   0.001361  -0.010335  -0.004377  -0.000640   0.011496
     9  H   -0.000169  -0.000054   0.004469   0.000093   0.000076  -0.008477
    10  C    0.000059   0.003226  -0.051261  -0.186470   0.000498   0.002492
    11  H   -0.000002  -0.000423   0.008114   0.014943   0.000005   0.000051
    12  H    0.000049   0.001423  -0.015131  -0.000334  -0.000284   0.007368
    13  C    0.000400  -0.004473  -0.016823   0.220123   0.000167  -0.005908
    14  O    0.000000  -0.002370  -0.000170  -0.091851  -0.000001   0.000012
    15  H    0.000113   0.017379  -0.000369   0.359006  -0.000715   0.008703
    16  H    0.002043   0.390510  -0.000337  -0.011493   0.001545  -0.000032
    17  C    0.002260   0.256608  -0.001481  -0.012321  -0.000121   0.000004
    18  O   -0.000068  -0.080352   0.000010   0.005355  -0.000003   0.000000
    19  N    0.394745   0.000982   0.444499  -0.004462  -0.061009  -0.098472
    20  H   -0.027205   0.001115  -0.020502  -0.001102   0.007057   0.010847
    21  H    0.431620  -0.000617   0.003987   0.000090  -0.049790   0.009210
    22  Br  -0.000068  -0.135806  -0.001794   0.014840  -0.000085  -0.000109
    23  H   -0.057779   0.000029   0.012730   0.000014   0.452555  -0.058609
    24  H    0.012170   0.000145  -0.056890  -0.000448  -0.057610   0.453453
               7          8          9         10         11         12
     1  C    0.008523   0.000183  -0.000169   0.000059  -0.000002   0.000049
     2  C   -0.001136   0.001361  -0.000054   0.003226  -0.000423   0.001423
     3  C    0.327332  -0.010335   0.004469  -0.051261   0.008114  -0.015131
     4  C    0.002913  -0.004377   0.000093  -0.186470   0.014943  -0.000334
     5  C    0.010397  -0.000640   0.000076   0.000498   0.000005  -0.000284
     6  C   -0.098960   0.011496  -0.008477   0.002492   0.000051   0.007368
     7  C    4.680527   0.364352   0.353665   0.358593  -0.008606  -0.011874
     8  H    0.364352   0.659484  -0.024122  -0.023768  -0.007040   0.007475
     9  H    0.353665  -0.024122   0.632686  -0.014368  -0.004096  -0.009532
    10  C    0.358593  -0.023768  -0.014368   5.012230   0.333602   0.368516
    11  H   -0.008606  -0.007040  -0.004096   0.333602   0.616783  -0.014025
    12  H   -0.011874   0.007475  -0.009532   0.368516  -0.014025   0.608279
    13  C   -0.028009  -0.004592   0.006650   0.323287  -0.005073  -0.019770
    14  O    0.002903   0.000681  -0.000160  -0.088511   0.009851   0.001794
    15  H   -0.003345   0.000046   0.000040   0.006703  -0.000259   0.000009
    16  H    0.000030   0.000010  -0.000003  -0.000229   0.000007   0.000021
    17  C   -0.000055  -0.000483   0.000008   0.000721  -0.000003  -0.000048
    18  O    0.000000   0.000003   0.000000  -0.000003   0.000000   0.000000
    19  N   -0.049236  -0.008690   0.003230  -0.003366  -0.000078   0.000008
    20  H   -0.012961   0.005104   0.000065   0.000387  -0.000023   0.000005
    21  H   -0.000301  -0.000007   0.000010   0.000007  -0.000000  -0.000000
    22  Br   0.001095   0.007385   0.000156  -0.007762   0.000043   0.000127
    23  H   -0.000263   0.000007   0.000004   0.000003  -0.000000   0.000005
    24  H   -0.007698  -0.000004   0.001362  -0.000057  -0.000036   0.001355
              13         14         15         16         17         18
     1  C    0.000400   0.000000   0.000113   0.002043   0.002260  -0.000068
     2  C   -0.004473  -0.002370   0.017379   0.390510   0.256608  -0.080352
     3  C   -0.016823  -0.000170  -0.000369  -0.000337  -0.001481   0.000010
     4  C    0.220123  -0.091851   0.359006  -0.011493  -0.012321   0.005355
     5  C    0.000167  -0.000001  -0.000715   0.001545  -0.000121  -0.000003
     6  C   -0.005908   0.000012   0.008703  -0.000032   0.000004   0.000000
     7  C   -0.028009   0.002903  -0.003345   0.000030  -0.000055   0.000000
     8  H   -0.004592   0.000681   0.000046   0.000010  -0.000483   0.000003
     9  H    0.006650  -0.000160   0.000040  -0.000003   0.000008   0.000000
    10  C    0.323287  -0.088511   0.006703  -0.000229   0.000721  -0.000003
    11  H   -0.005073   0.009851  -0.000259   0.000007  -0.000003   0.000000
    12  H   -0.019770   0.001794   0.000009   0.000021  -0.000048   0.000000
    13  C    4.798846   0.715621  -0.036244   0.006127  -0.022490  -0.000062
    14  O    0.715621   7.661327   0.001005  -0.000173   0.001529  -0.000002
    15  H   -0.036244   0.001005   0.565646  -0.013456   0.007100  -0.000077
    16  H    0.006127  -0.000173  -0.013456   0.576463  -0.036170   0.002846
    17  C   -0.022490   0.001529   0.007100  -0.036170   4.719446   0.702890
    18  O   -0.000062  -0.000002  -0.000077   0.002846   0.702890   7.585295
    19  N    0.001248   0.000004  -0.000487  -0.000805   0.001173  -0.000018
    20  H   -0.000041   0.000001  -0.000035  -0.000059  -0.001110  -0.000069
    21  H    0.000005   0.000000  -0.000008   0.000085   0.000168   0.000019
    22  Br   0.008122  -0.005150  -0.000015   0.004673   0.261180  -0.073332
    23  H   -0.000006  -0.000000  -0.000037  -0.000001  -0.000008  -0.000000
    24  H    0.000029  -0.000001   0.000719  -0.000010  -0.000003  -0.000000
              19         20         21         22         23         24
     1  C    0.394745  -0.027205   0.431620  -0.000068  -0.057779   0.012170
     2  C    0.000982   0.001115  -0.000617  -0.135806   0.000029   0.000145
     3  C    0.444499  -0.020502   0.003987  -0.001794   0.012730  -0.056890
     4  C   -0.004462  -0.001102   0.000090   0.014840   0.000014  -0.000448
     5  C   -0.061009   0.007057  -0.049790  -0.000085   0.452555  -0.057610
     6  C   -0.098472   0.010847   0.009210  -0.000109  -0.058609   0.453453
     7  C   -0.049236  -0.012961  -0.000301   0.001095  -0.000263  -0.007698
     8  H   -0.008690   0.005104  -0.000007   0.007385   0.000007  -0.000004
     9  H    0.003230   0.000065   0.000010   0.000156   0.000004   0.001362
    10  C   -0.003366   0.000387   0.000007  -0.007762   0.000003  -0.000057
    11  H   -0.000078  -0.000023  -0.000000   0.000043  -0.000000  -0.000036
    12  H    0.000008   0.000005  -0.000000   0.000127   0.000005   0.001355
    13  C    0.001248  -0.000041   0.000005   0.008122  -0.000006   0.000029
    14  O    0.000004   0.000001   0.000000  -0.005150  -0.000000  -0.000001
    15  H   -0.000487  -0.000035  -0.000008  -0.000015  -0.000037   0.000719
    16  H   -0.000805  -0.000059   0.000085   0.004673  -0.000001  -0.000010
    17  C    0.001173  -0.001110   0.000168   0.261180  -0.000008  -0.000003
    18  O   -0.000018  -0.000069   0.000019  -0.073332  -0.000000  -0.000000
    19  N    6.159990   0.365366  -0.034100  -0.004352   0.004397   0.005236
    20  H    0.365366   0.515399  -0.005078   0.014395  -0.000188  -0.000223
    21  H   -0.034100  -0.005078   0.606563   0.000035  -0.004157  -0.000182
    22  Br  -0.004352   0.014395   0.000035  35.061389   0.000000  -0.000000
    23  H    0.004397  -0.000188  -0.004157   0.000000   0.633662  -0.005499
    24  H    0.005236  -0.000223  -0.000182  -0.000000  -0.005499   0.642255
 Mulliken charges:
               1
     1  C    0.027611
     2  C   -0.039785
     3  C   -0.083671
     4  C    0.025392
     5  C   -0.077340
     6  C   -0.113459
     7  C    0.112117
     8  H    0.026469
     9  H    0.058468
    10  C   -0.034527
    11  H    0.056264
    12  H    0.074565
    13  C    0.062868
    14  O   -0.206337
    15  H    0.088574
    16  H    0.078408
    17  C    0.121205
    18  O   -0.142432
    19  N   -0.115802
    20  H    0.148856
    21  H    0.042440
    22  Br  -0.144963
    23  H    0.023141
    24  H    0.011939
 Sum of Mulliken charges =  -0.00000
 Mulliken charges with hydrogens summed into heavy atoms:
               1
     1  C    0.070051
     2  C    0.038622
     3  C   -0.083671
     4  C    0.113966
     5  C   -0.054199
     6  C   -0.101520
     7  C    0.197054
    10  C    0.096302
    13  C    0.062868
    14  O   -0.206337
    17  C    0.121205
    18  O   -0.142432
    19  N    0.033054
    22  Br  -0.144963
 APT charges:
               1
     1  C   -0.005717
     2  C   -0.350024
     3  C   -0.002543
     4  C    0.049806
     5  C   -0.118960
     6  C   -0.140938
     7  C    0.159186
     8  H   -0.005624
     9  H   -0.028657
    10  C   -0.087607
    11  H   -0.004520
    12  H    0.021800
    13  C    0.885939
    14  O   -0.721537
    15  H    0.073280
    16  H    0.044349
    17  C    1.458490
    18  O   -0.886246
    19  N   -0.395915
    20  H    0.290619
    21  H    0.091147
    22  Br  -0.469948
    23  H    0.067937
    24  H    0.075682
 Sum of APT charges =   0.00000
 APT charges with hydrogens summed into heavy atoms:
               1
     1  C    0.085430
     2  C   -0.305676
     3  C   -0.002543
     4  C    0.123086
     5  C   -0.051023
     6  C   -0.065256
     7  C    0.124906
    10  C   -0.070327
    13  C    0.885939
    14  O   -0.721537
    17  C    1.458490
    18  O   -0.886246
    19  N   -0.105296
    22  Br  -0.469948
 Electronic spatial extent (au):  <R**2>=           3122.9420
 Charge=             -0.0000 electrons
 Dipole moment (field-independent basis, Debye):
    X=             -3.9758    Y=              0.2495    Z=             -0.7863  Tot=              4.0605
 Quadrupole moment (field-independent basis, Debye-Ang):
   XX=           -103.8719   YY=            -94.4478   ZZ=            -88.4533
   XY=             -4.2588   XZ=             -6.6462   YZ=             -1.3913
 Traceless Quadrupole moment (field-independent basis, Debye-Ang):
   XX=             -8.2809   YY=              1.1432   ZZ=              7.1377
   XY=             -4.2588   XZ=             -6.6462   YZ=             -1.3913
 Octapole moment (field-independent basis, Debye-Ang**2):
  XXX=             66.5957  YYY=            -15.1721  ZZZ=            -24.8350  XYY=             -8.1998
  XXY=             17.9942  XXZ=             -0.7318  XZZ=             17.2772  YZZ=             -1.2264
  YYZ=            -21.8056  XYZ=              1.5356
 Hexadecapole moment (field-independent basis, Debye-Ang**3):
 XXXX=          -2075.5054 YYYY=          -1219.9883 ZZZZ=           -623.8895 XXXY=            -25.4387
 XXXZ=           -109.3121 YYYX=            -26.8756 YYYZ=             -6.7809 ZZZX=            -61.7052
 ZZZY=              1.0133 XXYY=           -560.7061 XXZZ=           -446.0060 YYZZ=           -313.5707
 XXYZ=             -8.9006 YYXZ=            -45.9229 ZZXY=            -10.2075
 N-N= 1.240047409356D+03 E-N=-1.000869038440D+04  KE= 3.156864061635D+03
  Exact polarizability:     150.308      -7.897     157.902     -12.212     -13.861     123.458
 Approx polarizability:     150.375     -12.393     166.368     -14.017     -16.513     136.899
   1 Symmetry operations used in ECPInt.
 ECPInt:  NShTT=    7260 NPrTT=   28205 LenC2=    7045 LenP2D=   20149.
 LDataN:  DoStor=T MaxTD1= 6 Len=  172
 D2PCM: PCM CHGder 2nd derivatives, FixD1E=F FixD2E=F DoIter=F DoCFld=F I1PDM=0
 Calling FoFJK, ICntrl=    100127 FMM=F ISym2X=0 I1Cent= 0 IOpClX= 0 NMat=1 NMatS=1 NMatT=0.
 Full mass-weighted force constant matrix:
 Low frequencies ---  -13.5974  -10.0707   -6.0633   -0.0049    0.0040    0.0051
 Low frequencies ---    5.9186   46.0271   71.0632
 ******    1 imaginary frequencies (negative Signs) ****** 
 Diagonal vibrational polarizability:
       39.4189654      99.5017699      62.4314698
 Harmonic frequencies (cm**-1), IR intensities (KM/Mole), Raman scattering
 activities (A**4/AMU), depolarization ratios for plane and unpolarized
 incident light, reduced masses (AMU), force constants (mDyne/A),
 and normal coordinates:
                      1                      2                      3
                      A                      A                      A
 Frequencies --    -10.6947                45.8975                71.0365
 Red. masses --     10.7000                 5.2132                10.2781
 Frc consts  --      0.0007                 0.0065                 0.0306
 IR Inten    --      0.2788                 2.3604                 1.1080
  Atom  AN      X      Y      Z        X      Y      Z        X      Y      Z
     1   6    -0.12   0.05  -0.13     0.22   0.04  -0.11    -0.17   0.00   0.01
     2   6     0.05  -0.03   0.00    -0.03   0.07   0.04     0.06   0.03  -0.04
     3   6    -0.08   0.06  -0.01     0.00   0.06   0.02    -0.19   0.01   0.07
     4   6    -0.04  -0.09   0.00    -0.01   0.08   0.03     0.05   0.02  -0.03
     5   6    -0.15   0.02  -0.14     0.21  -0.10  -0.04    -0.22  -0.03  -0.03
     6   6    -0.12   0.03  -0.07     0.07  -0.08   0.04    -0.23  -0.03   0.01
     7   6    -0.04   0.09   0.08    -0.12   0.13   0.08    -0.20   0.03   0.10
     8   1    -0.03   0.11   0.08    -0.14   0.24   0.02    -0.20   0.05   0.09
     9   1    -0.03   0.13   0.09    -0.19   0.12   0.15    -0.21   0.03   0.11
    10   6    -0.04   0.02   0.14    -0.12   0.09   0.12    -0.20   0.01   0.11
    11   1    -0.05   0.05   0.19    -0.20   0.14   0.16    -0.31   0.06   0.13
    12   1    -0.04  -0.04   0.16    -0.10  -0.02   0.19    -0.16  -0.11   0.20
    13   6    -0.02  -0.06   0.06    -0.03   0.06  -0.01    -0.04   0.02  -0.07
    14   8     0.05  -0.14  -0.01     0.05  -0.01  -0.18     0.02  -0.01  -0.28
    15   1    -0.11  -0.18  -0.09     0.01   0.10   0.05     0.05  -0.02  -0.03
    16   1     0.07  -0.10  -0.06    -0.04   0.09   0.06     0.06   0.03  -0.04
    17   6     0.20   0.14   0.11    -0.06  -0.00   0.03     0.05  -0.03  -0.04
    18   8     0.41   0.37   0.28    -0.10  -0.02   0.06    -0.07  -0.13  -0.06
    19   7    -0.08   0.07  -0.05     0.10   0.13  -0.08    -0.15   0.03   0.07
    20   1    -0.04   0.10   0.00     0.08   0.24  -0.11    -0.12   0.05   0.11
    21   1    -0.13   0.05  -0.17     0.31   0.08  -0.18    -0.15   0.01   0.00
    22  35    -0.02  -0.10  -0.05    -0.03  -0.08   0.00     0.22   0.02   0.04
    23   1    -0.18  -0.01  -0.20     0.29  -0.19  -0.04    -0.25  -0.06  -0.09
    24   1    -0.13   0.01  -0.06     0.02  -0.17   0.11    -0.27  -0.05  -0.02
                      4                      5                      6
                      A                      A                      A
 Frequencies --     94.7356               111.0995               113.7779
 Red. masses --      5.8309                 3.7316                14.1381
 Frc consts  --      0.0308                 0.0271                 0.1078
 IR Inten    --      6.3021                 5.6590                 1.6004
  Atom  AN      X      Y      Z        X      Y      Z        X      Y      Z
     1   6     0.11   0.10   0.14     0.15   0.04   0.19    -0.01   0.00   0.00
     2   6    -0.15  -0.12  -0.16    -0.02  -0.01  -0.00     0.07   0.11  -0.03
     3   6    -0.05   0.07  -0.03     0.01   0.01  -0.01     0.03   0.01   0.03
     4   6    -0.18  -0.13  -0.15    -0.03  -0.02   0.02     0.05   0.10   0.03
     5   6     0.16   0.10   0.20    -0.06   0.02  -0.07    -0.04   0.01  -0.04
     6   6     0.05   0.08   0.09    -0.15  -0.00  -0.20    -0.01   0.01  -0.02
     7   6    -0.09   0.07  -0.07     0.00   0.02   0.01     0.05   0.01   0.05
     8   1    -0.12   0.06  -0.10     0.00   0.05   0.01     0.16   0.01   0.17
     9   1    -0.12   0.07  -0.02    -0.00   0.03   0.03     0.11  -0.05  -0.09
    10   6    -0.03   0.03  -0.06    -0.00   0.00   0.04    -0.15   0.06   0.08
    11   1     0.06  -0.00  -0.04     0.00   0.01   0.06    -0.25   0.12   0.11
    12   1    -0.03   0.10  -0.08    -0.01  -0.02   0.04    -0.23  -0.05   0.02
    13   6    -0.11  -0.08  -0.02    -0.00  -0.02   0.03    -0.14   0.22   0.16
    14   8    -0.11  -0.12   0.10     0.03  -0.06   0.00    -0.34   0.46   0.39
    15   1    -0.24  -0.20  -0.22    -0.04  -0.04   0.00     0.09   0.02   0.10
    16   1    -0.20  -0.17  -0.24    -0.02  -0.04  -0.03     0.08   0.12  -0.02
    17   6    -0.04  -0.02  -0.03    -0.02   0.00  -0.02     0.02  -0.00  -0.05
    18   8     0.01   0.05   0.05    -0.02  -0.01  -0.04    -0.04  -0.04  -0.00
    19   7    -0.03   0.07  -0.01     0.18   0.03   0.21     0.04   0.00   0.04
    20   1    -0.06   0.08  -0.05     0.31   0.06   0.38     0.06  -0.00   0.07
    21   1     0.15   0.10   0.19     0.28   0.06   0.35    -0.02  -0.00   0.01
    22  35     0.08  -0.01  -0.01    -0.02   0.00  -0.03     0.09  -0.17  -0.12
    23   1     0.26   0.11   0.32    -0.15   0.01  -0.16    -0.08   0.01  -0.08
    24   1     0.06   0.08   0.12    -0.32  -0.02  -0.40    -0.02   0.01  -0.04
                      7                      8                      9
                      A                      A                      A
 Frequencies --    155.4451               161.4040               231.7684
 Red. masses --      3.3523                 6.2851                 5.1944
 Frc consts  --      0.0477                 0.0965                 0.1644
 IR Inten    --      1.6097                 1.7362                 5.2728
  Atom  AN      X      Y      Z        X      Y      Z        X      Y      Z
     1   6    -0.05  -0.01   0.03     0.05   0.10   0.06     0.01   0.02  -0.02
     2   6    -0.04   0.01   0.01     0.25  -0.04   0.12     0.14   0.17   0.28
     3   6     0.12  -0.02  -0.04    -0.04   0.06  -0.16    -0.06   0.02  -0.04
     4   6    -0.07  -0.00   0.09     0.12  -0.11  -0.02    -0.10   0.03   0.20
     5   6     0.01   0.09   0.03     0.06   0.14   0.04     0.02  -0.00   0.01
     6   6     0.11   0.08  -0.01     0.00   0.12  -0.09    -0.02  -0.00  -0.00
     7   6     0.18  -0.03   0.00    -0.05   0.06  -0.13    -0.07   0.00  -0.07
     8   1     0.37  -0.00   0.22    -0.01   0.12  -0.10    -0.13  -0.03  -0.13
     9   1     0.30  -0.08  -0.20    -0.04   0.09  -0.12    -0.09   0.04  -0.00
    10   6    -0.16  -0.02   0.14    -0.14  -0.06   0.01     0.06  -0.02  -0.10
    11   1    -0.29   0.08   0.27    -0.22   0.04   0.16     0.25  -0.12  -0.14
    12   1    -0.27  -0.28   0.08    -0.17  -0.25   0.04     0.06   0.18  -0.17
    13   6    -0.10  -0.01   0.08    -0.07  -0.07  -0.07    -0.10  -0.09   0.05
    14   8    -0.01  -0.09  -0.12    -0.15   0.06  -0.06    -0.04  -0.20   0.09
    15   1    -0.05  -0.05   0.11     0.16  -0.13   0.03    -0.05   0.01   0.27
    16   1    -0.01  -0.03  -0.02     0.35   0.05   0.26     0.39   0.20   0.43
    17   6    -0.04   0.04  -0.02     0.16  -0.10   0.03     0.00   0.13   0.06
    18   8    -0.05   0.04  -0.01     0.16  -0.15  -0.10    -0.10  -0.00  -0.05
    19   7     0.02  -0.07  -0.01    -0.01   0.05  -0.07    -0.03   0.03  -0.04
    20   1     0.00  -0.16  -0.03    -0.02   0.02  -0.07    -0.06   0.05  -0.07
    21   1    -0.14  -0.04   0.06     0.08   0.10   0.16     0.04   0.03  -0.02
    22  35     0.01   0.01  -0.03    -0.06  -0.01   0.07     0.05  -0.01  -0.06
    23   1    -0.03   0.17   0.06     0.10   0.19   0.13     0.06  -0.02   0.04
    24   1     0.19   0.15  -0.01     0.00   0.15  -0.14    -0.03  -0.02   0.01
                     10                     11                     12
                      A                      A                      A
 Frequencies --    263.0803               339.0138               357.8212
 Red. masses --      5.3021                 2.5001                 7.1473
 Frc consts  --      0.2162                 0.1693                 0.5392
 IR Inten    --      9.5286                 4.8383                12.5084
  Atom  AN      X      Y      Z        X      Y      Z        X      Y      Z
     1   6    -0.07  -0.01  -0.08     0.06   0.03  -0.00     0.03   0.02   0.00
     2   6     0.10   0.05   0.03     0.03   0.05  -0.03     0.08   0.00   0.10
     3   6     0.19   0.04   0.23    -0.12   0.04   0.01    -0.07   0.02   0.01
     4   6    -0.12  -0.07  -0.21    -0.04   0.01  -0.04     0.01  -0.05  -0.18
     5   6    -0.09  -0.01  -0.10     0.04  -0.06   0.03     0.02  -0.03   0.02
     6   6     0.11   0.02   0.14    -0.11  -0.05   0.02    -0.07  -0.03   0.01
     7   6     0.02   0.02   0.03     0.16  -0.06   0.01     0.12  -0.03   0.02
     8   1     0.04   0.01   0.05     0.38  -0.31   0.32     0.27  -0.18   0.24
     9   1    -0.05  -0.18  -0.04     0.46  -0.02  -0.36     0.31  -0.01  -0.23
    10   6    -0.05   0.16  -0.09     0.01   0.05  -0.01    -0.03  -0.00   0.05
    11   1     0.07   0.09  -0.14     0.05   0.01  -0.06    -0.17   0.08   0.10
    12   1    -0.05   0.27  -0.14    -0.06   0.09  -0.12    -0.05  -0.18   0.09
    13   6    -0.13   0.01  -0.10    -0.03   0.04   0.03     0.04  -0.01  -0.06
    14   8    -0.09  -0.10  -0.02     0.02  -0.02  -0.01     0.02  -0.00   0.03
    15   1    -0.17  -0.15  -0.26    -0.10  -0.07  -0.10    -0.11  -0.08  -0.34
    16   1     0.17   0.12   0.13     0.01   0.01  -0.08    -0.01   0.08   0.15
    17   6     0.07  -0.00   0.03     0.03   0.05  -0.04     0.09  -0.13   0.24
    18   8     0.03  -0.07  -0.06     0.03   0.01  -0.10    -0.10  -0.22   0.35
    19   7     0.13   0.03   0.15    -0.08   0.08  -0.02    -0.06   0.04  -0.02
    20   1     0.15   0.04   0.18    -0.06   0.16  -0.00     0.01   0.10   0.06
    21   1    -0.16  -0.02  -0.20     0.16   0.06  -0.01     0.10   0.04   0.00
    22  35    -0.02  -0.01   0.02    -0.01  -0.02   0.03    -0.01   0.08  -0.11
    23   1    -0.22  -0.04  -0.27     0.11  -0.13   0.05     0.07  -0.07   0.04
    24   1     0.12   0.02   0.15    -0.16  -0.13   0.08    -0.10  -0.08   0.05
                     13                     14                     15
                      A                      A                      A
 Frequencies --    361.2731               451.6660               492.1011
 Red. masses --      4.2134                 2.6372                 2.4691
 Frc consts  --      0.3240                 0.3170                 0.3523
 IR Inten    --      5.4445                 4.0409                18.1444
  Atom  AN      X      Y      Z        X      Y      Z        X      Y      Z
     1   6     0.02   0.08  -0.07    -0.01  -0.03   0.03    -0.00  -0.03   0.02
     2   6    -0.09  -0.16   0.02     0.02  -0.02  -0.07     0.02   0.00  -0.06
     3   6    -0.02   0.08   0.11     0.01  -0.03  -0.04     0.00  -0.01  -0.01
     4   6     0.08  -0.04   0.20    -0.01  -0.00   0.12     0.09   0.04  -0.04
     5   6    -0.02  -0.01  -0.07     0.01  -0.00   0.02    -0.00  -0.02   0.01
     6   6    -0.01   0.03   0.11    -0.00  -0.02  -0.06    -0.01  -0.03  -0.03
     7   6     0.05  -0.06  -0.07    -0.01   0.04   0.06     0.01   0.03   0.00
     8   1     0.10  -0.24   0.03    -0.01   0.08   0.04     0.09   0.02   0.10
     9   1     0.15  -0.06  -0.21    -0.02   0.02   0.06     0.06  -0.03  -0.12
    10   6     0.02  -0.10  -0.10     0.03   0.15  -0.02    -0.07   0.13  -0.02
    11   1     0.17  -0.14  -0.07     0.44  -0.10  -0.23    -0.10   0.13  -0.03
    12   1    -0.01  -0.00  -0.19     0.02   0.64  -0.23    -0.06   0.10   0.00
    13   6    -0.04  -0.09  -0.00    -0.12   0.07   0.14    -0.04   0.03  -0.08
    14   8    -0.12   0.07  -0.12    -0.02   0.01  -0.10     0.01  -0.12   0.09
    15   1     0.29   0.11   0.46    -0.04  -0.19   0.11     0.47   0.28   0.45
    16   1    -0.00  -0.12   0.10    -0.07  -0.11  -0.19     0.31   0.26   0.35
    17   6    -0.09  -0.12  -0.02     0.08  -0.07   0.01    -0.10  -0.12  -0.13
    18   8     0.05   0.03   0.06     0.04  -0.09   0.06     0.03   0.04   0.07
    19   7     0.04   0.15   0.08    -0.02  -0.06  -0.04    -0.02  -0.03  -0.02
    20   1     0.04   0.24   0.06    -0.00  -0.10  -0.02    -0.03  -0.06  -0.02
    21   1     0.05   0.10  -0.16    -0.02  -0.04   0.06     0.02  -0.02   0.05
    22  35     0.01   0.02  -0.02    -0.01   0.01  -0.01     0.00   0.01   0.01
    23   1    -0.04  -0.09  -0.16     0.02   0.03   0.07     0.01  -0.01   0.04
    24   1    -0.05  -0.03   0.15     0.01   0.01  -0.08    -0.02  -0.03  -0.03
                     16                     17                     18
                      A                      A                      A
 Frequencies --    504.0848               563.6088               590.4115
 Red. masses --      5.7801                 4.4125                 1.5489
 Frc consts  --      0.8653                 0.8258                 0.3181
 IR Inten    --     71.5840                25.8900               105.2115
  Atom  AN      X      Y      Z        X      Y      Z        X      Y      Z
     1   6    -0.00  -0.03   0.04    -0.01   0.00  -0.02     0.04   0.02   0.04
     2   6    -0.18  -0.13   0.33    -0.12   0.04   0.00     0.01   0.01  -0.03
     3   6     0.02  -0.01  -0.01    -0.03   0.00  -0.01     0.03  -0.01   0.05
     4   6    -0.08  -0.06  -0.08    -0.03   0.15   0.10     0.00   0.01   0.01
     5   6     0.01  -0.01   0.04    -0.01  -0.01  -0.01    -0.02   0.01  -0.03
     6   6    -0.02  -0.03  -0.06     0.03   0.00   0.06     0.03   0.02   0.04
     7   6     0.04   0.07   0.11    -0.07  -0.04  -0.17    -0.00  -0.03   0.02
     8   1     0.12   0.09   0.18    -0.09  -0.07  -0.19    -0.04  -0.02  -0.02
     9   1     0.09   0.04   0.01    -0.11  -0.09  -0.16    -0.05  -0.05   0.06
    10   6     0.03   0.14   0.04    -0.13   0.02  -0.10     0.00  -0.02  -0.01
    11   1     0.12   0.07  -0.04    -0.41   0.16  -0.04    -0.01  -0.03  -0.02
    12   1     0.10   0.28   0.08    -0.24  -0.26  -0.13     0.00  -0.02  -0.00
    13   6     0.04   0.01  -0.09    -0.01   0.17   0.08    -0.01  -0.00  -0.00
    14   8    -0.02   0.10  -0.05     0.15  -0.09   0.09    -0.01  -0.01   0.00
    15   1    -0.09   0.22  -0.11    -0.11   0.06   0.00     0.04   0.01   0.05
    16   1    -0.18   0.04   0.52    -0.43  -0.00  -0.18     0.04   0.01  -0.01
    17   6    -0.19  -0.12   0.18     0.04  -0.13   0.15     0.01   0.01  -0.00
    18   8     0.16   0.05  -0.17     0.17  -0.10  -0.07    -0.01   0.00   0.00
    19   7    -0.06  -0.06  -0.08     0.01   0.02   0.03    -0.10  -0.01  -0.14
    20   1     0.09  -0.06   0.12     0.10   0.06   0.14     0.56   0.14   0.71
    21   1     0.02  -0.04   0.09    -0.01   0.01  -0.05     0.16   0.04   0.20
    22  35     0.03   0.00  -0.03     0.00   0.01  -0.01    -0.00  -0.00   0.00
    23   1     0.03   0.02   0.09    -0.05  -0.03  -0.07    -0.10  -0.01  -0.13
    24   1    -0.04  -0.02  -0.10     0.00  -0.02   0.07    -0.03   0.02  -0.05
                     19                     20                     21
                      A                      A                      A
 Frequencies --    640.2959               653.5023               692.5302
 Red. masses --      2.8283                 2.7383                 2.6079
 Frc consts  --      0.6832                 0.6890                 0.7369
 IR Inten    --      1.1968                14.2247                17.7047
  Atom  AN      X      Y      Z        X      Y      Z        X      Y      Z
     1   6    -0.10   0.02  -0.16    -0.11  -0.09  -0.06     0.01  -0.01   0.03
     2   6    -0.00   0.03  -0.02     0.01  -0.05   0.00    -0.01   0.03  -0.03
     3   6     0.04  -0.03   0.07    -0.03   0.06  -0.07     0.17   0.06   0.20
     4   6    -0.00   0.03  -0.01     0.03  -0.04   0.04    -0.08   0.01   0.05
     5   6     0.17   0.09   0.16     0.04  -0.09   0.12    -0.00  -0.04   0.03
     6   6    -0.11   0.03  -0.12     0.02  -0.08   0.01    -0.08  -0.05  -0.07
     7   6    -0.02  -0.11   0.09     0.05   0.18  -0.16     0.09   0.06  -0.06
     8   1    -0.06  -0.10   0.04     0.07   0.17  -0.14    -0.09   0.12  -0.29
     9   1    -0.08  -0.17   0.12     0.08   0.23  -0.16    -0.14  -0.01   0.19
    10   6    -0.01  -0.05  -0.01     0.03   0.08  -0.01     0.07   0.00  -0.03
    11   1    -0.03  -0.09  -0.11     0.01   0.20   0.23    -0.14   0.20   0.24
    12   1     0.00   0.01  -0.00    -0.03  -0.12  -0.00    -0.02  -0.40  -0.00
    13   6    -0.01   0.01  -0.01     0.01  -0.03  -0.01    -0.01  -0.00  -0.00
    14   8    -0.00  -0.02   0.01    -0.01   0.02  -0.01    -0.02   0.01  -0.02
    15   1     0.01   0.03   0.01     0.03  -0.05   0.03    -0.04  -0.02   0.10
    16   1    -0.01   0.06   0.02     0.02  -0.12  -0.06     0.04   0.02  -0.02
    17   6    -0.01  -0.03  -0.01     0.03   0.07   0.01     0.02  -0.03  -0.01
    18   8     0.02  -0.00  -0.00    -0.05   0.01   0.00     0.03  -0.03   0.01
    19   7     0.06   0.03   0.01    -0.01  -0.02   0.09    -0.11  -0.00  -0.06
    20   1     0.28   0.12   0.29     0.35  -0.02   0.57    -0.30  -0.07  -0.30
    21   1    -0.32  -0.02  -0.36    -0.15  -0.08  -0.20     0.16   0.02   0.12
    22  35    -0.00   0.00   0.00    -0.00  -0.00   0.00    -0.00   0.00   0.00
    23   1     0.25   0.07   0.22    -0.01  -0.06   0.09     0.08  -0.03   0.13
    24   1    -0.28   0.04  -0.38    -0.13  -0.18  -0.04    -0.29  -0.13  -0.24
                     22                     23                     24
                      A                      A                      A
 Frequencies --    696.8250               714.6340               741.5940
 Red. masses --      4.3493                 4.3107                 1.2389
 Frc consts  --      1.2443                 1.2971                 0.4014
 IR Inten    --      4.3549                19.6098                91.4607
  Atom  AN      X      Y      Z        X      Y      Z        X      Y      Z
     1   6     0.01   0.01   0.00     0.00   0.01  -0.01    -0.08  -0.01  -0.09
     2   6    -0.05  -0.20   0.02     0.14  -0.10   0.16     0.00   0.01  -0.00
     3   6     0.09  -0.00   0.12     0.02  -0.00   0.04     0.00   0.00   0.00
     4   6     0.22  -0.06   0.05    -0.02  -0.19  -0.05    -0.01   0.00  -0.00
     5   6     0.01   0.02  -0.01     0.01   0.01  -0.00    -0.03  -0.01  -0.04
     6   6    -0.04   0.01  -0.05    -0.02   0.01   0.01    -0.01  -0.00  -0.01
     7   6    -0.07  -0.03  -0.01    -0.04  -0.06  -0.11    -0.00  -0.00   0.00
     8   1     0.09  -0.08   0.18    -0.12  -0.08  -0.20    -0.00  -0.00   0.01
     9   1    -0.03  -0.27  -0.27    -0.14  -0.12  -0.03     0.00   0.01  -0.00
    10   6    -0.16   0.13  -0.07    -0.07   0.04  -0.05     0.00  -0.01   0.00
    11   1    -0.10   0.06  -0.18    -0.15   0.05  -0.10     0.01  -0.01  -0.00
    12   1    -0.12   0.25  -0.06    -0.23   0.00  -0.25     0.01   0.01   0.01
    13   6     0.04  -0.00  -0.07     0.03   0.15   0.19     0.00   0.00   0.00
    14   8     0.03  -0.04   0.06     0.15   0.07  -0.02     0.00   0.00  -0.00
    15   1     0.23   0.05   0.05    -0.23  -0.45  -0.29    -0.01  -0.00  -0.01
    16   1    -0.13  -0.33  -0.17     0.24  -0.17   0.13    -0.00   0.01   0.00
    17   6     0.10   0.24   0.15    -0.14  -0.06  -0.18    -0.00  -0.01  -0.00
    18   8    -0.11   0.01  -0.04    -0.06   0.10   0.06     0.00  -0.00   0.00
    19   7    -0.02  -0.01  -0.05    -0.01   0.01  -0.01     0.03   0.00   0.03
    20   1    -0.16  -0.04  -0.24     0.01   0.04   0.01     0.06   0.00   0.08
    21   1     0.10   0.02   0.13     0.03   0.02   0.01     0.48   0.08   0.53
    22  35    -0.00  -0.01  -0.00     0.00   0.00   0.00     0.00   0.00   0.00
    23   1     0.10   0.03   0.09     0.01  -0.01  -0.01     0.40   0.07   0.47
    24   1    -0.10   0.03  -0.16    -0.09  -0.01  -0.07     0.16   0.03   0.18
                     25                     26                     27
                      A                      A                      A
 Frequencies --    784.9066               826.1327               830.1972
 Red. masses --      2.0564                 1.3220                 2.8186
 Frc consts  --      0.7464                 0.5316                 1.1446
 IR Inten    --     35.3346                20.0167                32.0206
  Atom  AN      X      Y      Z        X      Y      Z        X      Y      Z
     1   6    -0.01  -0.01   0.00     0.05   0.01   0.05     0.01  -0.00   0.01
     2   6     0.07   0.08   0.07     0.02  -0.00   0.02     0.03   0.03   0.02
     3   6     0.04   0.02   0.04     0.01   0.00   0.02     0.00  -0.01   0.02
     4   6     0.15   0.09   0.02     0.04   0.01   0.01    -0.17  -0.04   0.18
     5   6     0.00  -0.01   0.01    -0.02  -0.00  -0.02     0.01   0.02  -0.01
     6   6     0.02  -0.01   0.00    -0.09  -0.01  -0.09     0.00   0.01  -0.02
     7   6    -0.02   0.05  -0.02     0.04  -0.00   0.01    -0.10   0.02   0.04
     8   1     0.09   0.03   0.10    -0.06   0.04  -0.11     0.16  -0.12   0.38
     9   1     0.05   0.01  -0.15    -0.07  -0.04   0.12     0.12  -0.13  -0.40
    10   6    -0.04  -0.02   0.02     0.01   0.02  -0.02    -0.02   0.09  -0.06
    11   1     0.18  -0.10   0.03    -0.06   0.07   0.03    -0.24   0.17  -0.08
    12   1     0.01   0.16   0.01    -0.03  -0.08  -0.04     0.22  -0.05   0.32
    13   6    -0.01  -0.08  -0.02    -0.02   0.00  -0.01     0.13  -0.06  -0.15
    14   8    -0.05  -0.05   0.02    -0.02  -0.02   0.00     0.02   0.06   0.03
    15   1    -0.25  -0.10  -0.49    -0.03  -0.05  -0.07    -0.28  -0.09   0.05
    16   1    -0.49  -0.12  -0.41    -0.11  -0.07  -0.11     0.09  -0.22  -0.21
    17   6    -0.10  -0.08  -0.06    -0.01  -0.01  -0.01     0.04  -0.04  -0.12
    18   8     0.01   0.04   0.01    -0.01   0.01   0.00     0.02  -0.03   0.04
    19   7    -0.02  -0.00  -0.01    -0.01   0.00  -0.01     0.02  -0.02  -0.02
    20   1    -0.03  -0.03  -0.02     0.11   0.04   0.14     0.07  -0.02   0.03
    21   1     0.08   0.00   0.08    -0.26  -0.04  -0.29    -0.08  -0.03  -0.01
    22  35     0.00   0.00   0.00     0.00   0.00   0.00    -0.00   0.00   0.00
    23   1    -0.05  -0.00  -0.03     0.17   0.02   0.19     0.01   0.03   0.01
    24   1    -0.13  -0.04  -0.17     0.49   0.07   0.61     0.10   0.06   0.03
                     28                     29                     30
                      A                      A                      A
 Frequencies --    884.7333               899.9738               912.9706
 Red. masses --      2.2800                 4.4941                 1.3801
 Frc consts  --      1.0515                 2.1446                 0.6777
 IR Inten    --     15.6955                 4.0827                 2.3646
  Atom  AN      X      Y      Z        X      Y      Z        X      Y      Z
     1   6     0.00  -0.07  -0.05    -0.11   0.31   0.01     0.04   0.02   0.05
     2   6     0.03  -0.03   0.05     0.02  -0.02   0.03     0.01  -0.00   0.01
     3   6    -0.10  -0.04  -0.06     0.03  -0.05  -0.10    -0.02  -0.01  -0.03
     4   6     0.04  -0.01   0.05     0.02  -0.01   0.03     0.01  -0.00   0.01
     5   6     0.08   0.06  -0.03    -0.18  -0.14   0.21    -0.09  -0.01  -0.09
     6   6    -0.01   0.07   0.07     0.08  -0.18  -0.02     0.05   0.01   0.08
     7   6     0.10  -0.05   0.11     0.06  -0.04   0.08     0.02  -0.01   0.02
     8   1    -0.17   0.01  -0.22    -0.06   0.01  -0.07    -0.02  -0.01  -0.03
     9   1    -0.08   0.00   0.42    -0.02  -0.01   0.22     0.00   0.01   0.06
    10   6     0.07   0.11  -0.06     0.02   0.03  -0.05     0.01   0.02  -0.01
    11   1    -0.29   0.29   0.02    -0.20   0.10  -0.09    -0.05   0.05   0.00
    12   1    -0.02  -0.32  -0.02    -0.02  -0.16  -0.04     0.00  -0.06   0.00
    13   6    -0.05   0.04  -0.08    -0.03   0.04  -0.04    -0.01   0.01  -0.01
    14   8    -0.05  -0.03  -0.00    -0.02  -0.02   0.00    -0.01  -0.01  -0.00
    15   1    -0.02  -0.11  -0.02    -0.01  -0.07  -0.01    -0.01  -0.02  -0.01
    16   1    -0.17  -0.21  -0.23    -0.08  -0.12  -0.13    -0.03  -0.04  -0.05
    17   6    -0.00   0.00  -0.02    -0.00   0.00  -0.01    -0.00   0.00  -0.00
    18   8    -0.01   0.01   0.01    -0.01   0.01   0.00    -0.00   0.00   0.00
    19   7     0.00  -0.03   0.03     0.12   0.09  -0.10     0.01   0.00  -0.01
    20   1    -0.05   0.06  -0.05     0.09  -0.15  -0.12     0.04   0.01   0.03
    21   1     0.18  -0.05   0.24     0.06   0.36   0.09    -0.29  -0.04  -0.29
    22  35     0.00  -0.00   0.00    -0.00  -0.00   0.00    -0.00  -0.00   0.00
    23   1    -0.12   0.02  -0.27    -0.21  -0.39  -0.02     0.48   0.07   0.56
    24   1    -0.16  -0.00  -0.03     0.24   0.10  -0.22    -0.31  -0.05  -0.37
                     31                     32                     33
                      A                      A                      A
 Frequencies --    963.4363               997.3911              1002.3994
 Red. masses --      2.4351                 1.3207                 2.0072
 Frc consts  --      1.3317                 0.7741                 1.1883
 IR Inten    --     28.8861                 2.2805                43.6589
  Atom  AN      X      Y      Z        X      Y      Z        X      Y      Z
     1   6    -0.01   0.06  -0.01     0.00  -0.00   0.00     0.01  -0.03   0.00
     2   6     0.01   0.02  -0.02     0.06   0.04   0.07     0.04  -0.01  -0.03
     3   6    -0.03  -0.08   0.06     0.00   0.00   0.00     0.01   0.03   0.02
     4   6     0.03   0.01  -0.03    -0.07  -0.05  -0.09     0.05  -0.01  -0.02
     5   6     0.00   0.03  -0.00    -0.00   0.00   0.00    -0.00   0.01   0.00
     6   6    -0.13   0.05   0.10     0.00  -0.01  -0.01     0.08  -0.05  -0.07
     7   6    -0.07   0.00  -0.10    -0.01  -0.00  -0.01    -0.13   0.01   0.05
     8   1    -0.01  -0.20   0.01     0.00  -0.02   0.01     0.00  -0.36   0.30
     9   1     0.04  -0.02  -0.27     0.01   0.01  -0.03     0.16   0.10  -0.26
    10   6     0.10   0.08   0.05     0.00  -0.01   0.02     0.13  -0.01  -0.06
    11   1     0.14   0.23   0.41     0.03  -0.03   0.00    -0.17   0.18   0.11
    12   1     0.08  -0.13   0.11     0.01   0.02   0.00     0.21  -0.35   0.18
    13   6    -0.03  -0.02   0.06    -0.00   0.01   0.02    -0.08   0.08   0.05
    14   8    -0.02  -0.00  -0.02     0.01   0.01  -0.00    -0.02  -0.03  -0.02
    15   1     0.06  -0.04   0.01     0.41   0.29   0.51     0.08  -0.32   0.05
    16   1    -0.05   0.07   0.01    -0.39  -0.27  -0.47    -0.02   0.06   0.01
    17   6    -0.02  -0.00   0.03     0.00   0.00  -0.01    -0.06  -0.01   0.08
    18   8    -0.00   0.01  -0.01    -0.00   0.00   0.00    -0.01   0.02  -0.02
    19   7     0.14  -0.09  -0.10    -0.00   0.00   0.00    -0.02   0.02   0.01
    20   1     0.13  -0.09  -0.12    -0.00   0.00   0.01    -0.02  -0.00   0.01
    21   1    -0.31  -0.08   0.30     0.01   0.00  -0.02     0.08   0.01  -0.09
    22  35     0.00  -0.00  -0.00    -0.00  -0.00   0.00     0.00  -0.00  -0.00
    23   1     0.21  -0.39  -0.15    -0.02   0.03   0.01    -0.19   0.35   0.10
    24   1    -0.07   0.12   0.10    -0.00  -0.01  -0.00     0.11  -0.03  -0.07
                     34                     35                     36
                      A                      A                      A
 Frequencies --   1026.2954              1046.6818              1064.3489
 Red. masses --      1.9852                 1.3425                 3.1168
 Frc consts  --      1.2319                 0.8666                 2.0803
 IR Inten    --     12.5377                 3.7806               160.1734
  Atom  AN      X      Y      Z        X      Y      Z        X      Y      Z
     1   6    -0.02   0.00   0.02     0.01  -0.03  -0.00    -0.00   0.02  -0.00
     2   6     0.02  -0.01  -0.00     0.02   0.01  -0.02     0.14   0.08  -0.16
     3   6     0.01   0.04   0.02     0.00   0.00   0.00     0.00  -0.02  -0.03
     4   6    -0.00  -0.01   0.00    -0.00  -0.01   0.00    -0.03  -0.08   0.05
     5   6     0.02   0.02  -0.02     0.01  -0.08   0.01    -0.01   0.02   0.00
     6   6    -0.05   0.00   0.04    -0.00   0.10  -0.02    -0.03  -0.02   0.03
     7   6     0.02   0.14   0.08    -0.00   0.03   0.01     0.06  -0.04  -0.04
     8   1     0.13   0.23   0.20     0.04   0.06   0.05     0.05   0.25  -0.13
     9   1     0.20   0.41   0.06     0.02   0.04  -0.01    -0.15  -0.23   0.10
    10   6    -0.04  -0.14  -0.11     0.00  -0.02  -0.02    -0.06   0.04   0.03
    11   1    -0.21  -0.20  -0.38    -0.06  -0.02  -0.07     0.04  -0.05  -0.09
    12   1    -0.01  -0.07  -0.10     0.06  -0.01   0.06     0.05   0.19   0.12
    13   6    -0.02   0.07  -0.02    -0.01   0.02  -0.01     0.07  -0.05  -0.06
    14   8     0.02  -0.01   0.01     0.00  -0.00  -0.00     0.02   0.03   0.01
    15   1     0.03  -0.14   0.06     0.04  -0.13   0.06     0.09  -0.57   0.26
    16   1     0.02  -0.05  -0.04     0.01   0.00  -0.03     0.13   0.05  -0.21
    17   6    -0.02  -0.00   0.02    -0.03  -0.01   0.04    -0.18  -0.06   0.23
    18   8    -0.00   0.01  -0.00    -0.00   0.01  -0.01    -0.01   0.05  -0.05
    19   7     0.06  -0.05  -0.05    -0.06  -0.00   0.05     0.00   0.01  -0.00
    20   1     0.06  -0.13  -0.05    -0.06  -0.00   0.05    -0.02   0.05  -0.04
    21   1    -0.28  -0.12   0.26     0.10   0.01  -0.10     0.04   0.03  -0.02
    22  35     0.00  -0.00  -0.00     0.00  -0.00  -0.00     0.00   0.00  -0.00
    23   1     0.11  -0.14  -0.07     0.26  -0.54  -0.13    -0.06   0.11   0.03
    24   1    -0.18  -0.20   0.19     0.29   0.57  -0.33    -0.15  -0.21   0.15
                     37                     38                     39
                      A                      A                      A
 Frequencies --   1125.9735              1133.9281              1152.1091
 Red. masses --      1.8672                 1.5872                 1.3916
 Frc consts  --      1.3947                 1.2024                 1.0883
 IR Inten    --     16.2116                44.3066                32.2277
  Atom  AN      X      Y      Z        X      Y      Z        X      Y      Z
     1   6     0.06  -0.10  -0.04     0.02   0.06  -0.02    -0.03  -0.07   0.03
     2   6    -0.00  -0.00   0.00    -0.02  -0.04   0.04    -0.01  -0.02   0.02
     3   6    -0.02  -0.07   0.04     0.04  -0.03  -0.02    -0.00  -0.00   0.01
     4   6    -0.00   0.00   0.00     0.01   0.02   0.00     0.00   0.01   0.00
     5   6    -0.09  -0.02   0.09    -0.00   0.03  -0.00    -0.00  -0.03   0.01
     6   6    -0.10   0.05   0.07    -0.04   0.02   0.03     0.03  -0.03  -0.02
     7   6     0.02   0.05  -0.02     0.00  -0.03  -0.07     0.02  -0.03  -0.05
     8   1     0.08   0.19   0.01     0.15   0.30   0.02     0.07   0.17  -0.04
     9   1     0.07   0.16   0.01    -0.06  -0.10  -0.04    -0.06  -0.10  -0.00
    10   6    -0.01  -0.02  -0.01     0.03  -0.04   0.05     0.01  -0.02   0.04
    11   1     0.00  -0.03  -0.02     0.01  -0.09  -0.08     0.03  -0.06  -0.04
    12   1    -0.01   0.01  -0.03     0.42   0.12   0.50     0.24   0.09   0.29
    13   6    -0.00   0.01  -0.01    -0.07   0.12  -0.05    -0.04   0.07  -0.03
    14   8     0.00  -0.00   0.00    -0.01  -0.03   0.00    -0.00  -0.01   0.00
    15   1    -0.01   0.00  -0.00    -0.00  -0.14   0.01     0.00  -0.09   0.01
    16   1     0.02  -0.02  -0.00    -0.00  -0.07   0.01     0.01  -0.05  -0.00
    17   6     0.00   0.00  -0.01     0.02   0.01  -0.03     0.01   0.01  -0.01
    18   8    -0.00  -0.00   0.00    -0.00  -0.00   0.01    -0.00  -0.00   0.00
    19   7     0.09  -0.01  -0.08    -0.03  -0.04   0.03     0.01   0.09  -0.02
    20   1     0.09   0.26  -0.13    -0.02  -0.27   0.08     0.00   0.59  -0.12
    21   1     0.37   0.02  -0.33     0.26   0.18  -0.28    -0.39  -0.24   0.40
    22  35    -0.00  -0.00   0.00    -0.00  -0.00   0.00    -0.00  -0.00   0.00
    23   1    -0.36   0.43   0.24     0.04  -0.05  -0.03    -0.03   0.01   0.02
    24   1     0.08   0.35  -0.12    -0.16  -0.17   0.16     0.09   0.06  -0.09
                     40                     41                     42
                      A                      A                      A
 Frequencies --   1197.0697              1251.2365              1270.5899
 Red. masses --      1.6647                 1.1725                 1.3210
 Frc consts  --      1.4055                 1.0816                 1.2565
 IR Inten    --     39.6898                23.2625                10.0768
  Atom  AN      X      Y      Z        X      Y      Z        X      Y      Z
     1   6     0.01   0.01  -0.01    -0.01   0.00   0.00    -0.00   0.00   0.00
     2   6     0.01  -0.02  -0.00     0.03  -0.02  -0.02    -0.02  -0.00   0.02
     3   6    -0.01   0.03   0.05     0.01  -0.03  -0.02    -0.02  -0.01  -0.01
     4   6    -0.02   0.01   0.04    -0.01   0.03  -0.00    -0.01  -0.00   0.00
     5   6     0.01  -0.00  -0.01    -0.00   0.01  -0.00     0.00   0.00  -0.00
     6   6     0.01  -0.02  -0.02     0.00  -0.00   0.00     0.01  -0.00   0.00
     7   6    -0.01  -0.04  -0.05    -0.01   0.02   0.03     0.00   0.04   0.05
     8   1    -0.21  -0.46  -0.18     0.09   0.15   0.12     0.03   0.04   0.09
     9   1     0.22   0.53   0.14    -0.08  -0.18  -0.06    -0.13  -0.30  -0.06
    10   6    -0.01  -0.01   0.12     0.02  -0.03  -0.03    -0.03  -0.06  -0.04
    11   1     0.20  -0.11   0.08     0.15   0.04   0.23     0.51  -0.01   0.54
    12   1    -0.13   0.15  -0.11    -0.04  -0.09  -0.09    -0.16  -0.09  -0.20
    13   6    -0.02   0.10  -0.15    -0.03   0.04   0.01    -0.01   0.06  -0.09
    14   8     0.01  -0.01   0.02     0.00  -0.01  -0.00     0.04   0.01   0.02
    15   1    -0.07  -0.05  -0.01    -0.11   0.48  -0.18     0.06  -0.40   0.15
    16   1     0.24  -0.23  -0.13     0.52  -0.43  -0.23    -0.16   0.09   0.07
    17   6    -0.02  -0.01   0.02    -0.04  -0.02   0.05     0.02   0.01  -0.03
    18   8     0.00   0.00  -0.00     0.00   0.00  -0.00    -0.00  -0.00   0.00
    19   7     0.01  -0.02  -0.01    -0.01   0.00   0.01    -0.00  -0.00   0.00
    20   1     0.01  -0.17   0.02    -0.02   0.10  -0.01    -0.00  -0.01   0.00
    21   1    -0.04  -0.01   0.02     0.03   0.02  -0.02     0.01   0.01   0.00
    22  35     0.00  -0.00   0.00     0.00   0.00  -0.00    -0.00  -0.00   0.00
    23   1    -0.03   0.07   0.01     0.03  -0.05  -0.02     0.00   0.01  -0.00
    24   1     0.09   0.09  -0.07    -0.02  -0.04   0.02     0.00   0.01  -0.02
                     43                     44                     45
                      A                      A                      A
 Frequencies --   1282.4339              1299.4908              1359.3043
 Red. masses --      2.5094                 1.4241                 1.5109
 Frc consts  --      2.4316                 1.4169                 1.6448
 IR Inten    --      5.9715                 2.5821                 5.7281
  Atom  AN      X      Y      Z        X      Y      Z        X      Y      Z
     1   6    -0.03  -0.12   0.05    -0.04  -0.03   0.04     0.02   0.01  -0.01
     2   6    -0.00  -0.00   0.00    -0.00   0.00   0.00    -0.02   0.00   0.01
     3   6     0.02   0.19  -0.06     0.08  -0.07  -0.04    -0.01   0.02  -0.00
     4   6    -0.00   0.01  -0.00    -0.00  -0.00   0.01     0.00   0.02   0.00
     5   6    -0.06  -0.12   0.07    -0.05   0.05   0.03     0.02  -0.04  -0.01
     6   6     0.01   0.18  -0.03     0.03   0.05  -0.03    -0.02   0.00   0.02
     7   6     0.01  -0.01   0.04    -0.06  -0.03  -0.00    -0.04   0.01  -0.03
     8   1    -0.20  -0.46  -0.08     0.04   0.04   0.10     0.18   0.23   0.17
     9   1    -0.19  -0.41  -0.04     0.15   0.29  -0.01    -0.19  -0.33  -0.14
    10   6    -0.01  -0.02   0.03     0.04   0.02   0.04     0.13   0.00   0.14
    11   1    -0.00  -0.07  -0.07     0.00   0.01  -0.03    -0.19  -0.11  -0.39
    12   1     0.08   0.03   0.13    -0.20  -0.08  -0.25    -0.36  -0.17  -0.46
    13   6    -0.01   0.02  -0.01     0.00   0.00  -0.03    -0.00   0.02  -0.05
    14   8    -0.00  -0.01   0.00    -0.00   0.00   0.00    -0.02  -0.01   0.00
    15   1    -0.01   0.03  -0.01     0.01  -0.10   0.03     0.02  -0.15   0.04
    16   1     0.08  -0.07  -0.03    -0.07   0.05   0.02     0.05  -0.07  -0.03
    17   6    -0.00  -0.00   0.00     0.01   0.00  -0.01     0.00   0.00  -0.00
    18   8     0.00  -0.00  -0.00    -0.00  -0.00   0.00     0.00  -0.00   0.00
    19   7     0.09   0.03  -0.08    -0.01   0.01   0.01    -0.00   0.01   0.00
    20   1     0.09  -0.20  -0.06    -0.01   0.54  -0.07     0.00  -0.17   0.03
    21   1     0.12  -0.08  -0.09     0.22   0.08  -0.21    -0.09  -0.04   0.09
    22  35    -0.00  -0.00  -0.00    -0.00  -0.00   0.00    -0.00  -0.00   0.00
    23   1    -0.04  -0.20   0.07     0.16  -0.34  -0.08    -0.07   0.12   0.04
    24   1    -0.30  -0.26   0.28    -0.19  -0.30   0.21     0.03   0.09  -0.03
                     46                     47                     48
                      A                      A                      A
 Frequencies --   1383.9648              1399.9139              1444.4458
 Red. masses --      1.6630                 1.6933                 1.0919
 Frc consts  --      1.8767                 1.9552                 1.3422
 IR Inten    --     14.1130                38.5938                13.5039
  Atom  AN      X      Y      Z        X      Y      Z        X      Y      Z
     1   6    -0.00   0.00  -0.00     0.00   0.00  -0.00    -0.00  -0.00   0.00
     2   6    -0.04   0.01   0.02     0.12  -0.06  -0.07    -0.01   0.01   0.00
     3   6    -0.00  -0.06  -0.01    -0.00  -0.01  -0.01    -0.00   0.00  -0.00
     4   6     0.01   0.03  -0.02    -0.03  -0.10   0.09     0.00   0.00  -0.00
     5   6    -0.02   0.10  -0.00    -0.00   0.02  -0.00     0.00  -0.00   0.00
     6   6    -0.01  -0.08   0.02    -0.01  -0.02   0.01     0.00   0.00  -0.00
     7   6     0.07   0.16   0.02     0.01   0.05   0.00    -0.00  -0.00  -0.01
     8   1    -0.32  -0.47  -0.28    -0.06  -0.13  -0.03     0.07  -0.02   0.08
     9   1    -0.06  -0.36  -0.28    -0.07  -0.18  -0.09    -0.06  -0.02   0.08
    10   6    -0.00  -0.04   0.04     0.03  -0.04   0.04     0.04  -0.07  -0.01
    11   1    -0.17  -0.10  -0.24    -0.05  -0.04  -0.01    -0.50   0.32   0.37
    12   1     0.04   0.08   0.05    -0.01   0.06  -0.06     0.06   0.64  -0.23
    13   6     0.01  -0.00   0.00    -0.03   0.08  -0.05     0.01  -0.00  -0.01
    14   8    -0.01  -0.01  -0.00     0.01  -0.01   0.01    -0.00  -0.00  -0.00
    15   1     0.06  -0.19   0.06    -0.19   0.57  -0.19     0.02  -0.07   0.03
    16   1     0.15  -0.14  -0.06    -0.49   0.43   0.17     0.02  -0.02  -0.01
    17   6     0.00   0.00  -0.01    -0.01   0.00   0.02     0.00   0.00  -0.00
    18   8     0.00  -0.01   0.00    -0.02   0.02  -0.01     0.00  -0.00   0.00
    19   7    -0.01  -0.04   0.01    -0.00  -0.01   0.00     0.00   0.00  -0.00
    20   1    -0.02   0.26  -0.04    -0.01   0.05  -0.01     0.00  -0.01   0.00
    21   1     0.11   0.06  -0.10     0.02   0.01  -0.02     0.00  -0.00  -0.00
    22  35    -0.00  -0.00   0.00     0.00  -0.00  -0.00    -0.00   0.00   0.00
    23   1     0.10  -0.10  -0.07     0.02  -0.01  -0.01     0.00  -0.00   0.00
    24   1     0.06   0.03  -0.07     0.02   0.02  -0.02    -0.02  -0.02   0.00
                     49                     50                     51
                      A                      A                      A
 Frequencies --   1464.7746              1485.6218              1515.4859
 Red. masses --      1.2702                 2.5724                 3.5952
 Frc consts  --      1.6057                 3.3451                 4.8649
 IR Inten    --      8.1282                10.3245                 7.5593
  Atom  AN      X      Y      Z        X      Y      Z        X      Y      Z
     1   6    -0.01  -0.05   0.02    -0.02  -0.17   0.05     0.12   0.00  -0.10
     2   6    -0.00   0.00   0.00     0.00  -0.00  -0.00     0.00  -0.00   0.00
     3   6    -0.01   0.02  -0.00     0.05   0.06  -0.05     0.25  -0.17  -0.19
     4   6     0.00   0.00  -0.00    -0.00   0.00   0.00    -0.00   0.01  -0.00
     5   6    -0.02   0.08   0.00    -0.04   0.17   0.01    -0.02  -0.07   0.03
     6   6    -0.01  -0.06   0.02    -0.06  -0.14   0.07    -0.12   0.05   0.10
     7   6     0.01   0.02  -0.08    -0.02  -0.08   0.05    -0.02   0.05   0.02
[...]
 .00012895,0.00023810,0.00042263,-0.00056007,-0.00012633,-0.00000745,0.
 00009601,0.00000713,0.00000312,-0.00005429,-0.00000939,-0.00005830,-0.
 00005024,-0.00018555,-0.00052723,-0.00053690,0.00011889,-0.00000211,-0
 .00003283,0.00007034,-0.00007895,0.00005058,0.00170951,0.00060396,0.00
 759133,0.00213951,0.00255404,-0.00198679,-0.00200482,-0.00125841,-0.00
 469122,0.07283998,-0.00022633,0.00001909,-0.00015656,-0.05911048,-0.18
 967539,0.13905664,-0.00045873,-0.00009387,-0.00007787,-0.00715344,-0.0
 1705913,0.01751718,0.00004812,-0.00011018,-0.00006843,0.00006514,0.000
 09204,-0.00025307,-0.00003395,-0.00016457,-0.00006844,0.00000461,0.000
 03038,0.00002468,0.00002340,0.00006459,0.00004162,-0.00069798,-0.00132
 437,0.00041739,0.00030404,-0.00019806,0.00026157,0.00002803,-0.0000104
 4,-0.00001350,0.00660889,0.00143473,0.00284824,-0.00085374,0.00043164,
 -0.00105072,-0.00211103,-0.00111979,-0.00236920,0.05549774,0.20219522,
 0.00022018,-0.00024333,-0.00005217,0.06419620,0.14130296,-0.16745502,-
 0.00062374,-0.00002286,-0.00021111,0.00036506,-0.00132432,0.00580672,0
 .00009202,0.00001869,0.00037573,0.00002627,0.00018672,-0.00039982,-0.0
 0004741,-0.00002301,-0.00011960,-0.00000054,0.00000553,0.00004204,-0.0
 0002382,-0.00003945,0.00001621,-0.00050048,-0.00126621,-0.00010039,0.0
 0028750,-0.00017854,0.00014468,0.00006349,-0.00004434,0.00004095,0.004
 90778,-0.00021020,0.00764587,0.00094217,0.00192204,-0.00168927,-0.0031
 9945,-0.00279475,-0.00352018,-0.07440406,-0.14745957,0.16981735,-0.000
 17615,-0.00006777,-0.00009914,-0.16409406,0.00986214,0.07500629,0.0044
 6345,0.00165075,0.00068647,-0.02114212,0.01767637,-0.00043233,-0.00024
 487,-0.00003755,0.00049153,-0.00024963,-0.00074270,0.00362783,0.000225
 26,0.00046054,-0.00128400,-0.00000643,-0.00005446,0.00044351,-0.000043
 02,-0.00000733,0.00025433,-0.00101968,-0.00080222,0.00034064,0.0002793
 6,-0.00022745,0.00044234,-0.00005727,0.00021664,0.00005071,-0.00053793
 ,0.00448126,-0.00853001,-0.00313036,-0.00476147,0.00371499,0.00539398,
 0.00445262,0.00645508,-0.00611833,0.00706256,0.00823863,0.60682888,0.0
 0073627,0.00049463,0.00006330,0.02719033,-0.08305935,-0.01676588,0.000
 50676,-0.00113297,-0.00075715,0.02901062,-0.01077436,-0.01590909,-0.00
 040672,0.00022125,0.00067258,-0.00034313,-0.00039012,0.00006696,0.0004
 6354,0.00005855,-0.00065169,0.00011021,-0.00023579,0.00060929,-0.00034
 733,-0.00007039,0.00014649,0.00021329,-0.00017074,0.00015733,-0.000093
 03,-0.00003494,-0.00009541,-0.00023266,0.00013510,0.00004094,0.0022906
 1,0.00103521,-0.00440184,-0.00330649,0.00019379,0.00150601,0.00416850,
 -0.00238504,0.00465628,-0.01506835,0.00474354,0.01017927,-0.40924417,0
 .62047803,-0.00122816,-0.00208049,0.00177339,0.06858564,-0.00620916,-0
 .12192712,-0.00499271,0.00066693,0.00028389,0.00467488,-0.00532577,0.0
 0588718,0.00113469,-0.00022763,-0.00133549,0.00077476,0.00086538,-0.00
 355804,-0.00034833,-0.00029544,0.00230895,-0.00018162,0.00011881,-0.00
 135397,0.00040734,-0.00018777,-0.00050688,0.00114253,0.00309065,0.0003
 1828,-0.00083285,0.00062520,-0.00062206,0.00011714,-0.00010824,-0.0003
 7153,-0.01095207,-0.00952101,0.00409272,0.00525120,0.00300416,-0.00404
 708,0.00280496,0.00441177,0.00581366,0.01664185,-0.00578083,-0.0090777
 7,0.01140945,-0.13008134,0.29249797,-0.00008467,0.00002874,0.00012868,
 -0.03455968,0.05488813,-0.00068212,-0.00160868,-0.00057439,-0.00024806
 ,0.00146867,-0.00449109,0.00574680,0.00008551,-0.00011868,-0.00010118,
 0.00016638,0.00031150,-0.00132365,0.00009331,-0.00010581,0.00026246,0.
 00009562,-0.00003989,0.00003078,-0.00009235,-0.00001142,-0.00003668,0.
 00032096,0.00048034,-0.00002803,-0.00011678,0.00007668,-0.00022637,-0.
 00000506,-0.00004736,-0.00002250,-0.00090911,-0.00334472,0.00164762,0.
 00118899,0.00190090,-0.00057335,-0.00120843,0.00090811,-0.00079071,0.0
 0102539,-0.00039647,-0.00295117,-0.38316400,0.36525752,-0.10625136,0.4
 0316927,-0.00027328,-0.00024130,-0.00009855,0.04146586,-0.02049565,0.0
 0286570,0.00089429,0.00071014,0.00042586,-0.00331624,0.00746498,-0.002
 04851,0.00009302,0.00003422,-0.00027620,-0.00002688,-0.00009616,0.0007
 6731,-0.00030726,0.00004440,0.00033813,-0.00018258,0.00013861,-0.00045
 777,0.00024681,0.00002790,-0.00010864,-0.00015793,-0.00017335,-0.00020
 710,0.00007129,0.00001883,0.00015167,0.00008517,-0.00004154,-0.0000095
 1,0.00014286,0.00199014,0.00091141,0.00007258,-0.00086690,-0.00030464,
 -0.00077143,-0.00104233,-0.00148917,0.00072395,0.00045026,-0.00026439,
 0.38231879,-0.51004971,0.14433552,-0.42771650,0.54965136,0.00030080,0.
 00046970,-0.00031981,0.01339990,-0.00886413,0.01897576,0.00092416,-0.0
 0021316,-0.00014629,0.00230654,-0.00169569,0.00045980,-0.00027360,0.00
 002317,0.00037960,-0.00013718,-0.00017979,0.00064350,0.00017664,0.0000
 8158,-0.00079838,0.00013918,-0.00004920,0.00055123,-0.00018695,0.00004
 826,0.00019560,-0.00014694,-0.00069131,-0.00001160,0.00018118,-0.00018
 668,0.00011423,-0.00005697,0.00003508,0.00012718,0.00249213,0.00255640
 ,-0.00223956,-0.00156234,-0.00095185,0.00132309,-0.00063947,-0.0010649
 7,-0.00117484,-0.00140843,-0.00133721,0.00065711,-0.13182397,0.1675967
 4,-0.12497396,0.12735570,-0.19584639,0.13913620,-0.13350343,-0.0718515
 0,0.07702599,-0.00010530,-0.00300953,-0.00235280,-0.13647117,0.0907597
 6,0.05395101,-0.00242157,0.00071722,-0.00284658,-0.04221222,0.00654643
 ,0.04790041,-0.04234267,0.00695344,0.04799469,0.00672897,-0.00998367,-
 0.00615024,0.00130592,-0.00037425,-0.00095989,-0.00012256,-0.00088785,
 0.00003529,-0.00121993,-0.00313707,0.00056109,-0.00044824,-0.00059778,
 -0.00054299,0.00005596,-0.00009567,0.00000300,0.00070843,0.00075822,0.
 00028403,-0.00036381,-0.00024716,-0.00003421,-0.00020727,-0.00023874,-
 0.00032694,0.00016273,0.00012051,0.00022281,0.00080644,-0.00149343,0.0
 0277238,-0.00035250,0.00077736,-0.00071438,0.64880741,-0.07280832,-0.2
 5140938,0.09553338,0.00206714,0.00036941,0.00190944,0.08394751,-0.2891
 4381,-0.04781671,0.00064078,-0.00228035,-0.00297413,-0.02536583,-0.004
 40115,0.02729348,0.03908302,-0.01318605,-0.03409000,0.01150034,-0.0280
 0915,-0.00660805,0.00121137,0.00224309,-0.00162237,-0.00001797,-0.0003
 9979,-0.00126751,0.00193539,-0.00087177,0.00119148,-0.00021084,0.00019
 561,0.00000237,-0.00019525,-0.00000870,-0.00019988,-0.00017625,0.00086
 647,-0.00071818,0.00006297,-0.00025332,0.00032527,-0.00012462,-0.00032
 811,0.00009721,-0.00018683,-0.00010275,0.00008525,-0.00024233,0.000547
 58,0.00100495,0.00013276,-0.00020340,-0.00014989,-0.05503005,0.6787101
 1,0.07469783,0.09190481,-0.13633546,-0.00096362,-0.00221495,-0.0018180
 2,0.05120458,-0.04515831,-0.09338550,-0.00147820,-0.00003168,-0.002422
 54,0.05212350,-0.00333490,-0.03239852,0.04054756,-0.00134128,-0.023341
 20,-0.00735124,0.01266179,0.00341208,-0.00115922,-0.00029688,0.0013832
 0,0.00017971,0.00285077,-0.00103991,-0.00107917,-0.00034586,-0.0010696
 5,-0.00008079,-0.00005281,0.00024374,0.00007932,0.00029724,0.00032297,
 0.00048321,0.00042515,0.00019833,-0.00024122,-0.00013169,-0.00006503,0
 .00019433,0.00015140,0.00015116,0.00025655,0.00009047,0.00012391,0.000
 42847,-0.00005849,-0.00070447,-0.00006921,0.00003596,0.00024024,-0.432
 44391,-0.03690320,0.45404041,-0.00578737,0.00291289,-0.00024094,-0.000
 52343,0.00037715,0.00052126,-0.00758059,-0.00274888,0.00217301,0.00037
 182,-0.00034139,0.00039074,0.00172052,-0.00177656,0.00037955,0.0014568
 1,0.00223911,-0.00026070,-0.00031657,-0.00047778,-0.00168710,0.0003040
 5,0.00031572,0.00016844,-0.00004151,0.00003882,0.00007661,0.00006763,-
 0.00021658,0.00013071,-0.00006422,-0.00010019,-0.00014234,-0.00002091,
 -0.00000870,-0.00005956,0.00063998,-0.00046098,0.00024051,-0.00040797,
 0.00022879,-0.00006983,-0.00003082,0.00005944,0.00003898,-0.00013694,0
 .00001954,0.00009560,0.00061738,0.00177275,-0.00377783,0.00020984,-0.0
 0098111,0.00112350,-0.29899896,0.03200925,0.22060656,0.30842053,-0.020
 06073,0.01243390,0.01241393,-0.00004387,0.00003966,0.00012500,0.020903
 46,0.00791815,-0.01762402,0.00015489,-0.00006259,0.00006816,-0.0028161
 8,-0.00476811,0.00364291,0.00305806,-0.00622154,-0.00159843,0.00063540
 ,0.00133523,-0.00143072,-0.00088100,-0.00107083,0.00100004,-0.00024339
 ,0.00032524,0.00022378,-0.00026105,-0.00009995,0.00015195,0.00002069,0
 .00000528,0.00002005,0.00003525,0.00013731,0.00020034,-0.00020441,-0.0
 0004559,-0.00031676,0.00017361,0.00004012,0.00011592,-0.00000249,-0.00
 001068,0.00003534,-0.00004811,0.00000955,0.00005044,-0.00000292,0.0013
 1128,-0.00105648,0.00026650,-0.00085364,0.00043684,0.03137135,-0.07564
 398,-0.01306849,-0.03269470,0.06406237,0.00535982,-0.00525965,-0.00887
 696,0.00012463,0.00058838,0.00001114,-0.00016837,0.00054415,-0.0054166
 9,0.00026151,-0.00018547,0.00008303,0.00077268,0.00356848,0.00136148,0
 .00038242,-0.00164725,0.00257096,-0.00227710,-0.00000324,-0.00103680,0
 .00030716,-0.00003145,0.00023868,0.00002421,0.00054424,0.00003627,0.00
 024607,-0.00018324,-0.00005642,-0.00000503,0.00004087,-0.00003697,-0.0
 0004040,-0.00004307,-0.00007584,-0.00008662,-0.00080044,0.00023658,0.0
 0015530,0.00033459,-0.00010496,-0.00004935,-0.00000020,-0.00002607,-0.
 00003840,-0.00000077,-0.00005978,-0.00129788,0.00021498,-0.00108136,0.
 00029963,-0.00020688,0.00008445,0.21675245,-0.01400231,-0.17230737,-0.
 22216870,0.01656012,0.18270901,-0.07494246,0.09588941,0.03086343,-0.00
 012648,0.00000951,0.00003077,-0.00107739,-0.00169605,0.00298039,-0.000
 02465,0.00003659,-0.00001601,0.00305818,0.01737513,-0.00295839,-0.0014
 7038,0.00156075,0.00484215,0.00151002,-0.00044304,0.00112191,-0.000005
 71,0.00004908,-0.00006845,-0.00024830,-0.00049059,0.00017839,0.0001234
 4,0.00037717,-0.00013718,0.00003160,0.00004945,0.00002153,0.00000306,-
 0.00004842,-0.00004228,0.00003537,-0.00010213,0.00006236,0.00000974,0.
 00007107,-0.00003060,-0.00001302,0.00000409,-0.00001196,0.00001301,0.0
 0000683,-0.00007508,0.00003371,-0.00032319,-0.00001006,-0.00001367,0.0
 0020350,-0.00000606,0.00626597,-0.01775786,-0.00539443,-0.00041948,0.0
 0037080,-0.00141018,0.06758246,0.08955441,-0.32765431,-0.03394251,-0.0
 0006793,0.00009028,0.00010515,-0.00293803,0.00022601,0.00260360,0.0000
 5748,0.00000036,-0.00000729,-0.00170083,-0.00016231,0.00173093,0.00119
 302,0.00050409,-0.00052825,0.00070830,-0.00021431,-0.00004969,-0.00000
 189,0.00004490,-0.00003390,-0.00006946,-0.00021641,0.00002762,0.000026
 02,0.00000561,0.00005718,-0.00002991,-0.00000907,-0.00004320,0.0000080
 7,0.00000493,-0.00001954,0.00010297,-0.00008901,0.00011647,-0.00005171
 ,0.00004514,-0.00005228,0.00000231,0.00000450,0.00001071,-0.00000374,-
 0.00001138,-0.00007915,0.00003218,-0.00028361,-0.00001196,-0.00004547,
 0.00017118,-0.00001442,0.00840155,-0.01572234,-0.00563682,0.00004058,0
 .00007350,-0.00024832,-0.09525100,0.34322232,0.03198513,-0.04143066,-0
 .04662390,-0.00014467,0.00006390,0.00014478,0.00394768,0.00112320,-0.0
 0152722,0.00008633,0.00002516,-0.00001075,-0.00075257,-0.01346945,0.00
 478925,0.00441616,-0.00140805,0.00098728,0.00067984,0.00045981,0.00185
 816,-0.00005455,-0.00006299,-0.00000208,-0.00021639,-0.00026630,0.0001
 3108,0.00019640,0.00059440,-0.00033022,0.00005796,0.00010982,0.0001145
 5,0.00000200,-0.00001112,-0.00001355,-0.00004986,-0.00005380,0.0000131
 7,0.00005793,0.00004407,-0.00002376,0.00000204,0.00000048,0.00002712,0
 .00001262,-0.00001940,-0.00011054,-0.00001164,-0.00034835,0.00014287,-
 0.00002333,0.00020823,-0.00007420,-0.00920629,0.01902317,0.00260386,-0
 .00114113,-0.00062652,-0.00092917,-0.02808146,0.03641915,0.03975444,0.
 00016985,0.00061756,-0.00059543,0.00041963,-0.00512261,0.01544935,-0.0
 0013572,-0.00040671,-0.00026013,-0.00104825,-0.00077250,0.00190336,-0.
 00033159,0.00032395,0.00019971,-0.00034614,-0.00019910,0.00002678,-0.0
 0090992,0.00055586,-0.00043822,-0.00186084,0.00064964,-0.00026589,-0.0
 0016837,0.00004573,0.00012318,0.00011342,-0.00009551,-0.00007532,-0.00
 000043,0.00005650,-0.00001131,0.00000877,-0.00003512,-0.00005133,0.000
 18708,-0.00019419,0.00099883,0.00001459,0.00227355,0.00117082,-0.00028
 288,-0.00016475,-0.00046624,-0.00118505,0.00124521,0.00215353,-0.03851
 107,-0.00067988,0.01243648,0.01423315,0.00656566,-0.01131888,-0.003878
 01,-0.00176003,-0.00025946,-0.00138028,-0.00009639,0.00051911,0.000009
 83,-0.00001854,-0.00002008,0.03480054,0.00000784,0.00003078,-0.0000703
 4,0.00116287,0.00607044,0.00413352,-0.00099330,-0.00025312,0.00008211,
 0.00004196,-0.00063272,0.00108580,0.00002780,0.00016324,-0.00014092,-0
 .00010904,0.00011342,-0.00058761,0.00038697,-0.00036498,0.00068112,0.0
 0088603,-0.00016659,-0.00019744,0.00024114,0.00001991,-0.00017112,0.00
 022562,0.00069065,0.00000405,-0.00015237,0.00015519,-0.00010116,0.0000
 7682,-0.00005201,0.00000837,-0.00217864,-0.00372611,0.00090478,0.00445
 877,-0.00177825,-0.00403727,-0.00071178,0.00014901,-0.00092756,0.00027
 534,0.00039557,0.00024002,-0.01207315,-0.02060607,0.00283342,0.0126673
 0,-0.02667582,0.03998837,-0.00110192,-0.00019386,-0.00008079,-0.000461
 94,-0.00043385,0.00003896,0.00005723,0.00002684,0.00003008,-0.00282912
 ,0.04706014,0.00042177,0.00094973,-0.00062927,0.00588252,0.01292788,-0
 .01746593,0.00201773,-0.00054982,-0.00034014,-0.00018724,0.00111311,-0
 .00270404,-0.00046408,-0.00003376,0.00073584,-0.00031269,-0.00024291,0
 .00152382,0.00000726,0.00028548,-0.00129332,-0.00029206,0.00004062,0.0
 0081866,-0.00029202,0.00008667,0.00032640,-0.00032419,-0.00087770,-0.0
 0000553,0.00024467,-0.00022090,0.00019078,-0.00007385,0.00010030,0.000
 16403,0.00205750,0.00192123,-0.00351029,-0.00001959,-0.00408117,0.0001
 9159,0.00038067,-0.00060937,0.00044810,0.00284633,-0.00164163,-0.00188
 700,0.03224597,-0.01688652,-0.04367582,-0.02229127,0.05137129,-0.03312
 754,-0.00177237,-0.00033688,0.00053022,0.00163599,0.00054112,0.0002497
 9,-0.00003669,-0.00004282,-0.00012286,-0.02141902,-0.04383904,0.099630
 68,-0.00463246,-0.01428471,0.00595335,0.00002000,0.00003096,0.00005963
 ,0.00124971,0.00176982,0.00186814,0.00009967,0.00004236,0.00002348,-0.
 16037228,-0.09316882,0.12501518,0.00421391,0.00310195,-0.00416738,0.00
 068633,0.00000205,0.00031099,0.00005514,0.00006048,-0.00007822,-0.0000
 7485,-0.00009297,0.00005910,0.00005271,0.00004067,-0.00007032,-0.00001
 512,0.00000359,0.00000567,-0.00001190,-0.00000862,-0.00000567,0.000065
 37,-0.00004405,0.00004281,-0.00002752,0.00001581,-0.00002528,0.0000009
 0,-0.00005597,0.00001203,-0.00007131,-0.00000498,-0.00003475,0.0000720
 6,-0.00010705,0.00014426,-0.00003376,0.00009449,-0.00005854,-0.0008976
 7,0.00159733,0.00474601,0.00095970,-0.00052217,0.00122890,-0.00106036,
 -0.00001777,-0.00211071,0.00002261,0.00003182,-0.00010219,0.16080632,0
 .00767590,0.01133875,-0.00832810,-0.00008481,0.00010356,0.00002470,0.0
 0089580,-0.00603949,0.00048444,0.00012147,0.00000719,0.00009077,-0.094
 88180,-0.13895971,0.09697276,-0.01818400,-0.00258889,0.01556933,-0.000
 87603,0.00066478,0.00089595,-0.00019184,-0.00044539,0.00016433,0.00001
 300,-0.00002402,-0.00000209,0.00000391,0.00010522,0.00007977,-0.000025
 66,-0.00003556,-0.00003779,0.00003458,0.00004223,-0.00002036,0.0001975
 1,-0.00008577,0.00009425,-0.00010631,0.00000781,-0.00005311,-0.0000228
 1,-0.00003751,0.00002220,-0.00004691,0.00001230,-0.00000751,0.00010722
 ,-0.00002358,-0.00006207,-0.00004832,0.00004255,-0.00000389,0.00349349
 ,-0.00078090,-0.00205209,0.00027775,0.00085488,-0.00012887,-0.00099498
 ,-0.00007934,0.00030666,0.00003043,0.00000433,0.00001688,0.10222700,0.
 13473173,0.00318477,0.01059504,-0.00427346,0.00006382,-0.00000589,-0.0
 0001616,0.00155190,0.00020651,0.00252458,-0.00000708,0.00005358,0.0000
 0589,0.12485269,0.09505234,-0.14889043,-0.00062558,-0.00180405,0.00083
 541,0.00046227,-0.00002510,0.00061547,-0.00001946,0.00003067,-0.000013
 04,-0.00007761,-0.00002713,0.00006679,0.00006661,0.00008934,-0.0001233
 6,0.00000770,0.00002911,0.00002757,-0.00001147,-0.00002874,-0.00000137
 ,-0.00004526,-0.00008435,0.00001462,0.00003967,0.00004161,-0.00000625,
 -0.00000062,-0.00003211,-0.00001047,-0.00004144,0.00001046,-0.00002281
 ,-0.00009856,0.00006522,-0.00000247,0.00005323,-0.00005483,0.00000332,
 0.00470816,-0.00134168,0.00149220,0.00090470,0.00082183,0.00112077,-0.
 00206262,-0.00049011,-0.00178202,0.00009745,0.00003055,0.00001034,-0.1
 3174743,-0.10317756,0.14985430,0.00146737,-0.00109308,0.00206659,0.000
 17285,-0.00014168,-0.00022704,-0.00462609,0.01488441,0.00105989,0.0000
 7010,0.00022451,0.00038125,0.00397304,-0.00382935,-0.00303394,-0.15780
 612,0.12371574,0.09256347,-0.00077363,0.00024345,-0.00144308,-0.000005
 24,0.00000030,-0.00009170,-0.00015852,0.00013956,-0.00000155,-0.000085
 47,-0.00005252,0.00012816,0.00019943,-0.00009045,-0.00019586,-0.000385
 67,-0.00064202,-0.00014455,-0.00026633,-0.00006044,-0.00011698,0.00017
 789,0.00007400,0.00012551,-0.00013367,0.00007688,-0.00019815,0.0000483
 7,0.00001251,0.00004925,-0.00022558,-0.00007499,0.00027745,0.00009162,
 -0.00002242,-0.00006604,-0.00129651,-0.00031170,0.00497285,0.00094078,
 0.00088742,0.00110814,0.00072549,0.00006939,0.00036858,0.00005908,0.00
 006374,-0.00015317,-0.00110719,0.00038541,-0.00125582,0.15894402,-0.00
 019604,-0.00576280,0.00152721,-0.00000866,-0.00002790,0.00002687,-0.00
 610595,0.00916564,0.00381750,-0.00004147,-0.00000458,-0.00004884,0.017
 26381,-0.00605087,-0.01382567,0.12491639,-0.19123393,-0.08213609,0.000
 31920,-0.00018411,-0.00068640,0.00008013,0.00011514,-0.00005611,0.0000
 8841,0.00008741,-0.00001585,-0.00012482,-0.00003947,-0.00002669,0.0000
 6565,0.00000445,0.00000370,-0.00032981,-0.00028732,0.00002740,-0.00007
 570,0.00005709,-0.00004987,0.00006979,-0.00000775,0.00003164,0.0000987
 6,0.00001060,0.00004608,0.00000281,-0.00000898,-0.00003329,-0.00005754
 ,-0.00000227,-0.00000861,0.00002164,-0.00000478,0.00001244,-0.00185071
 ,0.00000656,0.00229066,-0.00002299,0.00066429,0.00030639,0.00104664,0.
 00002242,-0.00071147,0.00001036,0.00000385,0.00000823,-0.00071121,0.00
 118482,0.00004530,-0.13445868,0.19229249,0.00175938,0.00208703,0.00190
 730,0.00016824,-0.00013495,-0.00014104,0.00560747,-0.01461848,-0.00308
 474,-0.00007877,0.00022193,0.00012369,-0.00595125,0.00413954,0.0042596
 3,0.09133380,-0.08132740,-0.09368877,-0.00179050,-0.00040266,-0.001212
 60,-0.00015747,-0.00001382,-0.00011145,-0.00010515,0.00050056,-0.00024
 415,-0.00014294,0.00002175,0.00001937,0.00005794,-0.00000583,-0.000065
 28,0.00017106,0.00009170,0.00004112,0.00007527,-0.00033895,0.00026132,
 -0.00005856,0.00009127,-0.00008881,-0.00004778,0.00001061,-0.00004804,
 0.00002171,0.00002895,0.00003491,-0.00025872,-0.00001961,0.00011912,0.
 00009409,-0.00003851,-0.00002512,0.00513929,0.00156480,0.00014535,0.00
 106198,-0.00068634,0.00130622,0.00024051,0.00012945,0.00098373,0.00010
 270,0.00009207,-0.00005851,-0.00106905,-0.00084861,-0.00142941,-0.0961
 7325,0.08945547,0.09099615\\0.00000136,-0.00000510,-0.00000258,0.00000
 059,0.00000590,0.00001177,0.00000283,-0.00000018,-0.00000662,0.0000036
 2,-0.00000285,-0.00000516,-0.00000010,-0.00000559,0.00000342,0.0000007
 4,-0.00000693,-0.00000301,-0.00000546,0.00000184,0.00000230,0.00000388
 ,0.,0.00000380,-0.00000205,-0.00000027,-0.00000066,0.00000359,0.000003
 78,-0.00000310,-0.00000237,-0.00000298,0.00000381,-0.00000562,-0.00000
 219,0.00000164,-0.00000825,0.00000083,0.00000851,-0.00000126,0.0000012
 5,-0.00000108,-0.00000525,-0.00000093,0.00000292,0.00000060,0.00000233
 ,-0.00000335,-0.00001293,0.00001209,-0.00000456,0.00001318,-0.00000901
 ,0.00000617,0.00000483,-0.00000321,-0.00001677,-0.00000250,0.00000329,
 0.00000708,0.00000545,0.00000310,0.00000056,0.00000270,0.00000579,0.00
 000122,0.00000494,-0.00000056,-0.00000740,-0.00000252,-0.00000041,0.00
 000110\\\@
 The archive entry for this job was punched.


  ON THE CHOICE OF THE CORRECT LANGUAGE -
 I SPEAK SPANISH TO GOD, ITALIAN TO WOMEN,
 FRENCH TO MEN, AND GERMAN TO MY HORSE.
          -- CHARLES V
 Job cpu time:       0 days  0 hours 36 minutes 39.2 seconds.
 Elapsed time:       0 days  0 hours  3 minutes  5.5 seconds.
 File lengths (MBytes):  RWF=    288 Int=      0 D2E=      0 Chk=     12 Scr=      1
 Normal termination of Gaussian 16 at Sat Dec 30 20:59:26 2023.
