Unloading slurm/anatra/current
  ERROR: No such file or directory on
    '/cm/local/modulefiles/slurm/anatra/current'
environment: line 0: unalias: gv: not found
environment: line 0: unalias: sl: not found
 Entering Gaussian System, Link 0=g16
 Initial command:
 /apps/gaussian/g16/C.01/g16/l1.exe "/local/jobs/1153175/Gau-1737631.inp" -scrdir="/local/jobs/1153175/"
 Entering Link 1 = /apps/gaussian/g16/C.01/g16/l1.exe PID=   1737634.
  
 Copyright (c) 1988-2019, Gaussian, Inc.  All Rights Reserved.
  
 This is part of the Gaussian(R) 16 program.  It is based on
 the Gaussian(R) 09 system (copyright 2009, Gaussian, Inc.),
 the Gaussian(R) 03 system (copyright 2003, Gaussian, Inc.),
 the Gaussian(R) 98 system (copyright 1998, Gaussian, Inc.),
 the Gaussian(R) 94 system (copyright 1995, Gaussian, Inc.),
 the Gaussian 92(TM) system (copyright 1992, Gaussian, Inc.),
 the Gaussian 90(TM) system (copyright 1990, Gaussian, Inc.),
 the Gaussian 88(TM) system (copyright 1988, Gaussian, Inc.),
 the Gaussian 86(TM) system (copyright 1986, Carnegie Mellon
 University), and the Gaussian 82(TM) system (copyright 1983,
 Carnegie Mellon University). Gaussian is a federally registered
 trademark of Gaussian, Inc.
  
 This software contains proprietary and confidential information,
 including trade secrets, belonging to Gaussian, Inc.
  
 This software is provided under written license and may be
 used, copied, transmitted, or stored only in accord with that
 written license.
  
 The following legend is applicable only to US Government
 contracts under FAR:
  
                    RESTRICTED RIGHTS LEGEND
  
 Use, reproduction and disclosure by the US Government is
 subject to restrictions as set forth in subparagraphs (a)
 and (c) of the Commercial Computer Software - Restricted
 Rights clause in FAR 52.227-19.
  
 Gaussian, Inc.
 340 Quinnipiac St., Bldg. 40, Wallingford CT 06492
  
  
 ---------------------------------------------------------------
 Warning -- This program may not be used in any manner that
 competes with the business of Gaussian, Inc. or will provide
 assistance to any competitor of Gaussian, Inc.  The licensee
 of this program is prohibited from giving any competitor of
 Gaussian, Inc. access to this program.  By using this program,
 the user acknowledges that Gaussian, Inc. is engaged in the
 business of creating and licensing software in the field of
 computational chemistry and represents and warrants to the
 licensee that it is not a competitor of Gaussian, Inc. and that
 it will not use this program in any manner prohibited above.
 ---------------------------------------------------------------
  

 Cite this work as:
 Gaussian 16, Revision C.01,
 M. J. Frisch, G. W. Trucks, H. B. Schlegel, G. E. Scuseria, 
 M. A. Robb, J. R. Cheeseman, G. Scalmani, V. Barone, 
 G. A. Petersson, H. Nakatsuji, X. Li, M. Caricato, A. V. Marenich, 
 J. Bloino, B. G. Janesko, R. Gomperts, B. Mennucci, H. P. Hratchian, 
 J. V. Ortiz, A. F. Izmaylov, J. L. Sonnenberg, D. Williams-Young, 
 F. Ding, F. Lipparini, F. Egidi, J. Goings, B. Peng, A. Petrone, 
 T. Henderson, D. Ranasinghe, V. G. Zakrzewski, J. Gao, N. Rega, 
 G. Zheng, W. Liang, M. Hada, M. Ehara, K. Toyota, R. Fukuda, 
 J. Hasegawa, M. Ishida, T. Nakajima, Y. Honda, O. Kitao, H. Nakai, 
 T. Vreven, K. Throssell, J. A. Montgomery, Jr., J. E. Peralta, 
 F. Ogliaro, M. J. Bearpark, J. J. Heyd, E. N. Brothers, K. N. Kudin, 
 V. N. Staroverov, T. A. Keith, R. Kobayashi, J. Normand, 
 K. Raghavachari, A. P. Rendell, J. C. Burant, S. S. Iyengar, 
 J. Tomasi, M. Cossi, J. M. Millam, M. Klene, C. Adamo, R. Cammi, 
 J. W. Ochterski, R. L. Martin, K. Morokuma, O. Farkas, 
 J. B. Foresman, and D. J. Fox, Gaussian, Inc., Wallingford CT, 2019.
 
 ******************************************
 Gaussian 16:  ES64L-G16RevC.01  3-Jul-2019
                30-Dec-2023 
 ******************************************
 %chk=imda-2_1_opt_sqm_re_freq.chk
 %nprocshared=12
 Will use up to   12 processors via shared memory.
 %mem=48GB
 -----------------------------------------------------------
 # wb97xd def2svp scrf=(iefpcm,solvent=toluene) freq=noraman
 -----------------------------------------------------------
 1/10=4,30=1,38=1/1,3;
 2/12=2,17=6,18=5,40=1/2;
 3/5=43,7=101,11=2,25=1,30=1,70=2201,71=2,72=13,74=-58,140=1/1,2,3;
 4//1;
 5/5=2,38=5,53=13,98=1/2;
 8/6=4,10=90,11=11/1;
 11/6=1,8=1,9=11,15=111,16=1/1,2,10;
 10/6=1/2;
 6/7=2,8=2,9=2,10=2,28=1/1;
 7/8=1,10=1,25=1/1,2,3,16;
 1/10=4,30=1/3;
 99//99;
 -----------------------
 imda-2_1_opt_sqm_re.out
 -----------------------
 Symbolic Z-matrix:
 Charge =  0 Multiplicity = 1
 C                    -2.05155  -2.09244  -0.34033 
 C                     0.37938  -0.58662   1.61226 
 C                    -2.05063   0.12703  -0.67979 
 C                    -0.28289   0.57642   1.56871 
 C                    -3.058    -1.56424   0.44065 
 C                    -3.05996  -0.15898   0.22496 
 C                    -1.5416    1.44074  -1.19369 
 H                    -0.71694   1.26199  -1.89953 
 H                    -2.32947   1.9564   -1.76412 
 C                    -1.06539   2.39121  -0.08375 
 H                    -0.69266   3.33424  -0.50694 
 H                    -1.92222   2.63802   0.56828 
 C                     0.02224   1.85149   0.82364 
 O                     1.03534   2.4631    1.06177 
 H                    -1.15097   0.66194   2.23115 
 H                     0.05205  -1.35267   2.32027 
 C                     1.55793  -1.04256   0.85386 
 O                     2.26385  -1.93778   1.17126 
 N                    -1.46785  -1.06029  -1.02045 
 H                    -0.66024  -1.14467  -1.62514 
 H                    -1.72224  -3.11876  -0.4818 
 Br                    1.92504  -0.14607  -0.877 
 H                    -3.72494  -2.12869   1.08887 
 H                    -3.72428   0.57184   0.68358 
 

 GradGradGradGradGradGradGradGradGradGradGradGradGradGradGradGradGradGrad
 Berny optimization.
 Initialization pass.
 Trust Radius=3.00D-01 FncErr=1.00D-07 GrdErr=1.00D-07 EigMax=2.50D+02 EigMin=1.00D-04
 Number of steps in this run=      2 maximum allowed number of steps=      2.
 GradGradGradGradGradGradGradGradGradGradGradGradGradGradGradGradGradGrad

                          Input orientation:                          
 ---------------------------------------------------------------------
 Center     Atomic      Atomic             Coordinates (Angstroms)
 Number     Number       Type             X           Y           Z
 ---------------------------------------------------------------------
      1          6           0       -2.051550   -2.092440   -0.340330
      2          6           0        0.379380   -0.586620    1.612260
      3          6           0       -2.050630    0.127030   -0.679790
      4          6           0       -0.282890    0.576420    1.568710
      5          6           0       -3.058000   -1.564240    0.440650
      6          6           0       -3.059960   -0.158980    0.224960
      7          6           0       -1.541600    1.440740   -1.193690
      8          1           0       -0.716940    1.261990   -1.899530
      9          1           0       -2.329470    1.956400   -1.764120
     10          6           0       -1.065390    2.391210   -0.083750
     11          1           0       -0.692660    3.334240   -0.506940
     12          1           0       -1.922220    2.638020    0.568280
     13          6           0        0.022240    1.851490    0.823640
     14          8           0        1.035340    2.463100    1.061770
     15          1           0       -1.150970    0.661940    2.231150
     16          1           0        0.052050   -1.352670    2.320270
     17          6           0        1.557930   -1.042560    0.853860
     18          8           0        2.263850   -1.937780    1.171260
     19          7           0       -1.467850   -1.060290   -1.020450
     20          1           0       -0.660240   -1.144670   -1.625140
     21          1           0       -1.722240   -3.118760   -0.481800
     22         35           0        1.925040   -0.146070   -0.877000
     23          1           0       -3.724940   -2.128690    1.088870
     24          1           0       -3.724280    0.571840    0.683580
 ---------------------------------------------------------------------
                    Distance matrix (angstroms):
                    1          2          3          4          5
     1  C    0.000000
     2  C    3.462589   0.000000
     3  C    2.245280   3.415807   0.000000
     4  C    3.727654   1.339089   2.895273   0.000000
     5  C    1.379082   3.760850   2.265077   3.681872   0.000000
     6  C    2.252712   3.733167   1.385324   3.171529   1.421718
     7  C    3.670372   3.959003   1.499680   3.156304   3.741716
     8  H    3.932491   4.117274   2.134158   3.561895   4.352537
     9  H    4.300875   5.020434   2.144789   4.147359   4.217425
    10  C    4.597985   3.719043   2.540172   2.576120   4.459941
    11  H    5.596713   4.584040   3.487141   3.475889   5.521582
    12  H    4.818667   4.097018   2.806998   2.817527   4.354914
    13  C    4.605433   2.587248   3.087208   1.507991   4.615384
    14  O    5.678708   3.167667   4.244227   2.356752   5.775871
    15  H    3.874295   2.069758   3.093394   1.095310   3.434899
    16  H    3.471482   1.093277   3.951093   2.097240   3.640075
    17  C    3.944196   1.473782   4.091666   2.553571   4.663658
    18  O    4.575096   2.360369   5.128798   3.600702   5.384739
    19  N    1.366968   3.250813   1.365800   3.284311   2.217511
    20  H    2.117722   3.445720   2.108101   3.647632   3.192613
    21  H    1.087102   3.900465   3.268362   4.464378   2.247599
    22  Br   4.459780   2.963033   3.989916   3.373195   5.345848
    23  H    2.200945   4.415581   3.319600   4.404041   1.087935
    24  H    3.308293   4.364001   2.204028   3.553399   2.250729
                    6          7          8          9         10
     6  C    0.000000
     7  C    2.622420   0.000000
     8  H    3.467327   1.100103   0.000000
     9  H    2.994142   1.100925   1.760907   0.000000
    10  C    3.252242   1.536924   2.166475   2.147231   0.000000
    11  H    4.282800   2.185787   2.496821   2.481550   1.098783
    12  H    3.039001   2.163998   3.071847   2.463848   1.104634
    13  C    3.728319   2.585330   2.882629   3.498292   1.515781
    14  O    4.934272   3.573925   3.644509   4.423160   2.393836
    15  H    2.888417   3.533928   4.196541   4.361957   2.890754
    16  H    3.936982   4.763483   5.023396   5.770946   4.587442
    17  C    4.743536   4.468370   4.250546   5.564122   4.421730
    18  O    5.692325   5.611491   5.343537   6.699230   5.603485
    19  N    2.213192   2.508107   2.594153   3.224260   3.598921
    20  H    3.186395   2.765373   2.422915   3.524525   3.878463
    21  H    3.324049   4.618274   4.712914   5.269755   5.563242
    22  Br   5.105361   3.825683   3.163583   4.827858   4.001213
    23  H    2.251288   4.766328   5.429117   5.174442   5.373801
    24  H    1.088922   3.007195   4.024035   3.139066   3.311887
                   11         12         13         14         15
    11  H    0.000000
    12  H    1.775567   0.000000
    13  C    2.116618   2.112999   0.000000
    14  O    2.491128   3.003546   1.207122   0.000000
    15  H    3.853359   2.695340   2.184613   3.064568   0.000000
    16  H    5.524023   4.784644   3.536585   4.136518   2.348159
    17  C    5.106203   5.073428   3.276398   3.550490   3.484306
    18  O    6.273078   6.230948   4.416358   4.570445   4.420736
    19  N    4.491827   4.050680   3.754930   4.797487   3.693155
    20  H    4.616498   4.551091   3.929285   4.807336   4.286680
    21  H    6.534667   5.855184   5.426856   6.414360   4.688298
    22  Br   4.370567   4.964011   3.240844   3.370187   4.446944
    23  H    6.448638   5.122728   5.472983   6.614041   3.964561
    24  H    4.270704   2.744051   3.961506   5.135550   3.004166
                   16         17         18         19         20
    16  H    0.000000
    17  C    2.124665   0.000000
    18  O    2.560203   1.183421   0.000000
    19  N    3.681846   3.559311   4.415786   0.000000
    20  H    4.014584   3.328084   4.123006   1.012425   0.000000
    21  H    3.757496   4.105376   4.473951   2.142932   2.516367
    22  Br   3.896987   1.983517   2.742332   3.516828   2.870642
    23  H    4.047741   5.398483   5.992399   3.268817   4.210289
    24  H    4.543475   5.526032   6.511046   3.264819   4.202967
                   21         22         23         24
    21  H    0.000000
    22  Br   4.721834   0.000000
    23  H    2.730943   6.302198   0.000000
    24  H    4.357385   5.904712   2.730773   0.000000
 Stoichiometry    C10H10BrNO2
 Framework group  C1[X(C10H10BrNO2)]
 Deg. of freedom    66
 Full point group                 C1      NOp   1
 Largest Abelian subgroup         C1      NOp   1
 Largest concise Abelian subgroup C1      NOp   1
                         Standard orientation:                         
 ---------------------------------------------------------------------
 Center     Atomic      Atomic             Coordinates (Angstroms)
 Number     Number       Type             X           Y           Z
 ---------------------------------------------------------------------
      1          6           0       -2.051555   -2.092437   -0.340329
      2          6           0        0.379377   -0.586621    1.612261
      3          6           0       -2.050632    0.127033   -0.679789
      4          6           0       -0.282891    0.576420    1.568711
      5          6           0       -3.058004   -1.564236    0.440651
      6          6           0       -3.059962   -0.158976    0.224961
      7          6           0       -1.541600    1.440742   -1.193689
      8          1           0       -0.716940    1.261991   -1.899529
      9          1           0       -2.329469    1.956403   -1.764119
     10          6           0       -1.065389    2.391211   -0.083749
     11          1           0       -0.692657    3.334241   -0.506939
     12          1           0       -1.922218    2.638022    0.568281
     13          6           0        0.022241    1.851490    0.823641
     14          8           0        1.035341    2.463098    1.061771
     15          1           0       -1.150971    0.661941    2.231151
     16          1           0        0.052046   -1.352670    2.320271
     17          6           0        1.557927   -1.042562    0.853861
     18          8           0        2.263845   -1.937783    1.171261
     19          7           0       -1.467853   -1.060288   -1.020449
     20          1           0       -0.660243   -1.144669   -1.625139
     21          1           0       -1.722246   -3.118758   -0.481799
     22         35           0        1.925038   -0.146073   -0.876999
     23          1           0       -3.724945   -2.128685    1.088871
     24          1           0       -3.724281    0.571845    0.683581
 ---------------------------------------------------------------------
 Rotational constants (GHZ):           0.7256441           0.4588099           0.3843570
 Standard basis: def2SVP (5D, 7F)
 There are   280 symmetry adapted cartesian basis functions of A   symmetry.
 There are   264 symmetry adapted basis functions of A   symmetry.
   264 basis functions,   475 primitive gaussians,   280 cartesian basis functions
    64 alpha electrons       64 beta electrons
       nuclear repulsion energy      1240.5960724427 Hartrees.
 NAtoms=   24 NActive=   24 NUniq=   24 SFac= 1.00D+00 NAtFMM=   60 NAOKFM=F Big=F
 Integral buffers will be    131072 words long.
 Raffenetti 2 integral format.
 Two-electron integral symmetry is turned on.
 Nuclear repulsion after empirical dispersion term =     1240.5756072748 Hartrees.
 Force inversion solution in PCM.
 ------------------------------------------------------------------------------
 Polarizable Continuum Model (PCM)
 =================================
 Model                : PCM.
 Atomic radii         : UFF (Universal Force Field).
 Polarization charges : Total charges.
 Charge compensation  : None.
 Solution method      : Matrix inversion.
 Cavity type          : Scaled VdW (van der Waals Surface) (Alpha=1.100).
 Cavity algorithm     : GePol (No added spheres)
                        Default sphere list used, NSphG=   24.
                        Lebedev-Laikov grids with approx.  5.0 points / Ang**2.
                        Smoothing algorithm: York/Karplus (Gamma=1.0000).
                        Polarization charges: spherical gaussians, with
                                              point-specific exponents (IZeta= 3).
                        Self-potential: point-specific (ISelfS= 7).
                        Self-field    : sphere-specific E.n sum rule (ISelfD= 2).
 1st derivatives      : Analytical E(r).r(x)/FMM algorithm (CHGder, D1EAlg=3).
                        Cavity 1st derivative terms included.
 2nd derivatives      : Analytical E(r).r(xy)/FMM algorithm (CHGder, D2EAlg=3).
                        Cavity 2nd derivative terms included.
 Solvent              : Toluene, Eps=   2.374100 Eps(inf)=   2.238315
 ------------------------------------------------------------------------------
 One-electron integrals computed using PRISM.
   1 Symmetry operations used in ECPInt.
 ECPInt:  NShTT=    7260 NPrTT=   28205 LenC2=    7046 LenP2D=   20157.
 LDataN:  DoStor=T MaxTD1= 4 Len=   56
 NBasis=   264 RedAO= T EigKep=  6.61D-04  NBF=   264
 NBsUse=   264 1.00D-06 EigRej= -1.00D+00 NBFU=   264
 ExpMin= 1.22D-01 ExpMax= 1.13D+05 ExpMxC= 1.70D+04 IAcc=3 IRadAn=         5 AccDes= 0.00D+00
 Harris functional with IExCor= 4639 and IRadAn=       5 diagonalized for initial guess.
 HarFok:  IExCor= 4639 AccDes= 0.00D+00 IRadAn=         5 IDoV= 1 UseB2=F ITyADJ=14
 ICtDFT=  3500011 ScaDFX=  1.000000  1.000000  1.000000  1.000000
 FoFCou: FMM=F IPFlag=           0 FMFlag=      100000 FMFlg1=           0
         NFxFlg=           0 DoJE=T BraDBF=F KetDBF=T FulRan=T
         wScrn=  0.000000 ICntrl=       500 IOpCl=  0 I1Cent=   200000004 NGrid=           0
         NMat0=    1 NMatS0=      1 NMatT0=    0 NMatD0=    1 NMtDS0=    0 NMtDT0=    0
 Petite list used in FoFCou.
 Requested convergence on RMS density matrix=1.00D-08 within 128 cycles.
 Requested convergence on MAX density matrix=1.00D-06.
 Requested convergence on             energy=1.00D-06.
 No special actions if energy rises.
 Inv3:  Mode=1 IEnd=    11430912.
 Iteration    1 A*A^-1 deviation from unit magnitude is 3.11D-15 for    749.
 Iteration    1 A*A^-1 deviation from orthogonality  is 1.75D-15 for   1272   1132.
 Iteration    1 A^-1*A deviation from unit magnitude is 3.33D-15 for   1272.
 Iteration    1 A^-1*A deviation from orthogonality  is 1.81D-15 for   1595   1461.
 Error on total polarization charges =  0.00750
 SCF Done:  E(RwB97XD) =  -3165.54154375     A.U. after   16 cycles
            NFock= 16  Conv=0.53D-08     -V/T= 2.0027
 DoSCS=F DFT=T ScalE2(SS,OS)=  1.000000  1.000000
 Range of M.O.s used for correlation:     1   264
 NBasis=   264 NAE=    64 NBE=    64 NFC=     0 NFV=     0
 NROrb=    264 NOA=    64 NOB=    64 NVA=   200 NVB=   200
   1 Symmetry operations used in ECPInt.
 ECPInt:  NShTT=    7260 NPrTT=   28205 LenC2=    7046 LenP2D=   20157.
 LDataN:  DoStor=T MaxTD1= 5 Len=  102
 Symmetrizing basis deriv contribution to polar:
 IMax=3 JMax=2 DiffMx= 0.00D+00
 G2DrvN: will do    25 centers at a time, making    1 passes.
 Calling FoFCou, ICntrl=  3107 FMM=F I1Cent=   0 AccDes= 0.00D+00.
 NEqPCM:  Using equilibrium solvation (IEInf=0, Eps=   2.3741, EpsInf=   2.2383)
 G2PCM: DoFxE=T DoFxN=T DoGrad=T DoDP/DQ/DG/TGxP=FFFF NFrqRd=   0 IEInf=0 SqF1=F DoCFld=F IF1Alg=4.
 End of G2Drv F.D. properties file   721 does not exist.
 End of G2Drv F.D. properties file   722 does not exist.
 End of G2Drv F.D. properties file   788 does not exist.
          IDoAtm=111111111111111111111111
 NEqPCM:  Using equilibrium solvation (IEInf=0, Eps=   2.3741, EpsInf=   2.2383)
          Differentiating once with respect to electric field.
                with respect to dipole field.
          Differentiating once with respect to nuclear coordinates.
 Keep R1 ints in memory in canonical form, NReq=1246293233.
          There are    75 degrees of freedom in the 1st order CPHF.  IDoFFX=6 NUNeed=     3.
     72 vectors produced by pass  0 Test12= 1.71D-14 1.33D-09 XBig12= 7.20D+01 3.47D+00.
 AX will form    72 AO Fock derivatives at one time.
     72 vectors produced by pass  1 Test12= 1.71D-14 1.33D-09 XBig12= 9.99D+00 5.99D-01.
     72 vectors produced by pass  2 Test12= 1.71D-14 1.33D-09 XBig12= 3.65D-01 9.89D-02.
     72 vectors produced by pass  3 Test12= 1.71D-14 1.33D-09 XBig12= 4.38D-03 9.62D-03.
     72 vectors produced by pass  4 Test12= 1.71D-14 1.33D-09 XBig12= 6.41D-05 1.01D-03.
     72 vectors produced by pass  5 Test12= 1.71D-14 1.33D-09 XBig12= 4.96D-07 9.36D-05.
     66 vectors produced by pass  6 Test12= 1.71D-14 1.33D-09 XBig12= 2.92D-09 6.74D-06.
     29 vectors produced by pass  7 Test12= 1.71D-14 1.33D-09 XBig12= 1.38D-11 3.09D-07.
      3 vectors produced by pass  8 Test12= 1.71D-14 1.33D-09 XBig12= 6.34D-14 2.32D-08.
      2 vectors produced by pass  9 Test12= 1.71D-14 1.33D-09 XBig12= 2.89D-16 1.80D-09.
 InvSVY:  IOpt=1 It=  1 EMax= 1.42D-14
 Solved reduced A of dimension   532 with    75 vectors.
 Isotropic polarizability for W=    0.000000      143.91 Bohr**3.
 End of Minotr F.D. properties file   721 does not exist.
 End of Minotr F.D. properties file   722 does not exist.
 End of Minotr F.D. properties file   788 does not exist.

 **********************************************************************

            Population analysis using the SCF Density.

 **********************************************************************

 Orbital symmetries:
       Occupied  (A) (A) (A) (A) (A) (A) (A) (A) (A) (A) (A) (A)
                 (A) (A) (A) (A) (A) (A) (A) (A) (A) (A) (A) (A)
                 (A) (A) (A) (A) (A) (A) (A) (A) (A) (A) (A) (A)
                 (A) (A) (A) (A) (A) (A) (A) (A) (A) (A) (A) (A)
                 (A) (A) (A) (A) (A) (A) (A) (A) (A) (A) (A) (A)
                 (A) (A) (A) (A)
       Virtual   (A) (A) (A) (A) (A) (A) (A) (A) (A) (A) (A) (A)
                 (A) (A) (A) (A) (A) (A) (A) (A) (A) (A) (A) (A)
                 (A) (A) (A) (A) (A) (A) (A) (A) (A) (A) (A) (A)
                 (A) (A) (A) (A) (A) (A) (A) (A) (A) (A) (A) (A)
                 (A) (A) (A) (A) (A) (A) (A) (A) (A) (A) (A) (A)
                 (A) (A) (A) (A) (A) (A) (A) (A) (A) (A) (A) (A)
                 (A) (A) (A) (A) (A) (A) (A) (A) (A) (A) (A) (A)
                 (A) (A) (A) (A) (A) (A) (A) (A) (A) (A) (A) (A)
                 (A) (A) (A) (A) (A) (A) (A) (A) (A) (A) (A) (A)
                 (A) (A) (A) (A) (A) (A) (A) (A) (A) (A) (A) (A)
                 (A) (A) (A) (A) (A) (A) (A) (A) (A) (A) (A) (A)
                 (A) (A) (A) (A) (A) (A) (A) (A) (A) (A) (A) (A)
                 (A) (A) (A) (A) (A) (A) (A) (A) (A) (A) (A) (A)
                 (A) (A) (A) (A) (A) (A) (A) (A) (A) (A) (A) (A)
                 (A) (A) (A) (A) (A) (A) (A) (A) (A) (A) (A) (A)
                 (A) (A) (A) (A) (A) (A) (A) (A) (A) (A) (A) (A)
                 (A) (A) (A) (A) (A) (A) (A) (A)
 The electronic state is 1-A.
 Alpha  occ. eigenvalues -- -483.06634 -62.64865 -56.45591 -56.45309 -56.45274
 Alpha  occ. eigenvalues --  -19.29949 -19.26602 -14.49565 -10.45732 -10.41022
 Alpha  occ. eigenvalues --  -10.34959 -10.34292 -10.33044 -10.32333 -10.32324
 Alpha  occ. eigenvalues --  -10.31920 -10.28814 -10.28784  -8.81813  -6.64224
 Alpha  occ. eigenvalues --   -6.63163  -6.63050  -2.74618  -2.74339  -2.74251
 Alpha  occ. eigenvalues --   -2.73406  -2.73405  -1.19612  -1.15514  -1.08142
 Alpha  occ. eigenvalues --   -0.93078  -0.90651  -0.88330  -0.87019  -0.82602
 Alpha  occ. eigenvalues --   -0.78387  -0.74246  -0.68321  -0.67961  -0.66545
 Alpha  occ. eigenvalues --   -0.62004  -0.60951  -0.59645  -0.58477  -0.56163
 Alpha  occ. eigenvalues --   -0.55108  -0.54305  -0.53600  -0.52194  -0.51897
 Alpha  occ. eigenvalues --   -0.50840  -0.49973  -0.48104  -0.47572  -0.46978
 Alpha  occ. eigenvalues --   -0.45605  -0.44043  -0.39203  -0.38859  -0.38146
 Alpha  occ. eigenvalues --   -0.37198  -0.35015  -0.33373  -0.29262
 Alpha virt. eigenvalues --   -0.02298   0.04103   0.06168   0.09776   0.11672
 Alpha virt. eigenvalues --    0.13408   0.13782   0.14768   0.15676   0.17574
 Alpha virt. eigenvalues --    0.19696   0.20165   0.20580   0.21566   0.23377
 Alpha virt. eigenvalues --    0.23530   0.26927   0.27933   0.28627   0.30613
 Alpha virt. eigenvalues --    0.31334   0.32493   0.33918   0.35568   0.37626
 Alpha virt. eigenvalues --    0.39939   0.40511   0.42221   0.43015   0.46633
 Alpha virt. eigenvalues --    0.48303   0.49623   0.50200   0.50691   0.51940
 Alpha virt. eigenvalues --    0.52818   0.54005   0.54288   0.55823   0.56408
 Alpha virt. eigenvalues --    0.57073   0.57904   0.59881   0.60333   0.60863
 Alpha virt. eigenvalues --    0.61901   0.64798   0.65190   0.66007   0.67259
 Alpha virt. eigenvalues --    0.67761   0.69978   0.70211   0.70964   0.71921
 Alpha virt. eigenvalues --    0.72900   0.73952   0.74710   0.74921   0.75462
 Alpha virt. eigenvalues --    0.75649   0.76662   0.77554   0.78360   0.79084
 Alpha virt. eigenvalues --    0.79598   0.81393   0.81955   0.82521   0.83611
 Alpha virt. eigenvalues --    0.84571   0.87223   0.88361   0.89717   0.89946
 Alpha virt. eigenvalues --    0.91086   0.93652   0.94238   0.96531   0.98822
 Alpha virt. eigenvalues --    1.01859   1.02333   1.03504   1.06583   1.06820
 Alpha virt. eigenvalues --    1.11145   1.11829   1.12417   1.16101   1.19763
 Alpha virt. eigenvalues --    1.21028   1.22593   1.24275   1.26255   1.28069
 Alpha virt. eigenvalues --    1.29049   1.32299   1.34379   1.37365   1.37604
 Alpha virt. eigenvalues --    1.40481   1.42120   1.42796   1.46874   1.49223
 Alpha virt. eigenvalues --    1.51699   1.52005   1.57502   1.60778   1.65462
 Alpha virt. eigenvalues --    1.70259   1.72120   1.72435   1.74217   1.75539
 Alpha virt. eigenvalues --    1.76362   1.79003   1.79178   1.80158   1.82308
 Alpha virt. eigenvalues --    1.83246   1.84146   1.85024   1.86098   1.88043
 Alpha virt. eigenvalues --    1.88418   1.91893   1.92658   1.93147   1.93760
 Alpha virt. eigenvalues --    1.95621   1.97412   1.98500   1.99798   2.01073
 Alpha virt. eigenvalues --    2.02693   2.04282   2.05180   2.07621   2.09241
 Alpha virt. eigenvalues --    2.10556   2.12106   2.14514   2.16360   2.20254
 Alpha virt. eigenvalues --    2.22587   2.24042   2.24684   2.26352   2.31477
 Alpha virt. eigenvalues --    2.34745   2.35567   2.37289   2.40327   2.42339
 Alpha virt. eigenvalues --    2.43612   2.45237   2.46566   2.49880   2.52232
 Alpha virt. eigenvalues --    2.53559   2.55129   2.58388   2.64928   2.69974
 Alpha virt. eigenvalues --    2.73174   2.74405   2.75198   2.75735   2.77166
 Alpha virt. eigenvalues --    2.79089   2.79392   2.81702   2.82815   2.85798
 Alpha virt. eigenvalues --    2.87239   2.88962   2.92202   2.93942   2.96864
 Alpha virt. eigenvalues --    3.02489   3.04696   3.07016   3.10821   3.11870
 Alpha virt. eigenvalues --    3.20310   3.24657   3.27056   3.37716   3.40766
 Alpha virt. eigenvalues --    3.50200   3.53615   3.54783   3.57978   3.59755
 Alpha virt. eigenvalues --    3.67209   3.69008   3.69730   3.71866   3.89428
          Condensed to atoms (all electrons):
               1          2          3          4          5          6
     1  C    4.926670   0.004371  -0.144620  -0.004533   0.446813  -0.023293
     2  C    0.004371   5.104759  -0.010239   0.497154   0.000525  -0.005327
     3  C   -0.144620  -0.010239   5.185660   0.021242  -0.011756   0.417674
     4  C   -0.004533   0.497154   0.021242   5.160034  -0.000614  -0.002589
     5  C    0.446813   0.000525  -0.011756  -0.000614   4.972321   0.367962
     6  C   -0.023293  -0.005327   0.417674  -0.002589   0.367962   5.125489
     7  C    0.008516  -0.001188   0.327312   0.002996   0.010421  -0.099080
     8  H    0.000187   0.001365  -0.010375  -0.004352  -0.000642   0.011511
     9  H   -0.000171  -0.000055   0.004487   0.000092   0.000076  -0.008474
    10  C    0.000064   0.003193  -0.051073  -0.186518   0.000486   0.002642
    11  H   -0.000002  -0.000422   0.008103   0.014932   0.000005   0.000048
    12  H    0.000050   0.001422  -0.015146  -0.000286  -0.000284   0.007376
    13  C    0.000396  -0.004279  -0.016842   0.219618   0.000178  -0.006017
    14  O    0.000000  -0.002266  -0.000170  -0.091682  -0.000001   0.000013
    15  H    0.000115   0.017901  -0.000491   0.358796  -0.000768   0.008700
    16  H    0.002077   0.390223  -0.000333  -0.011587   0.001588  -0.000047
    17  C    0.002382   0.256858  -0.001550  -0.011719  -0.000142  -0.000007
    18  O   -0.000077  -0.080610   0.000011   0.005409  -0.000004   0.000001
    19  N    0.394581   0.000859   0.444480  -0.004584  -0.061008  -0.098414
    20  H   -0.027205   0.001062  -0.020496  -0.001072   0.007055   0.010839
    21  H    0.431667  -0.000638   0.003989   0.000091  -0.049797   0.009209
    22  Br  -0.000082  -0.136215  -0.001803   0.014910  -0.000084  -0.000113
    23  H   -0.057796   0.000029   0.012732   0.000016   0.452601  -0.058631
    24  H    0.012164   0.000154  -0.056931  -0.000465  -0.057622   0.453538
               7          8          9         10         11         12
     1  C    0.008516   0.000187  -0.000171   0.000064  -0.000002   0.000050
     2  C   -0.001188   0.001365  -0.000055   0.003193  -0.000422   0.001422
     3  C    0.327312  -0.010375   0.004487  -0.051073   0.008103  -0.015146
     4  C    0.002996  -0.004352   0.000092  -0.186518   0.014932  -0.000286
     5  C    0.010421  -0.000642   0.000076   0.000486   0.000005  -0.000284
     6  C   -0.099080   0.011511  -0.008474   0.002642   0.000048   0.007376
     7  C    4.680999   0.364456   0.353487   0.357671  -0.008593  -0.011833
     8  H    0.364456   0.659319  -0.024115  -0.023670  -0.007067   0.007462
     9  H    0.353487  -0.024115   0.632786  -0.014244  -0.004070  -0.009560
    10  C    0.357671  -0.023670  -0.014244   5.013242   0.333551   0.368596
    11  H   -0.008593  -0.007067  -0.004070   0.333551   0.616663  -0.013963
    12  H   -0.011833   0.007462  -0.009560   0.368596  -0.013963   0.608069
    13  C   -0.027800  -0.004645   0.006639   0.323244  -0.005043  -0.019872
    14  O    0.002941   0.000670  -0.000160  -0.088598   0.009873   0.001775
    15  H   -0.003279   0.000045   0.000040   0.006667  -0.000258   0.000007
    16  H    0.000030   0.000009  -0.000004  -0.000228   0.000007   0.000021
    17  C   -0.000026  -0.000489   0.000008   0.000666  -0.000002  -0.000048
    18  O    0.000000   0.000003   0.000000  -0.000003   0.000000   0.000000
    19  N   -0.049241  -0.008692   0.003228  -0.003361  -0.000078   0.000008
    20  H   -0.012972   0.005113   0.000065   0.000391  -0.000023   0.000005
    21  H   -0.000301  -0.000007   0.000010   0.000007  -0.000000  -0.000000
    22  Br   0.001099   0.007403   0.000158  -0.007802   0.000040   0.000130
    23  H   -0.000263   0.000007   0.000004   0.000003  -0.000000   0.000005
    24  H   -0.007718  -0.000004   0.001359  -0.000035  -0.000037   0.001351
              13         14         15         16         17         18
     1  C    0.000396   0.000000   0.000115   0.002077   0.002382  -0.000077
     2  C   -0.004279  -0.002266   0.017901   0.390223   0.256858  -0.080610
     3  C   -0.016842  -0.000170  -0.000491  -0.000333  -0.001550   0.000011
     4  C    0.219618  -0.091682   0.358796  -0.011587  -0.011719   0.005409
     5  C    0.000178  -0.000001  -0.000768   0.001588  -0.000142  -0.000004
     6  C   -0.006017   0.000013   0.008700  -0.000047  -0.000007   0.000001
     7  C   -0.027800   0.002941  -0.003279   0.000030  -0.000026   0.000000
     8  H   -0.004645   0.000670   0.000045   0.000009  -0.000489   0.000003
     9  H    0.006639  -0.000160   0.000040  -0.000004   0.000008   0.000000
    10  C    0.323244  -0.088598   0.006667  -0.000228   0.000666  -0.000003
    11  H   -0.005043   0.009873  -0.000258   0.000007  -0.000002   0.000000
    12  H   -0.019872   0.001775   0.000007   0.000021  -0.000048   0.000000
    13  C    4.798562   0.715780  -0.036462   0.006126  -0.022601  -0.000058
    14  O    0.715780   7.661266   0.000962  -0.000173   0.001334  -0.000002
    15  H   -0.036462   0.000962   0.565451  -0.013481   0.007061  -0.000076
    16  H    0.006126  -0.000173  -0.013481   0.577117  -0.036024   0.002908
    17  C   -0.022601   0.001334   0.007061  -0.036024   4.719329   0.703018
    18  O   -0.000058  -0.000002  -0.000076   0.002908   0.703018   7.585488
    19  N    0.001240   0.000004  -0.000455  -0.000817   0.001388  -0.000022
    20  H   -0.000047   0.000001  -0.000035  -0.000060  -0.001085  -0.000073
    21  H    0.000005   0.000000  -0.000008   0.000087   0.000178   0.000023
    22  Br   0.008376  -0.005157  -0.000008   0.004694   0.261484  -0.073337
    23  H   -0.000006  -0.000000  -0.000038   0.000000  -0.000009  -0.000000
    24  H    0.000021  -0.000001   0.000722  -0.000010  -0.000003  -0.000000
              19         20         21         22         23         24
     1  C    0.394581  -0.027205   0.431667  -0.000082  -0.057796   0.012164
     2  C    0.000859   0.001062  -0.000638  -0.136215   0.000029   0.000154
     3  C    0.444480  -0.020496   0.003989  -0.001803   0.012732  -0.056931
     4  C   -0.004584  -0.001072   0.000091   0.014910   0.000016  -0.000465
     5  C   -0.061008   0.007055  -0.049797  -0.000084   0.452601  -0.057622
     6  C   -0.098414   0.010839   0.009209  -0.000113  -0.058631   0.453538
     7  C   -0.049241  -0.012972  -0.000301   0.001099  -0.000263  -0.007718
     8  H   -0.008692   0.005113  -0.000007   0.007403   0.000007  -0.000004
     9  H    0.003228   0.000065   0.000010   0.000158   0.000004   0.001359
    10  C   -0.003361   0.000391   0.000007  -0.007802   0.000003  -0.000035
    11  H   -0.000078  -0.000023  -0.000000   0.000040  -0.000000  -0.000037
    12  H    0.000008   0.000005  -0.000000   0.000130   0.000005   0.001351
    13  C    0.001240  -0.000047   0.000005   0.008376  -0.000006   0.000021
    14  O    0.000004   0.000001   0.000000  -0.005157  -0.000000  -0.000001
    15  H   -0.000455  -0.000035  -0.000008  -0.000008  -0.000038   0.000722
    16  H   -0.000817  -0.000060   0.000087   0.004694   0.000000  -0.000010
    17  C    0.001388  -0.001085   0.000178   0.261484  -0.000009  -0.000003
    18  O   -0.000022  -0.000073   0.000023  -0.073337  -0.000000  -0.000000
    19  N    6.160334   0.365416  -0.034114  -0.004341   0.004398   0.005236
    20  H    0.365416   0.515278  -0.005078   0.014244  -0.000188  -0.000222
    21  H   -0.034114  -0.005078   0.606399   0.000034  -0.004158  -0.000181
    22  Br  -0.004341   0.014244   0.000034  35.061448   0.000000  -0.000000
    23  H    0.004398  -0.000188  -0.004158   0.000000   0.633613  -0.005499
    24  H    0.005236  -0.000222  -0.000181  -0.000000  -0.005499   0.642218
 Mulliken charges:
               1
     1  C    0.027724
     2  C   -0.038639
     3  C   -0.083864
     4  C    0.024710
     5  C   -0.077309
     6  C   -0.113009
     7  C    0.112363
     8  H    0.026508
     9  H    0.058413
    10  C   -0.034891
    11  H    0.056335
    12  H    0.074716
    13  C    0.063489
    14  O   -0.206408
    15  H    0.088891
    16  H    0.077875
    17  C    0.120000
    18  O   -0.142599
    19  N   -0.116044
    20  H    0.149089
    21  H    0.042585
    22  Br  -0.145078
    23  H    0.023178
    24  H    0.011967
 Sum of Mulliken charges =  -0.00000
 Mulliken charges with hydrogens summed into heavy atoms:
               1
     1  C    0.070309
     2  C    0.039236
     3  C   -0.083864
     4  C    0.113600
     5  C   -0.054131
     6  C   -0.101043
     7  C    0.197284
    10  C    0.096160
    13  C    0.063489
    14  O   -0.206408
    17  C    0.120000
    18  O   -0.142599
    19  N    0.033046
    22  Br  -0.145078
 APT charges:
               1
     1  C   -0.005671
     2  C   -0.352710
     3  C   -0.002767
     4  C    0.053321
     5  C   -0.119097
     6  C   -0.141157
     7  C    0.158901
     8  H   -0.005462
     9  H   -0.028569
    10  C   -0.087574
    11  H   -0.004416
    12  H    0.021912
    13  C    0.887074
    14  O   -0.722709
    15  H    0.072834
    16  H    0.044193
    17  C    1.459249
    18  O   -0.886454
    19  N   -0.395992
    20  H    0.290844
    21  H    0.091347
    22  Br  -0.470903
    23  H    0.068002
    24  H    0.075802
 Sum of APT charges =  -0.00000
 APT charges with hydrogens summed into heavy atoms:
               1
     1  C    0.085676
     2  C   -0.308517
     3  C   -0.002767
     4  C    0.126156
     5  C   -0.051094
     6  C   -0.065355
     7  C    0.124869
    10  C   -0.070077
    13  C    0.887074
    14  O   -0.722709
    17  C    1.459249
    18  O   -0.886454
    19  N   -0.105148
    22  Br  -0.470903
 Electronic spatial extent (au):  <R**2>=           3117.8288
 Charge=              0.0000 electrons
 Dipole moment (field-independent basis, Debye):
    X=             -3.9721    Y=              0.2719    Z=             -0.7962  Tot=              4.0602
 Quadrupole moment (field-independent basis, Debye-Ang):
   XX=           -103.7473   YY=            -94.5564   ZZ=            -88.4277
   XY=             -4.2244   XZ=             -6.6404   YZ=             -1.4125
 Traceless Quadrupole moment (field-independent basis, Debye-Ang):
   XX=             -8.1701   YY=              1.0207   ZZ=              7.1494
   XY=             -4.2244   XZ=             -6.6404   YZ=             -1.4125
 Octapole moment (field-independent basis, Debye-Ang**2):
  XXX=             66.9573  YYY=            -14.7693  ZZZ=            -24.5877  XYY=             -8.4313
  XXY=             17.8227  XXZ=             -0.4881  XZZ=             17.3157  YZZ=             -1.3065
  YYZ=            -21.9934  XYZ=              1.3992
 Hexadecapole moment (field-independent basis, Debye-Ang**3):
 XXXX=          -2063.8167 YYYY=          -1225.4071 ZZZZ=           -622.7881 XXXY=            -25.6708
 XXXZ=           -108.4438 YYYX=            -25.9916 YYYZ=             -6.6937 ZZZX=            -61.5002
 ZZZY=              0.8459 XXYY=           -559.7928 XXZZ=           -443.8325 YYZZ=           -314.2389
 XXYZ=             -9.3457 YYXZ=            -46.1103 ZZXY=            -10.4064
 N-N= 1.240575607275D+03 E-N=-1.000974897476D+04  KE= 3.156863471179D+03
  Exact polarizability:     150.122      -7.782     158.306     -12.350     -13.807     123.312
 Approx polarizability:     150.157     -12.264     167.005     -14.240     -16.452     136.688
   1 Symmetry operations used in ECPInt.
 ECPInt:  NShTT=    7260 NPrTT=   28205 LenC2=    7046 LenP2D=   20157.
 LDataN:  DoStor=T MaxTD1= 6 Len=  172
 D2PCM: PCM CHGder 2nd derivatives, FixD1E=F FixD2E=F DoIter=F DoCFld=F I1PDM=0
 Calling FoFJK, ICntrl=    100127 FMM=F ISym2X=0 I1Cent= 0 IOpClX= 0 NMat=1 NMatS=1 NMatT=0.
 Full mass-weighted force constant matrix:
 Low frequencies ---  -12.3061   -9.3375   -0.0065   -0.0050   -0.0044    4.3206
 Low frequencies ---    4.5938   45.4097   70.7256
 ******    1 imaginary frequencies (negative Signs) ****** 
 Diagonal vibrational polarizability:
       48.4295157     194.4435819      64.4387686
 Harmonic frequencies (cm**-1), IR intensities (KM/Mole), Raman scattering
 activities (A**4/AMU), depolarization ratios for plane and unpolarized
 incident light, reduced masses (AMU), force constants (mDyne/A),
 and normal coordinates:
                      1                      2                      3
                      A                      A                      A
 Frequencies --     -6.3597                45.2809                70.7013
 Red. masses --     10.7656                 5.1847                10.4574
 Frc consts  --      0.0003                 0.0063                 0.0308
 IR Inten    --      0.2542                 2.4023                 0.9231
  Atom  AN      X      Y      Z        X      Y      Z        X      Y      Z
     1   6    -0.12   0.05  -0.13     0.22   0.04  -0.11    -0.18   0.00   0.01
     2   6     0.05  -0.03   0.00    -0.03   0.07   0.04     0.06   0.02  -0.04
     3   6    -0.07   0.07  -0.01     0.00   0.06   0.02    -0.19   0.01   0.07
     4   6    -0.04  -0.09   0.00    -0.01   0.08   0.03     0.05   0.01  -0.04
     5   6    -0.14   0.02  -0.14     0.20  -0.10  -0.04    -0.23  -0.03  -0.03
     6   6    -0.12   0.03  -0.07     0.06  -0.09   0.04    -0.23  -0.02   0.01
     7   6    -0.04   0.09   0.08    -0.12   0.13   0.08    -0.20   0.02   0.09
     8   1    -0.04   0.11   0.08    -0.15   0.24   0.02    -0.20   0.04   0.09
     9   1    -0.03   0.13   0.09    -0.19   0.12   0.16    -0.21   0.03   0.11
    10   6    -0.04   0.02   0.14    -0.13   0.09   0.12    -0.20   0.01   0.11
    11   1    -0.05   0.05   0.19    -0.20   0.14   0.16    -0.31   0.06   0.12
    12   1    -0.04  -0.03   0.16    -0.10  -0.02   0.19    -0.16  -0.11   0.20
    13   6    -0.02  -0.06   0.06    -0.03   0.06  -0.01    -0.05   0.01  -0.07
    14   8     0.05  -0.14  -0.01     0.05  -0.00  -0.18     0.01  -0.01  -0.27
    15   1    -0.12  -0.18  -0.09     0.01   0.10   0.05     0.04  -0.02  -0.03
    16   1     0.06  -0.09  -0.06    -0.04   0.09   0.06     0.06   0.02  -0.04
    17   6     0.20   0.14   0.11    -0.06  -0.00   0.03     0.05  -0.03  -0.05
    18   8     0.41   0.37   0.28    -0.10  -0.03   0.05    -0.06  -0.13  -0.06
    19   7    -0.07   0.08  -0.05     0.10   0.13  -0.07    -0.16   0.03   0.07
    20   1    -0.04   0.10   0.00     0.09   0.24  -0.10    -0.13   0.05   0.10
    21   1    -0.12   0.05  -0.17     0.31   0.08  -0.18    -0.16   0.01   0.00
    22  35    -0.02  -0.10  -0.05    -0.02  -0.08   0.00     0.23   0.02   0.04
    23   1    -0.18  -0.01  -0.20     0.28  -0.19  -0.04    -0.26  -0.06  -0.08
    24   1    -0.13   0.01  -0.06     0.01  -0.17   0.11    -0.27  -0.04  -0.01
                      4                      5                      6
                      A                      A                      A
 Frequencies --     94.9995               110.0304               113.9776
 Red. masses --      5.7273                 3.7008                14.0414
 Frc consts  --      0.0305                 0.0264                 0.1075
 IR Inten    --      7.1355                 5.2432                 1.6237
  Atom  AN      X      Y      Z        X      Y      Z        X      Y      Z
     1   6     0.10   0.09   0.13     0.15   0.05   0.20    -0.03  -0.00  -0.02
     2   6    -0.15  -0.12  -0.16    -0.02  -0.02  -0.01     0.07   0.11  -0.03
     3   6    -0.05   0.07  -0.03     0.00   0.01  -0.01     0.04   0.00   0.03
     4   6    -0.18  -0.13  -0.15    -0.03  -0.02   0.01     0.05   0.10   0.03
     5   6     0.16   0.09   0.21    -0.06   0.02  -0.06    -0.03   0.01  -0.03
     6   6     0.06   0.08   0.10    -0.15  -0.00  -0.19     0.01   0.01   0.00
     7   6    -0.09   0.06  -0.07    -0.00   0.03   0.01     0.06  -0.00   0.04
     8   1    -0.12   0.06  -0.11    -0.00   0.05   0.01     0.18   0.00   0.18
     9   1    -0.12   0.07  -0.03    -0.01   0.03   0.03     0.13  -0.06  -0.10
    10   6    -0.03   0.03  -0.06    -0.01   0.01   0.04    -0.15   0.06   0.07
    11   1     0.06  -0.00  -0.05    -0.00   0.02   0.06    -0.25   0.12   0.11
    12   1    -0.02   0.10  -0.08    -0.01  -0.01   0.04    -0.23  -0.05   0.01
    13   6    -0.11  -0.08  -0.03    -0.01  -0.02   0.03    -0.15   0.22   0.16
    14   8    -0.11  -0.12   0.10     0.01  -0.05   0.02    -0.34   0.46   0.39
    15   1    -0.23  -0.19  -0.22    -0.05  -0.04  -0.01     0.09   0.02   0.11
    16   1    -0.20  -0.17  -0.23    -0.02  -0.04  -0.04     0.08   0.12  -0.01
    17   6    -0.03  -0.02  -0.03    -0.02  -0.00  -0.02     0.02   0.00  -0.04
    18   8     0.02   0.05   0.05    -0.02  -0.01  -0.03    -0.04  -0.04   0.00
    19   7    -0.04   0.07  -0.02     0.18   0.04   0.21     0.02  -0.01   0.02
    20   1    -0.08   0.08  -0.08     0.31   0.06   0.38     0.02  -0.02   0.03
    21   1     0.13   0.10   0.16     0.28   0.06   0.36    -0.06  -0.01  -0.03
    22  35     0.08  -0.01  -0.01    -0.01  -0.00  -0.04     0.09  -0.16  -0.12
    23   1     0.27   0.11   0.33    -0.14   0.02  -0.15    -0.06   0.01  -0.05
    24   1     0.09   0.08   0.14    -0.32  -0.02  -0.40     0.02   0.02   0.00
                      7                      8                      9
                      A                      A                      A
 Frequencies --    155.0683               162.0149               231.3059
 Red. masses --      3.3358                 6.3421                 5.1956
 Frc consts  --      0.0473                 0.0981                 0.1638
 IR Inten    --      1.6635                 1.8064                 5.1454
  Atom  AN      X      Y      Z        X      Y      Z        X      Y      Z
     1   6    -0.05  -0.01   0.03     0.05   0.10   0.06     0.01   0.02  -0.02
     2   6    -0.04   0.01   0.01     0.25  -0.04   0.12     0.14   0.17   0.28
     3   6     0.11  -0.02  -0.04    -0.04   0.06  -0.15    -0.06   0.02  -0.04
     4   6    -0.07  -0.00   0.09     0.13  -0.10  -0.03    -0.10   0.02   0.20
     5   6     0.01   0.09   0.03     0.06   0.14   0.04     0.02  -0.00   0.01
     6   6     0.11   0.08  -0.01     0.00   0.12  -0.09    -0.02  -0.00  -0.00
     7   6     0.18  -0.03   0.00    -0.05   0.06  -0.13    -0.06   0.00  -0.07
     8   1     0.37  -0.00   0.22    -0.02   0.12  -0.11    -0.13  -0.03  -0.13
     9   1     0.29  -0.08  -0.21    -0.05   0.09  -0.12    -0.09   0.04  -0.00
    10   6    -0.16  -0.03   0.14    -0.14  -0.06   0.00     0.06  -0.02  -0.10
    11   1    -0.29   0.09   0.28    -0.22   0.04   0.16     0.25  -0.12  -0.14
    12   1    -0.28  -0.28   0.08    -0.16  -0.24   0.03     0.06   0.18  -0.17
    13   6    -0.10  -0.01   0.07    -0.07  -0.06  -0.07    -0.10  -0.09   0.04
    14   8    -0.01  -0.09  -0.13    -0.15   0.06  -0.05    -0.04  -0.20   0.08
    15   1    -0.05  -0.05   0.11     0.17  -0.12   0.03    -0.05   0.01   0.27
    16   1    -0.01  -0.03  -0.02     0.36   0.05   0.27     0.39   0.20   0.43
    17   6    -0.04   0.04  -0.02     0.16  -0.10   0.03     0.00   0.13   0.06
    18   8    -0.04   0.03  -0.01     0.16  -0.15  -0.10    -0.11   0.00  -0.05
    19   7     0.02  -0.07  -0.01    -0.01   0.05  -0.07    -0.03   0.03  -0.04
    20   1     0.00  -0.15  -0.03    -0.02   0.02  -0.07    -0.06   0.04  -0.07
    21   1    -0.13  -0.04   0.06     0.08   0.10   0.15     0.04   0.03  -0.02
    22  35     0.01   0.01  -0.02    -0.06  -0.01   0.07     0.05  -0.00  -0.06
    23   1    -0.02   0.17   0.07     0.10   0.18   0.12     0.06  -0.01   0.04
    24   1     0.18   0.15  -0.01    -0.00   0.14  -0.14    -0.03  -0.01   0.01
                     10                     11                     12
                      A                      A                      A
 Frequencies --    262.9172               338.2750               357.6713
 Red. masses --      5.2878                 2.4653                 7.4095
 Frc consts  --      0.2154                 0.1662                 0.5585
 IR Inten    --      9.4278                 4.7525                13.2921
  Atom  AN      X      Y      Z        X      Y      Z        X      Y      Z
     1   6    -0.07  -0.01  -0.09     0.06   0.03  -0.00     0.04   0.02  -0.00
     2   6     0.10   0.05   0.03     0.03   0.05  -0.03     0.07  -0.01   0.10
     3   6     0.19   0.04   0.23    -0.12   0.04   0.02    -0.07   0.03   0.01
     4   6    -0.12  -0.07  -0.20    -0.04   0.01  -0.04     0.02  -0.06  -0.17
     5   6    -0.09  -0.02  -0.10     0.04  -0.06   0.03     0.02  -0.03   0.02
     6   6     0.11   0.02   0.14    -0.11  -0.05   0.02    -0.07  -0.03   0.02
     7   6     0.02   0.02   0.03     0.16  -0.06   0.01     0.12  -0.04   0.02
     8   1     0.04   0.01   0.05     0.38  -0.32   0.32     0.28  -0.19   0.24
     9   1    -0.06  -0.18  -0.04     0.46  -0.02  -0.36     0.32  -0.01  -0.24
    10   6    -0.05   0.16  -0.09     0.01   0.05  -0.02    -0.03  -0.01   0.04
    11   1     0.07   0.09  -0.14     0.05   0.01  -0.06    -0.16   0.07   0.10
    12   1    -0.05   0.27  -0.14    -0.06   0.09  -0.12    -0.05  -0.19   0.08
    13   6    -0.13   0.01  -0.10    -0.03   0.04   0.03     0.04  -0.01  -0.07
    14   8    -0.09  -0.10  -0.02     0.02  -0.02  -0.01     0.01   0.00   0.03
    15   1    -0.17  -0.14  -0.26    -0.10  -0.07  -0.10    -0.08  -0.07  -0.31
    16   1     0.17   0.12   0.13     0.01   0.02  -0.07    -0.01   0.07   0.16
    17   6     0.07  -0.00   0.03     0.04   0.05  -0.04     0.08  -0.15   0.24
    18   8     0.03  -0.07  -0.06     0.03   0.01  -0.10    -0.10  -0.22   0.36
    19   7     0.13   0.03   0.15    -0.07   0.08  -0.02    -0.06   0.05  -0.02
    20   1     0.16   0.04   0.18    -0.06   0.16  -0.01     0.01   0.12   0.06
    21   1    -0.16  -0.02  -0.20     0.16   0.06  -0.01     0.10   0.04  -0.01
    22  35    -0.02  -0.01   0.02    -0.01  -0.02   0.03    -0.01   0.08  -0.11
    23   1    -0.22  -0.04  -0.27     0.11  -0.13   0.05     0.07  -0.07   0.03
    24   1     0.12   0.02   0.15    -0.16  -0.13   0.08    -0.10  -0.08   0.06
                     13                     14                     15
                      A                      A                      A
 Frequencies --    361.4757               451.9843               491.1710
 Red. masses --      4.2314                 2.6396                 2.4932
 Frc consts  --      0.3258                 0.3177                 0.3544
 IR Inten    --      4.7294                 4.1937                19.1533
  Atom  AN      X      Y      Z        X      Y      Z        X      Y      Z
     1   6     0.02   0.08  -0.07    -0.01  -0.03   0.03    -0.00  -0.03   0.02
     2   6    -0.10  -0.16   0.02     0.02  -0.02  -0.07     0.03   0.01  -0.07
     3   6    -0.01   0.08   0.11     0.01  -0.03  -0.04    -0.00  -0.01  -0.01
     4   6     0.08  -0.04   0.21    -0.01  -0.00   0.12     0.09   0.05  -0.03
     5   6    -0.02  -0.00  -0.07     0.01  -0.00   0.02    -0.01  -0.02   0.01
     6   6    -0.01   0.03   0.11    -0.00  -0.02  -0.06    -0.01  -0.02  -0.03
     7   6     0.04  -0.06  -0.07    -0.01   0.04   0.06     0.01   0.03  -0.00
     8   1     0.08  -0.23   0.02    -0.01   0.08   0.05     0.08   0.02   0.09
     9   1     0.13  -0.06  -0.20    -0.02   0.02   0.05     0.05  -0.03  -0.12
    10   6     0.03  -0.10  -0.10     0.03   0.15  -0.02    -0.07   0.12  -0.02
    11   1     0.18  -0.15  -0.07     0.44  -0.10  -0.23    -0.10   0.13  -0.03
    12   1    -0.01   0.00  -0.19     0.02   0.64  -0.23    -0.06   0.09   0.00
    13   6    -0.05  -0.09  -0.00    -0.12   0.07   0.14    -0.04   0.03  -0.07
    14   8    -0.12   0.07  -0.12    -0.02   0.01  -0.10     0.01  -0.12   0.09
    15   1     0.30   0.11   0.48    -0.04  -0.19   0.11     0.48   0.27   0.45
    16   1    -0.00  -0.12   0.10    -0.06  -0.10  -0.19     0.32   0.26   0.34
    17   6    -0.09  -0.11  -0.03     0.08  -0.07   0.01    -0.10  -0.12  -0.13
    18   8     0.05   0.04   0.05     0.04  -0.09   0.06     0.02   0.04   0.08
    19   7     0.04   0.15   0.08    -0.02  -0.06  -0.04    -0.02  -0.03  -0.01
    20   1     0.04   0.23   0.06    -0.00  -0.10  -0.02    -0.03  -0.05  -0.02
    21   1     0.04   0.10  -0.16    -0.02  -0.04   0.06     0.02  -0.02   0.05
    22  35     0.01   0.01  -0.02    -0.01   0.01  -0.01     0.00   0.01   0.01
    23   1    -0.04  -0.08  -0.16     0.02   0.03   0.07     0.01  -0.01   0.04
    24   1    -0.05  -0.03   0.15     0.01   0.01  -0.08    -0.02  -0.03  -0.03
                     16                     17                     18
                      A                      A                      A
 Frequencies --    504.7464               563.8423               587.2587
 Red. masses --      5.6711                 4.3700                 1.5158
 Frc consts  --      0.8513                 0.8186                 0.3080
 IR Inten    --     71.1037                25.7248               108.2216
  Atom  AN      X      Y      Z        X      Y      Z        X      Y      Z
     1   6    -0.00  -0.03   0.04    -0.01   0.00  -0.02     0.03   0.02   0.03
     2   6    -0.18  -0.13   0.32    -0.12   0.04  -0.00     0.01   0.01  -0.03
     3   6     0.02  -0.01  -0.01    -0.03   0.00  -0.01     0.03  -0.01   0.04
     4   6    -0.07  -0.05  -0.08    -0.03   0.15   0.10     0.01   0.00   0.00
     5   6     0.01  -0.01   0.04    -0.01  -0.01  -0.01    -0.02   0.01  -0.03
     6   6    -0.02  -0.03  -0.06     0.03   0.01   0.06     0.03   0.02   0.04
     7   6     0.04   0.07   0.10    -0.07  -0.04  -0.17    -0.00  -0.03   0.02
     8   1     0.12   0.09   0.19    -0.09  -0.07  -0.19    -0.04  -0.01  -0.02
     9   1     0.09   0.03   0.01    -0.11  -0.09  -0.16    -0.04  -0.05   0.05
    10   6     0.02   0.14   0.04    -0.13   0.02  -0.10     0.00  -0.02  -0.00
    11   1     0.11   0.08  -0.04    -0.41   0.16  -0.05    -0.00  -0.03  -0.02
    12   1     0.09   0.27   0.08    -0.24  -0.26  -0.14     0.01  -0.02  -0.00
    13   6     0.04   0.02  -0.09    -0.01   0.17   0.08    -0.01  -0.00  -0.00
    14   8    -0.02   0.09  -0.04     0.15  -0.09   0.09    -0.01  -0.01  -0.00
    15   1    -0.05   0.24  -0.08    -0.11   0.05   0.01     0.04   0.01   0.05
    16   1    -0.15   0.06   0.54    -0.42  -0.00  -0.18     0.04   0.01  -0.01
    17   6    -0.19  -0.13   0.17     0.04  -0.13   0.14     0.01   0.02  -0.01
    18   8     0.16   0.05  -0.17     0.17  -0.10  -0.07    -0.01   0.00   0.00
    19   7    -0.06  -0.06  -0.08     0.01   0.02   0.03    -0.09  -0.01  -0.14
    20   1     0.09  -0.06   0.12     0.11   0.07   0.16     0.57   0.14   0.72
    21   1     0.02  -0.04   0.09    -0.01   0.01  -0.05     0.15   0.04   0.19
    22  35     0.03   0.00  -0.03     0.00   0.01  -0.01    -0.00  -0.00   0.00
    23   1     0.03   0.02   0.09    -0.05  -0.03  -0.07    -0.09  -0.01  -0.12
    24   1    -0.04  -0.02  -0.10     0.00  -0.02   0.06    -0.04   0.02  -0.05
                     19                     20                     21
                      A                      A                      A
 Frequencies --    639.9675               652.6897               692.0435
 Red. masses --      2.8075                 2.8689                 2.6231
 Frc consts  --      0.6775                 0.7201                 0.7402
 IR Inten    --      1.0321                13.0882                17.1582
  Atom  AN      X      Y      Z        X      Y      Z        X      Y      Z
     1   6    -0.11   0.02  -0.17    -0.11  -0.09  -0.06     0.01  -0.01   0.03
     2   6    -0.00   0.03  -0.01     0.01  -0.06   0.00    -0.00   0.04  -0.03
     3   6     0.03  -0.03   0.06    -0.04   0.06  -0.08     0.17   0.06   0.19
     4   6    -0.00   0.03  -0.01     0.03  -0.05   0.04    -0.09   0.01   0.05
     5   6     0.17   0.08   0.16     0.03  -0.10   0.11    -0.00  -0.04   0.03
     6   6    -0.11   0.03  -0.12     0.02  -0.08   0.02    -0.08  -0.05  -0.07
     7   6    -0.02  -0.10   0.08     0.05   0.19  -0.16     0.09   0.07  -0.07
     8   1    -0.05  -0.09   0.04     0.07   0.17  -0.14    -0.10   0.12  -0.30
     9   1    -0.07  -0.16   0.11     0.09   0.24  -0.17    -0.14   0.00   0.20
    10   6    -0.01  -0.04  -0.01     0.03   0.09  -0.00     0.08  -0.00  -0.03
    11   1    -0.02  -0.09  -0.10     0.01   0.21   0.24    -0.14   0.20   0.24
    12   1     0.00   0.01  -0.00    -0.03  -0.12   0.00    -0.02  -0.41  -0.00
    13   6    -0.01   0.01  -0.01     0.02  -0.03  -0.01    -0.01  -0.00  -0.00
    14   8    -0.00  -0.02   0.01    -0.01   0.02  -0.01    -0.02   0.01  -0.02
    15   1     0.01   0.03   0.01     0.03  -0.05   0.02    -0.05  -0.03   0.10
    16   1    -0.01   0.06   0.01     0.02  -0.12  -0.07     0.05   0.03  -0.01
    17   6    -0.01  -0.03  -0.01     0.03   0.07   0.01     0.02  -0.03  -0.02
    18   8     0.02  -0.00  -0.00    -0.05   0.01   0.00     0.03  -0.03   0.01
    19   7     0.06   0.03   0.02    -0.00  -0.02   0.10    -0.11  -0.00  -0.06
    20   1     0.28   0.11   0.29     0.34  -0.03   0.55    -0.28  -0.06  -0.28
    21   1    -0.33  -0.02  -0.37    -0.15  -0.08  -0.20     0.16   0.02   0.12
    22  35    -0.00   0.00   0.00    -0.00  -0.00   0.00    -0.00   0.00   0.00
    23   1     0.25   0.07   0.23    -0.02  -0.07   0.09     0.08  -0.03   0.13
    24   1    -0.28   0.03  -0.37    -0.12  -0.18  -0.02    -0.29  -0.13  -0.24
                     22                     23                     24
                      A                      A                      A
 Frequencies --    696.0114               714.2563               741.6488
 Red. masses --      4.3671                 4.3456                 1.2382
 Frc consts  --      1.2465                 1.3062                 0.4013
 IR Inten    --      4.3177                18.7424                91.3708
  Atom  AN      X      Y      Z        X      Y      Z        X      Y      Z
     1   6     0.01   0.01   0.00     0.00   0.01  -0.01    -0.08  -0.01  -0.09
     2   6    -0.05  -0.20   0.01     0.14  -0.11   0.16    -0.00   0.01  -0.00
     3   6     0.10  -0.00   0.13     0.02  -0.00   0.04     0.00   0.00   0.00
     4   6     0.22  -0.06   0.05    -0.02  -0.19  -0.05    -0.01   0.00  -0.00
     5   6     0.01   0.02  -0.00     0.01   0.01  -0.00    -0.03  -0.01  -0.04
     6   6    -0.05   0.01  -0.06    -0.02   0.01   0.01    -0.01  -0.00  -0.01
     7   6    -0.06  -0.03  -0.01    -0.04  -0.07  -0.11    -0.00  -0.00   0.00
     8   1     0.09  -0.07   0.17    -0.11  -0.08  -0.20    -0.00  -0.00   0.01
     9   1    -0.04  -0.26  -0.26    -0.14  -0.13  -0.04     0.00   0.01  -0.00
    10   6    -0.15   0.13  -0.07    -0.07   0.04  -0.05     0.00  -0.01   0.00
    11   1    -0.11   0.07  -0.16    -0.15   0.05  -0.11     0.01  -0.01  -0.00
    12   1    -0.11   0.23  -0.06    -0.23   0.01  -0.25     0.01   0.01   0.01
    13   6     0.04  -0.01  -0.07     0.03   0.15   0.19     0.00   0.00   0.00
    14   8     0.03  -0.04   0.06     0.16   0.07  -0.02     0.00   0.00  -0.00
    15   1     0.23   0.06   0.05    -0.22  -0.45  -0.29    -0.01  -0.00  -0.00
    16   1    -0.14  -0.33  -0.18     0.25  -0.18   0.13     0.00   0.01   0.00
    17   6     0.11   0.23   0.15    -0.14  -0.05  -0.17    -0.00  -0.01  -0.00
    18   8    -0.11   0.01  -0.04    -0.06   0.10   0.06     0.00  -0.00   0.00
    19   7    -0.03  -0.01  -0.06    -0.01   0.01  -0.01     0.03   0.00   0.03
    20   1    -0.18  -0.04  -0.25     0.01   0.04   0.01     0.06   0.00   0.07
    21   1     0.11   0.03   0.14     0.03   0.02   0.01     0.48   0.08   0.53
    22  35    -0.00  -0.01  -0.00     0.00   0.00   0.00     0.00   0.00   0.00
    23   1     0.10   0.03   0.10     0.01  -0.01  -0.01     0.40   0.07   0.47
    24   1    -0.12   0.02  -0.18    -0.09  -0.00  -0.07     0.16   0.03   0.18
                     25                     26                     27
                      A                      A                      A
 Frequencies --    784.6414               825.9374               829.7702
 Red. masses --      2.0599                 1.3259                 2.7978
 Frc consts  --      0.7472                 0.5329                 1.1350
 IR Inten    --     34.4339                19.5846                31.6195
  Atom  AN      X      Y      Z        X      Y      Z        X      Y      Z
     1   6    -0.01  -0.01   0.00     0.05   0.01   0.05     0.01  -0.00   0.01
     2   6     0.07   0.08   0.07     0.02  -0.00   0.02     0.03   0.03   0.02
     3   6     0.04   0.02   0.04     0.01   0.00   0.02     0.00  -0.01   0.02
     4   6     0.15   0.09   0.02     0.05   0.01   0.01    -0.17  -0.04   0.18
     5   6     0.00  -0.01   0.01    -0.02  -0.00  -0.02     0.00   0.02  -0.01
     6   6     0.02  -0.01   0.00    -0.09  -0.01  -0.09    -0.00   0.01  -0.02
     7   6    -0.02   0.05  -0.02     0.04  -0.00   0.01    -0.10   0.02   0.04
     8   1     0.09   0.03   0.10    -0.06   0.04  -0.12     0.16  -0.12   0.37
     9   1     0.04   0.01  -0.15    -0.07  -0.04   0.13     0.11  -0.13  -0.39
    10   6    -0.04  -0.03   0.02     0.01   0.02  -0.02    -0.02   0.09  -0.06
    11   1     0.18  -0.10   0.03    -0.05   0.07   0.03    -0.24   0.17  -0.08
    12   1     0.01   0.16   0.00    -0.04  -0.08  -0.05     0.21  -0.05   0.32
    13   6    -0.01  -0.08  -0.02    -0.02   0.00  -0.01     0.12  -0.06  -0.15
    14   8    -0.05  -0.05   0.02    -0.02  -0.02   0.00     0.02   0.06   0.03
    15   1    -0.25  -0.10  -0.49    -0.02  -0.05  -0.07    -0.28  -0.09   0.04
    16   1    -0.49  -0.12  -0.41    -0.11  -0.07  -0.11     0.08  -0.22  -0.22
    17   6    -0.10  -0.08  -0.06    -0.02  -0.01  -0.01     0.04  -0.04  -0.12
    18   8     0.01   0.04   0.01    -0.01   0.01   0.00     0.02  -0.03   0.04
    19   7    -0.02  -0.00  -0.01    -0.01   0.00  -0.01     0.02  -0.02  -0.02
    20   1    -0.03  -0.03  -0.02     0.10   0.04   0.14     0.07  -0.02   0.04
    21   1     0.08   0.00   0.08    -0.26  -0.04  -0.29    -0.09  -0.03  -0.02
    22  35     0.00   0.00   0.00     0.00   0.00   0.00    -0.00   0.00   0.00
    23   1    -0.05  -0.00  -0.03     0.17   0.02   0.19     0.02   0.03   0.02
    24   1    -0.13  -0.04  -0.17     0.49   0.07   0.61     0.12   0.06   0.06
                     28                     29                     30
                      A                      A                      A
 Frequencies --    884.4679               899.9142               913.0000
 Red. masses --      2.2772                 4.5151                 1.3793
 Frc consts  --      1.0496                 2.1544                 0.6774
 IR Inten    --     15.8927                 4.0723                 2.4271
  Atom  AN      X      Y      Z        X      Y      Z        X      Y      Z
     1   6     0.00  -0.06  -0.05    -0.11   0.31   0.01     0.04   0.02   0.05
     2   6     0.03  -0.03   0.05     0.02  -0.02   0.03     0.01  -0.00   0.01
     3   6    -0.10  -0.04  -0.06     0.03  -0.05  -0.10    -0.02  -0.01  -0.03
     4   6     0.04  -0.01   0.05     0.02  -0.01   0.03     0.01  -0.00   0.01
     5   6     0.08   0.06  -0.03    -0.18  -0.14   0.21    -0.09  -0.01  -0.09
     6   6    -0.01   0.07   0.07     0.08  -0.18  -0.02     0.05   0.01   0.08
     7   6     0.10  -0.05   0.11     0.06  -0.04   0.08     0.02  -0.01   0.02
     8   1    -0.17   0.01  -0.22    -0.06   0.01  -0.06    -0.02  -0.01  -0.03
     9   1    -0.08   0.00   0.42    -0.02  -0.01   0.22     0.00   0.01   0.06
    10   6     0.07   0.11  -0.06     0.02   0.03  -0.05     0.01   0.02  -0.01
    11   1    -0.29   0.29   0.02    -0.20   0.09  -0.09    -0.05   0.05   0.00
    12   1    -0.02  -0.32  -0.01    -0.02  -0.16  -0.04     0.00  -0.06   0.00
    13   6    -0.05   0.04  -0.08    -0.03   0.04  -0.04    -0.01   0.01  -0.01
    14   8    -0.05  -0.03  -0.00    -0.02  -0.02   0.00    -0.01  -0.01  -0.00
    15   1    -0.03  -0.11  -0.02    -0.01  -0.07  -0.01    -0.01  -0.02  -0.01
    16   1    -0.18  -0.21  -0.23    -0.08  -0.12  -0.13    -0.03  -0.04  -0.05
    17   6    -0.00   0.00  -0.02    -0.00   0.00  -0.01    -0.00   0.00  -0.00
    18   8    -0.01   0.01   0.01    -0.01   0.01   0.00    -0.00   0.00   0.00
    19   7     0.00  -0.03   0.03     0.12   0.09  -0.10     0.01   0.00  -0.01
    20   1    -0.05   0.06  -0.05     0.09  -0.15  -0.12     0.04   0.01   0.03
    21   1     0.18  -0.05   0.24     0.06   0.36   0.09    -0.29  -0.04  -0.29
    22  35     0.00  -0.00   0.00    -0.00  -0.00   0.00     0.00  -0.00   0.00
    23   1    -0.12   0.02  -0.27    -0.20  -0.39  -0.02     0.48   0.07   0.56
    24   1    -0.16   0.00  -0.03     0.24   0.10  -0.23    -0.31  -0.05  -0.37
                     31                     32                     33
                      A                      A                      A
 Frequencies --    963.5355               997.1090              1002.2686
 Red. masses --      2.4343                 1.3235                 2.0051
 Frc consts  --      1.3316                 0.7753                 1.1867
 IR Inten    --     28.9164                 2.7567                43.0143
  Atom  AN      X      Y      Z        X      Y      Z        X      Y      Z
     1   6    -0.01   0.06  -0.01     0.00  -0.00   0.00     0.01  -0.03   0.00
     2   6     0.01   0.02  -0.02     0.07   0.04   0.07     0.03  -0.01  -0.04
     3   6    -0.03  -0.08   0.06     0.01   0.01   0.01     0.01   0.03   0.02
     4   6     0.03   0.01  -0.03    -0.07  -0.05  -0.09     0.06  -0.01  -0.02
     5   6     0.00   0.03  -0.00    -0.00   0.00   0.00    -0.00   0.01   0.00
     6   6    -0.13   0.05   0.10     0.01  -0.01  -0.01     0.08  -0.05  -0.07
     7   6    -0.07   0.00  -0.10    -0.02  -0.00  -0.01    -0.13   0.01   0.05
     8   1    -0.01  -0.20   0.01     0.00  -0.03   0.02     0.00  -0.36   0.30
     9   1     0.04  -0.02  -0.27     0.02   0.02  -0.04     0.16   0.10  -0.26
    10   6     0.10   0.08   0.05     0.01  -0.01   0.01     0.13  -0.01  -0.06
    11   1     0.14   0.22   0.41     0.03  -0.03   0.00    -0.17   0.18   0.11
    12   1     0.08  -0.13   0.11     0.01   0.01   0.01     0.20  -0.35   0.18
    13   6    -0.03  -0.02   0.06    -0.00   0.01   0.02    -0.08   0.07   0.05
    14   8    -0.02  -0.00  -0.02     0.01   0.01  -0.01    -0.02  -0.03  -0.02
    15   1     0.06  -0.04   0.01     0.42   0.28   0.51     0.06  -0.33   0.03
    16   1    -0.05   0.07   0.01    -0.40  -0.26  -0.47    -0.00   0.07   0.03
    17   6    -0.02  -0.00   0.03    -0.00   0.00  -0.00    -0.06  -0.01   0.08
    18   8    -0.00   0.01  -0.01    -0.00   0.00   0.00    -0.01   0.02  -0.02
    19   7     0.14  -0.09  -0.10    -0.01   0.00   0.00    -0.02   0.02   0.01
    20   1     0.13  -0.09  -0.12    -0.00  -0.00   0.01    -0.02  -0.00   0.01
    21   1    -0.31  -0.08   0.30     0.01   0.00  -0.02     0.08   0.00  -0.09
    22  35     0.00  -0.00  -0.00    -0.00  -0.00   0.00     0.00  -0.00  -0.00
    23   1     0.21  -0.39  -0.15    -0.02   0.04   0.01    -0.18   0.35   0.10
    24   1    -0.07   0.12   0.10     0.00  -0.01  -0.01     0.11  -0.03  -0.07
                     34                     35                     36
                      A                      A                      A
 Frequencies --   1026.3676              1046.7115              1064.7138
 Red. masses --      1.9826                 1.3409                 3.1236
 Frc consts  --      1.2305                 0.8656                 2.0863
 IR Inten    --     12.1780                 3.8657               161.1341
  Atom  AN      X      Y      Z        X      Y      Z        X      Y      Z
     1   6     0.02  -0.00  -0.02     0.01  -0.03  -0.00    -0.00   0.02  -0.00
     2   6    -0.02   0.02   0.00     0.02   0.01  -0.02     0.14   0.08  -0.16
     3   6    -0.01  -0.04  -0.02     0.00   0.00   0.00     0.00  -0.02  -0.03
     4   6     0.00   0.01  -0.00    -0.00  -0.01   0.00    -0.03  -0.08   0.05
     5   6    -0.02  -0.02   0.02     0.01  -0.08   0.01    -0.01   0.02   0.00
     6   6     0.05  -0.00  -0.04    -0.00   0.10  -0.02    -0.03  -0.02   0.03
     7   6    -0.02  -0.14  -0.08    -0.00   0.03   0.01     0.06  -0.04  -0.03
     8   1    -0.13  -0.23  -0.20     0.04   0.06   0.05     0.05   0.25  -0.12
     9   1    -0.20  -0.41  -0.06     0.02   0.04  -0.01    -0.15  -0.23   0.09
    10   6     0.04   0.14   0.11     0.00  -0.02  -0.02    -0.06   0.04   0.03
    11   1     0.21   0.20   0.38    -0.06  -0.02  -0.07     0.04  -0.05  -0.09
    12   1     0.01   0.07   0.10     0.06  -0.01   0.06     0.05   0.19   0.12
    13   6     0.02  -0.07   0.02    -0.01   0.02  -0.01     0.07  -0.05  -0.06
    14   8    -0.02   0.01  -0.01     0.00  -0.00  -0.00     0.02   0.03   0.01
    15   1    -0.03   0.14  -0.05     0.03  -0.13   0.06     0.09  -0.57   0.26
    16   1    -0.02   0.05   0.03     0.01   0.00  -0.03     0.13   0.05  -0.21
    17   6     0.02   0.00  -0.02    -0.03  -0.01   0.04    -0.19  -0.05   0.23
    18   8     0.00  -0.01   0.00    -0.00   0.01  -0.01    -0.01   0.05  -0.05
    19   7    -0.06   0.05   0.05    -0.06  -0.00   0.05     0.00   0.01  -0.00
    20   1    -0.06   0.13   0.05    -0.06  -0.00   0.05    -0.02   0.05  -0.04
    21   1     0.28   0.11  -0.26     0.10   0.01  -0.10     0.04   0.03  -0.02
    22  35    -0.00   0.00   0.00     0.00  -0.00  -0.00     0.00   0.00  -0.00
    23   1    -0.11   0.14   0.07     0.26  -0.54  -0.13    -0.06   0.11   0.03
    24   1     0.18   0.20  -0.19     0.29   0.57  -0.33    -0.15  -0.21   0.15
                     37                     38                     39
                      A                      A                      A
 Frequencies --   1125.9467              1133.8775              1151.9106
 Red. masses --      1.8680                 1.5834                 1.3939
 Frc consts  --      1.3953                 1.1994                 1.0897
 IR Inten    --     16.4015                43.8264                32.7667
  Atom  AN      X      Y      Z        X      Y      Z        X      Y      Z
     1   6     0.06  -0.10  -0.04     0.02   0.06  -0.02    -0.03  -0.07   0.03
     2   6    -0.00  -0.00   0.00    -0.02  -0.04   0.04    -0.01  -0.02   0.02
     3   6    -0.02  -0.07   0.04     0.04  -0.03  -0.02    -0.00  -0.00   0.00
     4   6    -0.00   0.00   0.00     0.01   0.02   0.00     0.00   0.01   0.00
     5   6    -0.10  -0.02   0.09    -0.00   0.03  -0.00     0.00  -0.03   0.01
     6   6    -0.10   0.05   0.07    -0.04   0.02   0.03     0.03  -0.03  -0.02
     7   6     0.02   0.05  -0.02     0.00  -0.03  -0.07     0.02  -0.03  -0.05
     8   1     0.08   0.19   0.00     0.15   0.30   0.02     0.08   0.18  -0.04
     9   1     0.07   0.16   0.01    -0.06  -0.10  -0.04    -0.06  -0.10  -0.00
    10   6    -0.01  -0.02  -0.01     0.03  -0.04   0.05     0.01  -0.02   0.04
    11   1     0.00  -0.03  -0.02     0.01  -0.09  -0.07     0.03  -0.06  -0.04
    12   1    -0.01   0.01  -0.03     0.41   0.12   0.50     0.24   0.09   0.30
    13   6    -0.00   0.01  -0.01    -0.07   0.12  -0.05    -0.04   0.07  -0.04
    14   8     0.00  -0.00   0.00    -0.01  -0.03   0.00    -0.00  -0.01   0.00
    15   1    -0.01   0.00  -0.00    -0.00  -0.13   0.01     0.00  -0.09   0.01
    16   1     0.02  -0.02  -0.00    -0.00  -0.07   0.01     0.01  -0.05  -0.00
    17   6     0.00   0.00  -0.01     0.02   0.01  -0.03     0.01   0.01  -0.01
    18   8    -0.00  -0.00   0.00    -0.00  -0.00   0.01    -0.00  -0.00   0.00
    19   7     0.09  -0.01  -0.08    -0.03  -0.04   0.03     0.01   0.09  -0.02
    20   1     0.09   0.26  -0.13    -0.03  -0.27   0.08     0.00   0.59  -0.11
    21   1     0.37   0.02  -0.33     0.27   0.19  -0.28    -0.39  -0.23   0.39
    22  35    -0.00  -0.00   0.00    -0.00  -0.00   0.00    -0.00  -0.00   0.00
    23   1    -0.36   0.43   0.24     0.04  -0.05  -0.03    -0.03   0.01   0.01
    24   1     0.08   0.35  -0.12    -0.16  -0.17   0.16     0.08   0.05  -0.08
                     40                     41                     42
                      A                      A                      A
 Frequencies --   1197.1364              1251.7655              1270.9169
 Red. masses --      1.6665                 1.1747                 1.3196
 Frc consts  --      1.4071                 1.0845                 1.2558
 IR Inten    --     39.9042                23.4751                10.1716
  Atom  AN      X      Y      Z        X      Y      Z        X      Y      Z
     1   6     0.01   0.01  -0.01    -0.01   0.00   0.00    -0.00   0.00   0.00
     2   6     0.01  -0.02  -0.01     0.03  -0.02  -0.02    -0.02  -0.00   0.02
     3   6    -0.01   0.03   0.05     0.01  -0.03  -0.02    -0.02  -0.01  -0.01
     4   6    -0.02   0.01   0.04    -0.01   0.03   0.00    -0.01  -0.00   0.00
     5   6     0.01  -0.00  -0.01    -0.00   0.01  -0.00     0.00   0.00  -0.00
     6   6     0.01  -0.02  -0.02     0.00  -0.00   0.00     0.01  -0.00   0.00
     7   6    -0.01  -0.04  -0.05    -0.01   0.02   0.03     0.00   0.04   0.05
     8   1    -0.21  -0.46  -0.18     0.09   0.15   0.12     0.03   0.04   0.09
     9   1     0.22   0.53   0.14    -0.08  -0.19  -0.06    -0.13  -0.29  -0.06
    10   6    -0.01  -0.01   0.12     0.02  -0.03  -0.03    -0.03  -0.06  -0.04
    11   1     0.20  -0.11   0.08     0.16   0.04   0.24     0.51  -0.01   0.54
    12   1    -0.13   0.15  -0.11    -0.04  -0.09  -0.09    -0.15  -0.09  -0.20
    13   6    -0.02   0.10  -0.15    -0.03   0.04   0.01    -0.01   0.06  -0.09
    14   8     0.01  -0.01   0.02     0.00  -0.01   0.00     0.04   0.01   0.02
    15   1    -0.07  -0.05  -0.01    -0.11   0.48  -0.18     0.06  -0.40   0.15
    16   1     0.23  -0.23  -0.13     0.52  -0.43  -0.23    -0.16   0.10   0.07
    17   6    -0.02  -0.01   0.02    -0.04  -0.02   0.05     0.02   0.01  -0.03
    18   8     0.00   0.00  -0.00     0.00   0.00  -0.00    -0.00  -0.00   0.00
    19   7     0.01  -0.02  -0.01    -0.01   0.00   0.01    -0.00  -0.00   0.00
    20   1     0.01  -0.17   0.02    -0.02   0.10  -0.01    -0.00  -0.01   0.00
    21   1    -0.04  -0.01   0.02     0.03   0.02  -0.02     0.01   0.01   0.00
    22  35     0.00  -0.00   0.00     0.00   0.00  -0.00    -0.00  -0.00   0.00
    23   1    -0.03   0.07   0.01     0.03  -0.05  -0.02     0.00   0.01  -0.00
    24   1     0.09   0.09  -0.07    -0.02  -0.04   0.02     0.00   0.01  -0.02
                     43                     44                     45
                      A                      A                      A
 Frequencies --   1282.3829              1299.3029              1359.3747
 Red. masses --      2.5072                 1.4223                 1.5132
 Frc consts  --      2.4293                 1.4146                 1.6475
 IR Inten    --      6.0849                 2.6591                 5.6762
  Atom  AN      X      Y      Z        X      Y      Z        X      Y      Z
     1   6    -0.03  -0.12   0.05    -0.04  -0.03   0.04     0.02   0.01  -0.01
     2   6    -0.00  -0.01   0.00    -0.00   0.00   0.00    -0.02   0.00   0.01
     3   6     0.02   0.19  -0.06     0.08  -0.07  -0.04    -0.01   0.02  -0.00
     4   6    -0.00   0.01  -0.00    -0.00  -0.00   0.01     0.00   0.02   0.00
     5   6    -0.06  -0.12   0.07    -0.05   0.05   0.03     0.02  -0.04  -0.01
     6   6     0.01   0.18  -0.03     0.03   0.05  -0.03    -0.02   0.00   0.02
     7   6     0.01  -0.01   0.04    -0.06  -0.03  -0.00    -0.04   0.01  -0.03
     8   1    -0.20  -0.46  -0.08     0.04   0.03   0.09     0.18   0.24   0.18
     9   1    -0.19  -0.41  -0.05     0.15   0.29  -0.01    -0.19  -0.33  -0.14
    10   6    -0.01  -0.02   0.03     0.04   0.02   0.04     0.13   0.00   0.14
    11   1    -0.01  -0.07  -0.07     0.00   0.01  -0.03    -0.19  -0.11  -0.39
    12   1     0.08   0.03   0.13    -0.20  -0.08  -0.25    -0.36  -0.17  -0.46
    13   6    -0.01   0.02  -0.01     0.00   0.00  -0.03    -0.00   0.02  -0.05
    14   8    -0.00  -0.01  -0.00    -0.00   0.00   0.00    -0.02  -0.01   0.00
    15   1    -0.01   0.03  -0.01     0.01  -0.10   0.03     0.02  -0.15   0.04
    16   1     0.08  -0.07  -0.03    -0.08   0.05   0.03     0.05  -0.06  -0.03
    17   6    -0.00  -0.00   0.01     0.01   0.00  -0.01     0.00   0.00  -0.00
    18   8     0.00  -0.00  -0.00    -0.00  -0.00   0.00     0.00  -0.00   0.00
    19   7     0.09   0.03  -0.08    -0.01   0.00   0.01    -0.00   0.01   0.00
    20   1     0.09  -0.20  -0.06    -0.01   0.54  -0.07     0.00  -0.17   0.03
    21   1     0.12  -0.08  -0.09     0.22   0.08  -0.21    -0.09  -0.04   0.09
    22  35    -0.00  -0.00  -0.00    -0.00  -0.00   0.00    -0.00  -0.00   0.00
    23   1    -0.04  -0.20   0.07     0.16  -0.34  -0.08    -0.07   0.12   0.04
    24   1    -0.30  -0.26   0.28    -0.19  -0.30   0.21     0.03   0.08  -0.03
                     46                     47                     48
                      A                      A                      A
 Frequencies --   1383.8392              1399.8676              1444.3578
 Red. masses --      1.6637                 1.6894                 1.0914
 Frc consts  --      1.8772                 1.9505                 1.3415
 IR Inten    --     14.2045                38.4032                13.4104
  Atom  AN      X      Y      Z        X      Y      Z        X      Y      Z
     1   6    -0.00   0.00  -0.00     0.00   0.00  -0.00    -0.00  -0.00   0.00
     2   6    -0.03   0.01   0.02     0.12  -0.06  -0.07    -0.01   0.01   0.00
     3   6    -0.00  -0.06  -0.01    -0.00  -0.01  -0.01    -0.00   0.00  -0.00
     4   6     0.01   0.03  -0.02    -0.03  -0.10   0.09     0.00   0.00  -0.00
     5   6    -0.02   0.10  -0.00    -0.00   0.02  -0.00     0.00  -0.00   0.00
     6   6    -0.01  -0.08   0.02    -0.01  -0.02   0.01     0.00   0.00  -0.00
     7   6     0.07   0.16   0.02     0.01   0.05   0.00     0.00  -0.00  -0.01
     8   1    -0.32  -0.47  -0.28    -0.06  -0.13  -0.03     0.07  -0.02   0.08
     9   1    -0.07  -0.36  -0.28    -0.07  -0.18  -0.09    -0.06  -0.02   0.08
    10   6    -0.00  -0.04   0.04     0.03  -0.04   0.04     0.04  -0.07  -0.01
    11   1    -0.17  -0.10  -0.24    -0.05  -0.03  -0.01    -0.50   0.32   0.37
    12   1     0.04   0.08   0.04    -0.01   0.06  -0.06     0.06   0.64  -0.23
    13   6     0.01  -0.00   0.00    -0.03   0.08  -0.05     0.01  -0.00  -0.01
    14   8    -0.01  -0.01  -0.00     0.01  -0.01   0.01    -0.00  -0.00  -0.00
    15   1     0.05  -0.19   0.06    -0.18   0.57  -0.19     0.02  -0.07   0.03
    16   1     0.15  -0.14  -0.06    -0.49   0.43   0.17     0.02  -0.02  -0.01
    17   6     0.00   0.00  -0.01    -0.01   0.00   0.02     0.00   0.00  -0.00
    18   8     0.00  -0.01   0.00    -0.02   0.02  -0.01     0.00  -0.00   0.00
    19   7    -0.01  -0.04   0.01    -0.00  -0.01   0.00     0.00   0.00  -0.00
    20   1    -0.02   0.26  -0.04    -0.00   0.05  -0.01     0.00  -0.01   0.00
    21   1     0.11   0.06  -0.10     0.02   0.01  -0.02     0.00  -0.00  -0.00
    22  35    -0.00  -0.00   0.00     0.00  -0.00  -0.00    -0.00   0.00   0.00
    23   1     0.10  -0.10  -0.07     0.02  -0.01  -0.01     0.00  -0.00   0.00
    24   1     0.06   0.03  -0.07     0.02   0.02  -0.02    -0.02  -0.02   0.00
                     49                     50                     51
                      A                      A                      A
 Frequencies --   1464.1549              1485.3276              1515.4733
 Red. masses --      1.2616                 2.6110                 3.6022
 Frc consts  --      1.5935                 3.3940                 4.8744
 IR Inten    --      8.2319                10.2772                 7.5177
  Atom  AN      X      Y      Z        X      Y      Z        X      Y      Z
     1   6    -0.01  -0.05   0.02    -0.02  -0.17   0.05     0.12   0.00  -0.10
     2   6    -0.00   0.00   0.00     0.00  -0.00  -0.00     0.00  -0.00   0.00
     3   6    -0.01   0.02  -0.00     0.05   0.06  -0.05     0.25  -0.17  -0.19
     4   6     0.00   0.00  -0.00    -0.00   0.00   0.00    -0.00   0.01  -0.00
     5   6    -0.02   0.08   0.00    -0.04   0.17   0.01    -0.02  -0.07   0.03
     6   6    -0.01  -0.06   0.02    -0.06  -0.14   0.07    -0.12   0.05   0.10
     7   6     0.01   0.03  -0.08    -0.02  -0.08   0.05    -0.02   0.05   0.02
[...]
 00643796,0.01627111,-0.00831227,0.00028850,-0.00030209,0.00013489,0.00
 024096,0.00042711,-0.00055531,-0.00012413,-0.00000777,0.00009496,0.000
 00590,0.00000283,-0.00005432,-0.00000876,-0.00005773,-0.00004948,-0.00
 019743,-0.00053552,-0.00052668,0.00012194,-0.00000404,-0.00002833,0.00
 006916,-0.00007750,0.00004858,0.00178576,0.00058982,0.00758914,0.00213
 156,0.00258379,-0.00197560,-0.00205031,-0.00124647,-0.00469317,0.07324
 711,-0.00021765,0.00002069,-0.00014810,-0.05959505,-0.18901267,0.13876
 175,-0.00044525,-0.00009584,-0.00007775,-0.00723197,-0.01714884,0.0175
 3227,0.00005152,-0.00010289,-0.00006735,0.00006391,0.00008616,-0.00024
 340,-0.00003145,-0.00016370,-0.00006868,0.00000450,0.00003043,0.000025
 27,0.00002356,0.00006519,0.00004225,-0.00070354,-0.00131740,0.00042100
 ,0.00030190,-0.00019825,0.00026325,0.00002681,-0.00000910,-0.00001416,
 0.00660032,0.00143266,0.00278605,-0.00087575,0.00041215,-0.00103556,-0
 .00210664,-0.00111121,-0.00231518,0.05600831,0.20156594,0.00024317,-0.
 00023918,-0.00004794,0.06495356,0.14088469,-0.16772072,-0.00061110,-0.
 00002601,-0.00021408,0.00034857,-0.00136476,0.00577128,0.00009355,0.00
 001581,0.00039102,0.00002821,0.00019246,-0.00038889,-0.00004346,-0.000
 02214,-0.00012045,-0.00000141,0.00000530,0.00004302,-0.00002387,-0.000
 03935,0.00001716,-0.00051117,-0.00126540,-0.00009213,0.00028780,-0.000
 17965,0.00014822,0.00006175,-0.00004232,0.00003929,0.00493467,-0.00024
 034,0.00760515,0.00093220,0.00194102,-0.00167073,-0.00322163,-0.002768
 57,-0.00349760,-0.07520992,-0.14706573,0.17011349,-0.00018851,-0.00010
 479,-0.00009869,-0.16347390,0.01045852,0.07508697,0.00454328,0.0016225
 0,0.00064853,-0.02087561,0.01779699,-0.00044555,-0.00025013,-0.0000526
 0,0.00051037,-0.00025058,-0.00074683,0.00368434,0.00023271,0.00046386,
 -0.00130259,0.00000625,-0.00005931,0.00046319,-0.00005194,-0.00000902,
 0.00026079,-0.00101427,-0.00080722,0.00034140,0.00027736,-0.00022991,0
 .00044241,-0.00005990,0.00021992,0.00005607,-0.00055139,0.00454052,-0.
 00862846,-0.00315752,-0.00483962,0.00374478,0.00547337,0.00442775,0.00
 648476,-0.00614003,0.00708592,0.00825318,0.59537727,0.00073746,0.00045
 268,0.00006984,0.02776098,-0.08321417,-0.01745958,0.00049567,-0.001151
 61,-0.00076576,0.02903467,-0.01119527,-0.01598507,-0.00041838,0.000245
 08,0.00068789,-0.00035156,-0.00041609,0.00004224,0.00047643,0.00005613
 ,-0.00066629,0.00011419,-0.00023194,0.00062548,-0.00035442,-0.00007091
 ,0.00015147,0.00021688,-0.00017814,0.00015939,-0.00009224,-0.00003926,
 -0.00009890,-0.00023241,0.00013516,0.00004193,0.00234540,0.00101834,-0
 .00438871,-0.00330721,0.00018141,0.00147527,0.00414728,-0.00244247,0.0
 0461060,-0.01495119,0.00478844,0.01021803,-0.40888767,0.63402186,-0.00
 124669,-0.00209874,0.00176139,0.06868679,-0.00661266,-0.12252592,-0.00
 504055,0.00067430,0.00029671,0.00472776,-0.00557943,0.00590272,0.00113
 608,-0.00022160,-0.00133998,0.00076754,0.00086884,-0.00360628,-0.00035
 767,-0.00030120,0.00229439,-0.00018357,0.00011208,-0.00135502,0.000408
 47,-0.00018576,-0.00050511,0.00116298,0.00308451,0.00031443,-0.0008314
 9,0.00062612,-0.00062569,0.00011980,-0.00011188,-0.00036817,-0.0109526
 1,-0.00939521,0.00410342,0.00523313,0.00301311,-0.00403322,0.00284287,
 0.00438732,0.00580014,0.01662797,-0.00593612,-0.00916246,0.00560806,-0
 .12707992,0.29031903,-0.00010078,0.00002323,0.00012977,-0.03342938,0.0
 5517882,-0.00015637,-0.00165277,-0.00055132,-0.00022880,0.00147863,-0.
 00444921,0.00574275,0.00009291,-0.00012097,-0.00011184,0.00017231,0.00
 032086,-0.00135304,0.00008851,-0.00010674,0.00027085,0.00009156,-0.000
 03603,0.00002113,-0.00008733,-0.00001112,-0.00004012,0.00031963,0.0004
 7867,-0.00003013,-0.00011492,0.00007665,-0.00022553,-0.00000419,-0.000
 04905,-0.00002460,-0.00088350,-0.00331989,0.00169417,0.00118127,0.0019
 1305,-0.00058813,-0.00124256,0.00087653,-0.00084121,0.00100163,-0.0003
 8273,-0.00293427,-0.37235951,0.36402446,-0.10068377,0.39096773,-0.0002
 8253,-0.00023154,-0.00010819,0.04165035,-0.02180602,0.00257063,0.00093
 378,0.00070720,0.00042065,-0.00329214,0.00761777,-0.00211723,0.0000942
 5,0.00002640,-0.00027972,-0.00002990,-0.00009193,0.00079993,-0.0003117
 6,0.00004372,0.00034531,-0.00018900,0.00013554,-0.00046746,0.00025075,
 0.00002927,-0.00010993,-0.00015606,-0.00016787,-0.00020733,0.00006928,
 0.00002205,0.00015430,0.00008626,-0.00004116,-0.00000861,0.00008684,0.
 00199419,0.00089187,0.00009332,-0.00088932,-0.00030041,-0.00075274,-0.
 00104013,-0.00146021,0.00067875,0.00045269,-0.00026310,0.38142163,-0.5
 2332189,0.14196952,-0.42644421,0.56540723,0.00029645,0.00046334,-0.000
 31237,0.01365641,-0.00941335,0.01893169,0.00091673,-0.00020670,-0.0001
 4451,0.00230737,-0.00165201,0.00042590,-0.00026992,0.00001947,0.000375
 73,-0.00013198,-0.00017529,0.00064274,0.00017649,0.00008232,-0.0007883
 6,0.00014135,-0.00004506,0.00054795,-0.00018551,0.00004749,0.00019346,
 -0.00015316,-0.00069136,-0.00000999,0.00018150,-0.00018738,0.00011551,
 -0.00005815,0.00003556,0.00012520,0.00251525,0.00253733,-0.00222766,-0
 .00156636,-0.00095166,0.00131328,-0.00064911,-0.00107572,-0.00118054,-
 0.00143111,-0.00133325,0.00068587,-0.12572780,0.16555616,-0.12209796,0
 .12032051,-0.19347384,0.13539717,-0.13344498,-0.07185605,0.07705709,-0
 .00010717,-0.00304901,-0.00242371,-0.13633052,0.09068464,0.05392227,-0
 .00241095,0.00075300,-0.00286102,-0.04223803,0.00660733,0.04791308,-0.
 04234133,0.00692913,0.04799274,0.00674121,-0.01001458,-0.00614750,0.00
 132789,-0.00037487,-0.00096361,-0.00012280,-0.00088887,0.00003493,-0.0
 0122439,-0.00313625,0.00056487,-0.00044678,-0.00059865,-0.00054381,0.0
 0005619,-0.00009602,0.00000121,0.00070456,0.00075552,0.00028924,-0.000
 36227,-0.00024953,-0.00003543,-0.00020508,-0.00024079,-0.00033276,0.00
 016006,0.00012024,0.00021211,0.00076711,-0.00148245,0.00279828,-0.0003
 2268,0.00076763,-0.00070819,0.64787540,-0.07287059,-0.25126837,0.09539
 768,0.00204886,0.00037096,0.00193112,0.08382159,-0.28932563,-0.0478412
 8,0.00073880,-0.00228951,-0.00295540,-0.02531184,-0.00439222,0.0272721
 7,0.03907376,-0.01317885,-0.03416106,0.01148441,-0.02802994,-0.0065986
 9,0.00126786,0.00224593,-0.00162216,-0.00001455,-0.00039722,-0.0012684
 4,0.00192808,-0.00087852,0.00119491,-0.00020836,0.00019610,0.00000570,
 -0.00019599,-0.00000871,-0.00019962,-0.00017227,0.00087046,-0.00073167
 ,0.00006337,-0.00025829,0.00033383,-0.00016231,-0.00033554,0.00008149,
 -0.00019067,-0.00009906,0.00008531,-0.00016991,0.00055619,0.00100883,0
 .00010608,-0.00020022,-0.00014762,-0.05511312,0.67881377,0.07480846,0.
 09183294,-0.13639823,-0.00099623,-0.00224549,-0.00190514,0.05123201,-0
 .04523043,-0.09344376,-0.00146164,-0.00001319,-0.00244966,0.05206924,-
 0.00328411,-0.03240755,0.04049312,-0.00143396,-0.02333349,-0.00732819,
 0.01266310,0.00342351,-0.00116450,-0.00029058,0.00138459,0.00017924,0.
 00284420,-0.00103771,-0.00107955,-0.00034185,-0.00107397,-0.00008071,-
 0.00005262,0.00024391,0.00007894,0.00029705,0.00032276,0.00048856,0.00
 042341,0.00020610,-0.00023842,-0.00012906,-0.00006621,0.00017808,0.000
 14602,0.00014193,0.00025836,0.00008776,0.00012182,0.00040892,-0.000062
 44,-0.00068408,-0.00006109,0.00003765,0.00023709,-0.43251572,-0.036509
 52,0.45483386,-0.00581286,0.00292062,-0.00021956,-0.00052738,0.0003855
 1,0.00052753,-0.00758992,-0.00272627,0.00219867,0.00037541,-0.00035110
 ,0.00038365,0.00172402,-0.00179033,0.00038121,0.00146534,0.00224988,-0
 .00026649,-0.00030929,-0.00049389,-0.00167461,0.00035832,0.00028265,0.
 00017618,-0.00003831,0.00003982,0.00007209,0.00006759,-0.00021527,0.00
 013210,-0.00006391,-0.00010017,-0.00014211,-0.00002119,-0.00000919,-0.
 00006022,0.00064038,-0.00046024,0.00023859,-0.00040721,0.00022789,-0.0
 0007129,-0.00003289,0.00005836,0.00003766,-0.00013520,0.00002119,0.000
 09939,0.00062703,0.00176223,-0.00375087,0.00019075,-0.00097979,0.00111
 174,-0.29825196,0.03217210,0.22067899,0.30750850,-0.02003116,0.0124511
 5,0.01244451,-0.00004432,0.00003927,0.00012627,0.02087913,0.00791249,-
 0.01765031,0.00015566,-0.00006227,0.00007158,-0.00281750,-0.00477103,0
 .00363990,0.00305572,-0.00622085,-0.00160166,0.00063421,0.00134866,-0.
 00144287,-0.00087966,-0.00103838,0.00098165,-0.00024543,0.00032540,0.0
 0022645,-0.00026290,-0.00009903,0.00015209,0.00002087,0.00000517,0.000
 02030,0.00003531,0.00013749,0.00020082,-0.00020488,-0.00004184,-0.0003
 1787,0.00017453,0.00003916,0.00011713,-0.00000283,-0.00001089,0.000035
 60,-0.00004785,0.00000961,0.00004975,0.00001086,0.00134982,-0.00105203
 ,0.00025640,-0.00086314,0.00042319,0.03155264,-0.07570399,-0.01325237,
 -0.03283133,0.06401821,0.00531321,-0.00527097,-0.00886427,0.00012886,0
 .00059070,0.00002751,-0.00019222,0.00055718,-0.00540012,0.00026003,-0.
 00019271,0.00009524,0.00077781,0.00354546,0.00135689,0.00039048,-0.001
 63020,0.00255831,-0.00227256,-0.00000545,-0.00103354,0.00031987,-0.000
 05949,0.00023978,0.00002393,0.00054485,0.00003603,0.00024462,-0.000181
 79,-0.00005419,-0.00000469,0.00004087,-0.00003702,-0.00004030,-0.00004
 262,-0.00007525,-0.00008615,-0.00079837,0.00023181,0.00015534,0.000336
 46,-0.00010285,-0.00004894,0.00000119,-0.00002512,-0.00003981,-0.00000
 006,-0.00005580,-0.00126796,0.00023348,-0.00110791,0.00029332,-0.00021
 645,0.00009452,0.21690722,-0.01419981,-0.17286826,-0.22239636,0.016796
 78,0.18315988,-0.07479952,0.09570710,0.03084539,-0.00012786,0.00001245
 ,0.00003093,-0.00107306,-0.00169598,0.00297995,-0.00002507,0.00003450,
 -0.00001608,0.00306537,0.01737768,-0.00295091,-0.00146924,0.00155522,0
 .00484666,0.00150935,-0.00044430,0.00112233,-0.00000587,0.00004915,-0.
 00006839,-0.00024869,-0.00049050,0.00017805,0.00012448,0.00037803,-0.0
 0013695,0.00003135,0.00004949,0.00002136,0.00000314,-0.00004848,-0.000
 04238,0.00003558,-0.00010284,0.00006270,0.00000966,0.00007182,-0.00003
 088,-0.00001273,0.00000442,-0.00001200,0.00001265,0.00000623,-0.000075
 92,0.00003472,-0.00034075,-0.00000694,-0.00001018,0.00021531,-0.000004
 24,0.00625254,-0.01776900,-0.00539908,-0.00042125,0.00037016,-0.001408
 30,0.06744153,0.08937465,-0.32779279,-0.03401977,-0.00006963,0.0000913
 2,0.00010490,-0.00293635,0.00022917,0.00260193,0.00005823,-0.00000077,
 -0.00000696,-0.00170291,-0.00016572,0.00173318,0.00119183,0.00050164,-
 0.00053103,0.00070702,-0.00021476,-0.00005017,-0.00000125,0.00004486,-
 0.00003375,-0.00006935,-0.00021575,0.00002733,0.00002606,0.00000583,0.
 00005743,-0.00002985,-0.00000903,-0.00004329,0.00000813,0.00000485,-0.
 00001945,0.00010249,-0.00008927,0.00011659,-0.00005134,0.00004562,-0.0
 0005255,0.00000183,0.00000471,0.00001034,-0.00000358,-0.00001161,-0.00
 007934,0.00003185,-0.00029714,-0.00000968,-0.00004411,0.00017895,-0.00
 001361,0.00838293,-0.01571369,-0.00563553,0.00004003,0.00007268,-0.000
 24738,-0.09505002,0.34335934,0.03197924,-0.04151051,-0.04665964,-0.000
 14759,0.00006685,0.00014614,0.00395598,0.00112002,-0.00153271,0.000086
 39,0.00002274,-0.00000973,-0.00076812,-0.01346055,0.00479302,0.0044137
 8,-0.00141949,0.00099064,0.00067802,0.00045985,0.00185736,-0.00005509,
 -0.00006282,-0.00000209,-0.00021647,-0.00026599,0.00013072,0.00019798,
 0.00059473,-0.00033021,0.00005749,0.00010991,0.00011442,0.00000204,-0.
 00001108,-0.00001345,-0.00004954,-0.00005398,0.00001294,0.00005778,0.0
 0004474,-0.00002364,0.00000228,0.00000093,0.00002706,0.00001259,-0.000
 02043,-0.00011170,-0.00001256,-0.00036377,0.00014392,-0.00001966,0.000
 21782,-0.00007334,-0.00919645,0.01903598,0.00260854,-0.00114272,-0.000
 62603,-0.00092510,-0.02807279,0.03649372,0.03977841,0.00017415,0.00062
 665,-0.00061141,0.00035090,-0.00530350,0.01546064,-0.00015835,-0.00040
 392,-0.00026718,-0.00102151,-0.00076420,0.00185653,-0.00033804,0.00033
 210,0.00020289,-0.00035332,-0.00020809,0.00002459,-0.00082596,0.000575
 13,-0.00049444,-0.00183034,0.00068008,-0.00019017,-0.00018056,0.000049
 90,0.00013669,0.00010759,-0.00009441,-0.00007319,-0.00000044,0.0000584
 7,-0.00001130,0.00001035,-0.00003501,-0.00005061,0.00015797,-0.0003808
 8,0.00093430,0.00002841,0.00231222,0.00120468,-0.00028455,-0.00015844,
 -0.00045969,-0.00117936,0.00126792,0.00217267,-0.03880610,-0.00051497,
 0.01251104,0.01456087,0.00601853,-0.01061457,-0.00389180,-0.00181256,-
 0.00027174,-0.00124589,-0.00014275,0.00060879,0.00001011,-0.00001831,-
 0.00001970,0.03463211,0.00000774,0.00003246,-0.00007495,0.00113033,0.0
 0589067,0.00415628,-0.00100455,-0.00025427,0.00008514,0.00006001,-0.00
 066177,0.00109358,0.00002724,0.00016940,-0.00014453,-0.00011216,0.0001
 1496,-0.00059758,0.00036810,-0.00037637,0.00071121,0.00084974,-0.00015
 286,-0.00023772,0.00024931,0.00001919,-0.00017804,0.00023787,0.0007007
 8,0.00000515,-0.00015514,0.00015812,-0.00010321,0.00007650,-0.00005266
 ,0.00000791,-0.00235334,-0.00345563,0.00109056,0.00451463,-0.00182334,
 -0.00409359,-0.00071333,0.00016359,-0.00091968,0.00027686,0.00040288,0
 .00024519,-0.01222355,-0.02021862,0.00291056,0.01228733,-0.02800100,0.
 04019329,-0.00109725,-0.00019684,-0.00008330,-0.00045768,-0.00041673,0
 .00002195,0.00005882,0.00002833,0.00003144,-0.00212492,0.04792127,0.00
 042366,0.00094210,-0.00062209,0.00613019,0.01306287,-0.01727016,0.0020
 2781,-0.00055130,-0.00034606,-0.00023612,0.00113927,-0.00266356,-0.000
 45984,-0.00003658,0.00073686,-0.00030708,-0.00024208,0.00152949,-0.000
 01381,0.00029729,-0.00130085,-0.00026635,0.00003078,0.00082339,-0.0002
 9616,0.00008627,0.00032874,-0.00032136,-0.00087433,-0.00000770,0.00024
 317,-0.00022069,0.00018990,-0.00007506,0.00010064,0.00016335,0.0020137
 4,0.00206431,-0.00341180,0.00003137,-0.00413096,0.00013440,0.00036475,
 -0.00061540,0.00042219,0.00284816,-0.00163332,-0.00186390,0.03185256,-
 0.01704854,-0.04364545,-0.02132314,0.05170009,-0.03222873,-0.00180832,
 -0.00032996,0.00051389,0.00171702,0.00052243,0.00032221,-0.00003905,-0
 .00004389,-0.00012461,-0.02225071,-0.04424388,0.09836995,-0.00463760,-
 0.01427149,0.00595610,0.00002069,0.00003181,0.00006186,0.00125341,0.00
 176450,0.00186887,0.00010288,0.00004135,0.00002411,-0.16039261,-0.0931
 1190,0.12507000,0.00420454,0.00309571,-0.00415845,0.00068563,0.0000011
 4,0.00031095,0.00005553,0.00006065,-0.00007817,-0.00007498,-0.00009296
 ,0.00005912,0.00005276,0.00004077,-0.00006988,-0.00001514,0.00000360,0
 .00000560,-0.00001182,-0.00000860,-0.00000564,0.00006466,-0.00004441,0
 .00004278,-0.00002748,0.00001579,-0.00002539,-0.00000016,-0.00005617,0
 .00001134,-0.00007263,-0.00000430,-0.00003682,0.00007168,-0.00010815,0
 .00014411,-0.00003246,0.00009568,-0.00005821,-0.00089054,0.00160186,0.
 00474591,0.00095901,-0.00052414,0.00122773,-0.00106223,-0.00001720,-0.
 00211088,0.00002372,0.00003267,-0.00010235,0.16083144,0.00768229,0.011
 34245,-0.00833678,-0.00008599,0.00010446,0.00002521,0.00089083,-0.0060
 4093,0.00048364,0.00012343,0.00000678,0.00009265,-0.09482447,-0.138840
 95,0.09693833,-0.01818138,-0.00258067,0.01557767,-0.00087559,0.0006655
 0,0.00089540,-0.00019231,-0.00044526,0.00016434,0.00001295,-0.00002412
 ,-0.00000197,0.00000406,0.00010587,0.00007994,-0.00002558,-0.00003558,
 -0.00003784,0.00003465,0.00004213,-0.00002019,0.00019663,-0.00008578,0
 .00009442,-0.00010627,0.00000748,-0.00005367,-0.00002309,-0.00003769,0
 .00002153,-0.00004758,0.00001300,-0.00000777,0.00010774,-0.00002400,-0
 .00006342,-0.00004847,0.00004330,-0.00000383,0.00349403,-0.00078460,-0
 .00205598,0.00027836,0.00085486,-0.00012920,-0.00099438,-0.00007889,0.
 00030760,0.00003063,0.00000433,0.00001713,0.10216346,0.13460316,0.0031
 8612,0.01059510,-0.00427413,0.00006560,-0.00000558,-0.00001492,0.00155
 479,0.00020285,0.00252243,-0.00000661,0.00005334,0.00000543,0.12491680
 ,0.09501712,-0.14899420,-0.00062741,-0.00180750,0.00084018,0.00046198,
 -0.00002596,0.00061463,-0.00001974,0.00003116,-0.00001307,-0.00007771,
 -0.00002725,0.00006674,0.00006662,0.00008933,-0.00012304,0.00000762,0.
 00002914,0.00002749,-0.00001140,-0.00002870,-0.00000146,-0.00004555,-0
 .00008473,0.00001456,0.00003975,0.00004180,-0.00000614,-0.00000082,-0.
 00003203,-0.00001060,-0.00004218,0.00001087,-0.00002421,-0.00009943,0.
 00006629,-0.00000149,0.00005301,-0.00005578,0.00000272,0.00470571,-0.0
 0133841,0.00148774,0.00090617,0.00081895,0.00112165,-0.00206297,-0.000
 48818,-0.00178048,0.00009859,0.00003080,0.00000993,-0.13181275,-0.1031
 3886,0.14995951,0.00146991,-0.00109501,0.00206720,0.00017597,-0.000143
 61,-0.00022813,-0.00461748,0.01488739,0.00106289,0.00006664,0.00022828
 ,0.00038171,0.00398152,-0.00383285,-0.00304148,-0.15761886,0.12368888,
 0.09254200,-0.00077287,0.00024584,-0.00144349,-0.00000547,0.,-0.000091
 93,-0.00015781,0.00014009,-0.00000205,-0.00008559,-0.00005145,0.000127
 44,0.00020034,-0.00009077,-0.00019565,-0.00038044,-0.00064334,-0.00014
 510,-0.00026929,-0.00006140,-0.00011735,0.00017731,0.00007375,0.000126
 34,-0.00012844,0.00007604,-0.00019744,0.00004835,0.00001203,0.00004874
 ,-0.00023138,-0.00007426,0.00027928,0.00009444,-0.00002427,-0.00006552
 ,-0.00129368,-0.00031560,0.00497703,0.00094092,0.00088925,0.00110609,0
 .00072522,0.00006887,0.00036799,0.00006003,0.00006478,-0.00015308,-0.0
 0110831,0.00038605,-0.00125617,0.15872895,-0.00019971,-0.00576190,0.00
 152581,-0.00000857,-0.00002833,0.00002674,-0.00609521,0.00916178,0.003
 81997,-0.00004331,-0.00000514,-0.00005034,0.01725458,-0.00605930,-0.01
 382842,0.12488945,-0.19140922,-0.08224629,0.00032051,-0.00018489,-0.00
 068531,0.00007998,0.00011508,-0.00005622,0.00008805,0.00008707,-0.0000
 1547,-0.00012445,-0.00003976,-0.00002718,0.00006571,0.00000447,0.00000
 390,-0.00033066,-0.00028998,0.00002716,-0.00007471,0.00005740,-0.00005
 019,0.00006952,-0.00000749,0.00003200,0.00009729,0.00001157,0.00004789
 ,0.00000257,-0.00000926,-0.00003390,-0.00005763,-0.00000360,-0.0000075
 2,0.00002179,-0.00000408,0.00001252,-0.00184964,0.00000777,0.00228830,
 -0.00002339,0.00066418,0.00030558,0.00104586,0.00002212,-0.00071166,0.
 00001033,0.00000411,0.00000775,-0.00070967,0.00118516,0.00004622,-0.13
 442869,0.19248223,0.00176278,0.00208913,0.00190545,0.00017190,-0.00013
 836,-0.00014339,0.00560027,-0.01462856,-0.00308728,-0.00008597,0.00022
 367,0.00012099,-0.00594740,0.00414759,0.00426527,0.09131255,-0.0814381
 2,-0.09374626,-0.00179041,-0.00039794,-0.00121332,-0.00015671,-0.00001
 443,-0.00011119,-0.00010356,0.00050024,-0.00024449,-0.00014301,0.00002
 232,0.00001909,0.00005772,-0.00000581,-0.00006515,0.00017287,0.0000930
 7,0.00004030,0.00007398,-0.00033972,0.00026329,-0.00005821,0.00009133,
 -0.00008997,-0.00004556,0.00001027,-0.00004778,0.00002138,0.00002863,0
 .00003429,-0.00026331,-0.00001908,0.00012259,0.00009616,-0.00003952,-0
 .00002536,0.00513778,0.00155664,0.00014231,0.00106323,-0.00068425,0.00
 130558,0.00023951,0.00012916,0.00098354,0.00010327,0.00009340,-0.00005
 939,-0.00106994,-0.00084835,-0.00142928,-0.09614931,0.08956869,0.09106
 015\\0.00000307,-0.00001049,-0.00000521,0.00000333,0.00000548,-0.00000
 912,-0.00000561,-0.00000158,-0.00000083,-0.00000296,0.00000597,0.00000
 161,-0.00000127,-0.00000074,0.00000007,-0.00000241,0.00000398,0.000000
 73,0.00000186,-0.00000248,-0.00000201,-0.00000150,0.00000218,0.0000026
 2,-0.00000040,0.00000080,-0.00000164,-0.00000440,0.00000273,0.00000109
 ,-0.00000457,0.00000171,0.00000124,-0.00000212,-0.00000162,0.00000254,
 0.00000123,-0.00000522,0.00000619,-0.00000736,0.00000219,-0.00000014,-
 0.00000163,-0.00000103,0.00000085,-0.00000313,-0.00000728,0.00000364,0
 .00000659,-0.00000796,0.00000874,-0.00000139,0.00001276,-0.00000093,-0
 .00001511,0.00000612,0.00002056,0.00002940,-0.00000161,-0.00002018,0.0
 0000329,0.00000363,-0.00000374,-0.00000229,0.00000460,0.00000052,0.000
 00471,-0.00000418,-0.00000340,0.00000271,-0.00000796,-0.00000318\\\@
 The archive entry for this job was punched.


 NATURE REVEALS EVERY SECRET ONCE.
                    - RALPH WALDO EMERSON
 Job cpu time:       0 days  0 hours 36 minutes 46.4 seconds.
 Elapsed time:       0 days  0 hours  3 minutes  6.3 seconds.
 File lengths (MBytes):  RWF=    288 Int=      0 D2E=      0 Chk=     12 Scr=      1
 Normal termination of Gaussian 16 at Sat Dec 30 21:00:35 2023.
