Unloading slurm/anatra/current
  ERROR: No such file or directory on
    '/cm/local/modulefiles/slurm/anatra/current'
environment: line 0: unalias: gv: not found
environment: line 0: unalias: sl: not found
 Entering Gaussian System, Link 0=g16
 Initial command:
 /apps/gaussian/g16/C.01/g16/l1.exe "/local/jobs/1152748/Gau-404382.inp" -scrdir="/local/jobs/1152748/"
 Entering Link 1 = /apps/gaussian/g16/C.01/g16/l1.exe PID=    404385.
  
 Copyright (c) 1988-2019, Gaussian, Inc.  All Rights Reserved.
  
 This is part of the Gaussian(R) 16 program.  It is based on
 the Gaussian(R) 09 system (copyright 2009, Gaussian, Inc.),
 the Gaussian(R) 03 system (copyright 2003, Gaussian, Inc.),
 the Gaussian(R) 98 system (copyright 1998, Gaussian, Inc.),
 the Gaussian(R) 94 system (copyright 1995, Gaussian, Inc.),
 the Gaussian 92(TM) system (copyright 1992, Gaussian, Inc.),
 the Gaussian 90(TM) system (copyright 1990, Gaussian, Inc.),
 the Gaussian 88(TM) system (copyright 1988, Gaussian, Inc.),
 the Gaussian 86(TM) system (copyright 1986, Carnegie Mellon
 University), and the Gaussian 82(TM) system (copyright 1983,
 Carnegie Mellon University). Gaussian is a federally registered
 trademark of Gaussian, Inc.
  
 This software contains proprietary and confidential information,
 including trade secrets, belonging to Gaussian, Inc.
  
 This software is provided under written license and may be
 used, copied, transmitted, or stored only in accord with that
 written license.
  
 The following legend is applicable only to US Government
 contracts under FAR:
  
                    RESTRICTED RIGHTS LEGEND
  
 Use, reproduction and disclosure by the US Government is
 subject to restrictions as set forth in subparagraphs (a)
 and (c) of the Commercial Computer Software - Restricted
 Rights clause in FAR 52.227-19.
  
 Gaussian, Inc.
 340 Quinnipiac St., Bldg. 40, Wallingford CT 06492
  
  
 ---------------------------------------------------------------
 Warning -- This program may not be used in any manner that
 competes with the business of Gaussian, Inc. or will provide
 assistance to any competitor of Gaussian, Inc.  The licensee
 of this program is prohibited from giving any competitor of
 Gaussian, Inc. access to this program.  By using this program,
 the user acknowledges that Gaussian, Inc. is engaged in the
 business of creating and licensing software in the field of
 computational chemistry and represents and warrants to the
 licensee that it is not a competitor of Gaussian, Inc. and that
 it will not use this program in any manner prohibited above.
 ---------------------------------------------------------------
  

 Cite this work as:
 Gaussian 16, Revision C.01,
 M. J. Frisch, G. W. Trucks, H. B. Schlegel, G. E. Scuseria, 
 M. A. Robb, J. R. Cheeseman, G. Scalmani, V. Barone, 
 G. A. Petersson, H. Nakatsuji, X. Li, M. Caricato, A. V. Marenich, 
 J. Bloino, B. G. Janesko, R. Gomperts, B. Mennucci, H. P. Hratchian, 
 J. V. Ortiz, A. F. Izmaylov, J. L. Sonnenberg, D. Williams-Young, 
 F. Ding, F. Lipparini, F. Egidi, J. Goings, B. Peng, A. Petrone, 
 T. Henderson, D. Ranasinghe, V. G. Zakrzewski, J. Gao, N. Rega, 
 G. Zheng, W. Liang, M. Hada, M. Ehara, K. Toyota, R. Fukuda, 
 J. Hasegawa, M. Ishida, T. Nakajima, Y. Honda, O. Kitao, H. Nakai, 
 T. Vreven, K. Throssell, J. A. Montgomery, Jr., J. E. Peralta, 
 F. Ogliaro, M. J. Bearpark, J. J. Heyd, E. N. Brothers, K. N. Kudin, 
 V. N. Staroverov, T. A. Keith, R. Kobayashi, J. Normand, 
 K. Raghavachari, A. P. Rendell, J. C. Burant, S. S. Iyengar, 
 J. Tomasi, M. Cossi, J. M. Millam, M. Klene, C. Adamo, R. Cammi, 
 J. W. Ochterski, R. L. Martin, K. Morokuma, O. Farkas, 
 J. B. Foresman, and D. J. Fox, Gaussian, Inc., Wallingford CT, 2019.
 
 ******************************************
 Gaussian 16:  ES64L-G16RevC.01  3-Jul-2019
                22-Dec-2023 
 ******************************************
 %chk=da-1_1_hf.chk
 %nprocshared=12
 Will use up to   12 processors via shared memory.
 %mem=48GB
 ----------------------------------------------------------------------
 # wb97xd def2svp geom=allchk scrf=(iefpcm,solvent=toluene) opt=(readfc
 ,ts,noeigen,maxcycles=50,maxstep=10)
 ----------------------------------------------------------------------
 1/5=1,6=50,8=10,10=3,11=1,18=20,26=3,29=7,38=1/1,3;
 2/9=110,12=2,40=1/2;
 3/5=43,7=101,11=2,14=-4,25=1,30=1,70=2201,71=1,72=13,74=-58/1,2,3;
 4//1;
 5/5=2,38=5,53=13/2;
 6/7=2,8=2,9=2,10=2,28=1/1;
 7//1,2,3,16;
 1/5=1,6=50,8=10,11=1,18=20,26=3/3(2);
 2/9=110/2;
 99//99;
 2/9=110/2;
 3/5=43,7=101,11=2,14=-2,25=1,30=1,70=2205,71=1,72=13,74=-58/1,2,3;
 4/5=5,16=3,69=1/1;
 5/5=2,38=5,53=13/2;
 7//1,2,3,16;
 1/5=1,6=50,8=10,11=1,18=20,26=3/3(-5);
 2/9=110/2;
 6/7=2,8=2,9=2,10=2,19=2,28=1/1;
 99/9=1/99;
 Structure from the checkpoint file:  "da-1_1_hf.chk"
 ---------------------------
 1c_2m_endo_adj_1_reopt2.out
 ---------------------------
 Charge =  0 Multiplicity = 1
 Redundant internal coordinates found in file.  (old form).
 O,0,1.6854726995,-0.6473036751,1.9367105307
 C,0,-0.7829106499,1.2435896007,0.9440534244
 C,0,1.3813617108,-1.264568308,-0.8464316342
 C,0,-0.8954271819,1.4280437431,-0.3748411994
 C,0,1.3939365624,-1.7596510904,1.562557619
 C,0,1.1950200372,-2.1425867294,0.1438781962
 H,0,1.2531414657,-2.5838874908,2.3023479224
 H,0,1.6916094225,-0.2408014028,-0.6199893341
 H,0,0.8908168069,-3.1741056205,-0.0561761945
 H,0,0.1636926708,1.3748881746,1.4714965061
 H,0,-1.6454165191,0.9261688957,1.5404428118
 H,0,-0.050860163,1.7448581318,-0.9950227735
 C,0,-2.1757139558,1.1995441103,-1.0704516876
 O,0,-2.3360846164,1.3189337434,-2.2607906698
 H,0,1.2316479305,-1.5349868993,-1.8940135452
 H,0,-3.0201862202,0.8912648167,-0.4018699722
 Recover connectivity data from disk.

 GradGradGradGradGradGradGradGradGradGradGradGradGradGradGradGradGradGrad
 Berny optimization.
 Initialization pass.
 Force constant matrix read from checkpoint file:
 "da-1_1_hf.chk"
                           ----------------------------
                           !    Initial Parameters    !
                           ! (Angstroms and Degrees)  !
 --------------------------                            --------------------------
 ! Name  Definition              Value          Derivative Info.                !
 --------------------------------------------------------------------------------
 ! R1    R(1,5)                  1.2093         D2E/DX2 =    0.7913             !
 ! R2    R(2,4)                  1.3365         D2E/DX2 =    0.6257             !
 ! R3    R(2,10)                 1.0916         D2E/DX2 =    0.3933             !
 ! R4    R(2,11)                 1.0956         D2E/DX2 =    0.3897             !
 ! R5    R(3,6)                  1.3365         D2E/DX2 =    0.6269             !
 ! R6    R(3,8)                  1.0934         D2E/DX2 =    0.3956             !
 ! R7    R(3,15)                 1.0922         D2E/DX2 =    0.3926             !
 ! R8    R(4,12)                 1.0947         D2E/DX2 =    0.3947             !
 ! R9    R(4,13)                 1.4749         D2E/DX2 =    0.403              !
 ! R10   R(5,6)                  1.4829         D2E/DX2 =    0.3946             !
 ! R11   R(5,7)                  1.1165         D2E/DX2 =    0.3658             !
 ! R12   R(6,9)                  1.0939         D2E/DX2 =    0.3914             !
 ! R13   R(8,12)                 2.6683         D2E/DX2 =    0.0098             !
 ! R14   R(13,14)                1.207          D2E/DX2 =    0.8232             !
 ! R15   R(13,16)                1.1203         D2E/DX2 =    0.3636             !
 ! A1    A(4,2,10)             122.2256         D2E/DX2 =    0.0907             !
 ! A2    A(4,2,11)             120.7235         D2E/DX2 =    0.0906             !
 ! A3    A(10,2,11)            117.034          D2E/DX2 =    0.0833             !
 ! A4    A(6,3,8)              120.0783         D2E/DX2 =    0.1209             !
 ! A5    A(6,3,15)             121.9313         D2E/DX2 =    0.0992             !
 ! A6    A(8,3,15)             117.9903         D2E/DX2 =    0.0905             !
 ! A7    A(2,4,12)             122.282          D2E/DX2 =    0.1053             !
 ! A8    A(2,4,13)             121.1406         D2E/DX2 =    0.1233             !
 ! A9    A(12,4,13)            116.5753         D2E/DX2 =    0.0985             !
 ! A10   A(1,5,6)              124.4651         D2E/DX2 =    0.1817             !
 ! A11   A(1,5,7)              120.2968         D2E/DX2 =    0.1393             !
 ! A12   A(6,5,7)              115.238          D2E/DX2 =    0.1207             !
 ! A13   A(3,6,5)              121.3679         D2E/DX2 =    0.1532             !
 ! A14   A(3,6,9)              121.5162         D2E/DX2 =    0.1096             !
 ! A15   A(5,6,9)              117.1159         D2E/DX2 =    0.1106             !
 ! A16   A(3,8,12)             118.8394         D2E/DX2 =    0.0296             !
 ! A17   A(4,12,8)             102.0537         D2E/DX2 =    0.1235             !
 ! A18   A(4,13,14)            124.4121         D2E/DX2 =    0.1682             !
 ! A19   A(4,13,16)            114.5502         D2E/DX2 =    0.1143             !
 ! A20   A(14,13,16)           121.0368         D2E/DX2 =    0.1356             !
 ! D1    D(10,2,4,12)           -1.5485         D2E/DX2 =    0.0231             !
 ! D2    D(10,2,4,13)          177.8964         D2E/DX2 =    0.0275             !
 ! D3    D(11,2,4,12)          179.9916         D2E/DX2 =    0.0277             !
 ! D4    D(11,2,4,13)           -0.5636         D2E/DX2 =    0.0231             !
 ! D5    D(8,3,6,5)              0.3007         D2E/DX2 =    0.0304             !
 ! D6    D(8,3,6,9)           -179.6169         D2E/DX2 =    0.0238             !
 ! D7    D(15,3,6,5)          -179.624          D2E/DX2 =    0.0391             !
 ! D8    D(15,3,6,9)             0.4584         D2E/DX2 =    0.0239             !
 ! D9    D(6,3,8,12)          -110.0773         D2E/DX2 =    0.0894             !
 ! D10   D(15,3,8,12)           69.8503         D2E/DX2 =    0.0746             !
 ! D11   D(2,4,12,8)            60.437          D2E/DX2 =    0.02               !
 ! D12   D(13,4,12,8)         -119.0317         D2E/DX2 =    0.0101             !
 ! D13   D(2,4,13,14)         -178.2758         D2E/DX2 =    0.0269             !
 ! D14   D(2,4,13,16)            1.3834         D2E/DX2 =    0.0277             !
 ! D15   D(12,4,13,14)           1.1994         D2E/DX2 =    0.0298             !
 ! D16   D(12,4,13,16)        -179.1414         D2E/DX2 =    0.0272             !
 ! D17   D(1,5,6,3)              2.6541         D2E/DX2 =    0.0332             !
 ! D18   D(1,5,6,9)           -177.4248         D2E/DX2 =    0.0422             !
 ! D19   D(7,5,6,3)           -177.4823         D2E/DX2 =    0.0279             !
 ! D20   D(7,5,6,9)              2.4388         D2E/DX2 =    0.0328             !
 ! D21   D(3,8,12,4)            56.463          D2E/DX2 =    0.061              !
 --------------------------------------------------------------------------------
 Trust Radius=1.00D-01 FncErr=1.00D-07 GrdErr=1.00D-06 EigMax=2.50D+02 EigMin=1.00D-04
 Number of steps in this run=     50 maximum allowed number of steps=    100.
 Search for a saddle point of order  1.
 GradGradGradGradGradGradGradGradGradGradGradGradGradGradGradGradGradGrad

                          Input orientation:                          
 ---------------------------------------------------------------------
 Center     Atomic      Atomic             Coordinates (Angstroms)
 Number     Number       Type             X           Y           Z
 ---------------------------------------------------------------------
      1          8           0        1.685473   -0.647304    1.936711
      2          6           0       -0.782911    1.243590    0.944053
      3          6           0        1.381362   -1.264568   -0.846432
      4          6           0       -0.895427    1.428044   -0.374841
      5          6           0        1.393937   -1.759651    1.562558
      6          6           0        1.195020   -2.142587    0.143878
      7          1           0        1.253141   -2.583887    2.302348
      8          1           0        1.691609   -0.240801   -0.619989
      9          1           0        0.890817   -3.174106   -0.056176
     10          1           0        0.163693    1.374888    1.471497
     11          1           0       -1.645417    0.926169    1.540443
     12          1           0       -0.050860    1.744858   -0.995023
     13          6           0       -2.175714    1.199544   -1.070452
     14          8           0       -2.336085    1.318934   -2.260791
     15          1           0        1.231648   -1.534987   -1.894014
     16          1           0       -3.020186    0.891265   -0.401870
 ---------------------------------------------------------------------
                    Distance matrix (angstroms):
                    1          2          3          4          5
     1  O    0.000000
     2  C    3.264010   0.000000
     3  C    2.866946   3.765736   0.000000
     4  C    4.038735   1.336475   3.557573   0.000000
     5  C    1.209256   3.760408   2.459369   4.376768   0.000000
     6  C    2.385511   4.002334   1.336545   4.169945   1.482855
     7  H    2.017661   4.543133   3.416410   5.280083   1.116458
     8  H    2.588821   3.282209   1.093448   3.088349   2.675635
     9  H    3.314786   4.828856   2.124022   4.946918   2.207739
    10  H    2.573227   1.091555   3.717827   2.129207   3.368550
    11  H    3.705087   1.095606   4.433721   2.117233   4.056080
    12  H    4.163214   2.132413   3.336163   1.094664   4.572772
    13  C    5.230930   2.449504   4.332992   1.474863   5.332165
    14  O    6.136614   3.562170   4.742816   2.375753   6.165122
    15  H    3.958331   4.453488   1.092231   3.951188   3.467664
    16  H    5.475343   2.634586   4.921268   2.191680   5.510972
                    6          7          8          9         10
     6  C    0.000000
     7  H    2.203887   0.000000
     8  H    2.108763   3.771255   0.000000
     9  H    1.093889   2.458103   3.092479   0.000000
    10  H    3.898568   4.189167   3.052752   4.853436   0.000000
    11  H    4.408598   4.615478   4.143070   5.078772   1.865202
    12  H    4.238106   5.595633   2.668275   5.095527   2.503323
    13  C    4.899621   6.119410   4.151349   5.437019   3.459056
    14  O    5.498478   6.995484   4.620316   5.954882   4.492436
    15  H    2.126857   4.325518   1.873398   2.486066   4.575430
    16  H    5.222074   6.136025   4.850790   5.651786   3.725651
                   11         12         13         14         15
    11  H    0.000000
    12  H    3.105068   0.000000
    13  C    2.678193   2.195008   0.000000
    14  O    3.883383   2.646853   1.207013   0.000000
    15  H    5.111778   3.634611   4.445900   4.583460   0.000000
    16  H    2.379872   3.146005   1.120344   2.026446   5.117742
                   16
    16  H    0.000000
 Stoichiometry    C6H8O2
 Framework group  C1[X(C6H8O2)]
 Deg. of freedom    42
 Full point group                 C1      NOp   1
 Largest Abelian subgroup         C1      NOp   1
 Largest concise Abelian subgroup C1      NOp   1
                         Standard orientation:                         
 ---------------------------------------------------------------------
 Center     Atomic      Atomic             Coordinates (Angstroms)
 Number     Number       Type             X           Y           Z
 ---------------------------------------------------------------------
      1          8           0       -2.397641    1.104032    0.335610
      2          6           0        0.817651    1.570866    0.022998
      3          6           0       -1.263829   -1.518174    0.576208
      4          6           0        1.605375    0.581698    0.455670
      5          6           0       -2.661402    0.224966   -0.451775
      6          6           0       -2.092491   -1.143553   -0.403247
      7          1           0       -3.375326    0.414296   -1.288999
      8          1           0       -0.995456   -0.812263    1.366963
      9          1           0       -2.381524   -1.832288   -1.202433
     10          1           0        0.005491    1.975853    0.629525
     11          1           0        0.950108    1.994472   -0.978683
     12          1           0        1.495721    0.139911    1.451205
     13          6           0        2.666637    0.021342   -0.401619
     14          8           0        3.390796   -0.890185   -0.082883
     15          1           0       -0.834765   -2.521745    0.617652
     16          1           0        2.758857    0.508127   -1.406460
 ---------------------------------------------------------------------
 Rotational constants (GHZ):           3.2803578           0.8254171           0.7065856
 Standard basis: def2SVP (5D, 7F)
 There are   160 symmetry adapted cartesian basis functions of A   symmetry.
 There are   152 symmetry adapted basis functions of A   symmetry.
   152 basis functions,   256 primitive gaussians,   160 cartesian basis functions
    30 alpha electrons       30 beta electrons
       nuclear repulsion energy       314.4530366162 Hartrees.
 NAtoms=   16 NActive=   16 NUniq=   16 SFac= 1.00D+00 NAtFMM=   60 NAOKFM=F Big=F
 Integral buffers will be    131072 words long.
 Raffenetti 2 integral format.
 Two-electron integral symmetry is turned on.
 Nuclear repulsion after empirical dispersion term =      314.4464833209 Hartrees.
 ------------------------------------------------------------------------------
 Polarizable Continuum Model (PCM)
 =================================
 Model                : PCM.
 Atomic radii         : UFF (Universal Force Field).
 Polarization charges : Total charges.
 Charge compensation  : None.
 Solution method      : On-the-fly selection.
 Cavity type          : Scaled VdW (van der Waals Surface) (Alpha=1.100).
 Cavity algorithm     : GePol (No added spheres)
                        Default sphere list used, NSphG=   16.
                        Lebedev-Laikov grids with approx.  5.0 points / Ang**2.
                        Smoothing algorithm: York/Karplus (Gamma=1.0000).
                        Polarization charges: spherical gaussians, with
                                              point-specific exponents (IZeta= 3).
                        Self-potential: point-specific (ISelfS= 7).
                        Self-field    : sphere-specific E.n sum rule (ISelfD= 2).
 1st derivatives      : Analytical E(r).r(x)/FMM algorithm (CHGder, D1EAlg=3).
                        Cavity 1st derivative terms included.
 Solvent              : Toluene, Eps=   2.374100 Eps(inf)=   2.238315
 ------------------------------------------------------------------------------
 Spheres list:
 ISph  on   Nord     Re0    Alpha      Xe            Ye            Ze
    1   O      1    1.7500  1.100     -2.397641      1.104032      0.335610
    2   C      2    1.9255  1.100      0.817651      1.570866      0.022998
    3   C      3    1.9255  1.100     -1.263829     -1.518174      0.576208
    4   C      4    1.9255  1.100      1.605375      0.581698      0.455670
    5   C      5    1.9255  1.100     -2.661402      0.224966     -0.451775
    6   C      6    1.9255  1.100     -2.092491     -1.143553     -0.403247
    7   H      7    1.4430  1.100     -3.375326      0.414296     -1.288999
    8   H      8    1.4430  1.100     -0.995456     -0.812263      1.366963
    9   H      9    1.4430  1.100     -2.381524     -1.832288     -1.202433
   10   H     10    1.4430  1.100      0.005491      1.975853      0.629525
   11   H     11    1.4430  1.100      0.950108      1.994472     -0.978683
   12   H     12    1.4430  1.100      1.495721      0.139911      1.451205
   13   C     13    1.9255  1.100      2.666637      0.021342     -0.401619
   14   O     14    1.7500  1.100      3.390796     -0.890185     -0.082883
   15   H     15    1.4430  1.100     -0.834765     -2.521745      0.617652
   16   H     16    1.4430  1.100      2.758857      0.508127     -1.406460
 ------------------------------------------------------------------------------
 One-electron integrals computed using PRISM.
   1 Symmetry operations used in ECPInt.
 ECPInt:  NShTT=    2628 NPrTT=    9444 LenC2=    2563 LenP2D=    7176.
 LDataN:  DoStor=T MaxTD1= 4 Len=   56
 NBasis=   152 RedAO= T EigKep=  2.19D-03  NBF=   152
 NBsUse=   152 1.00D-06 EigRej= -1.00D+00 NBFU=   152
 ExpMin= 1.22D-01 ExpMax= 2.27D+03 ExpMxC= 3.41D+02 IAcc=3 IRadAn=         5 AccDes= 0.00D+00
 Harris functional with IExCor= 4639 and IRadAn=       5 diagonalized for initial guess.
 HarFok:  IExCor= 4639 AccDes= 0.00D+00 IRadAn=         5 IDoV= 1 UseB2=F ITyADJ=14
 ICtDFT=  3500011 ScaDFX=  1.000000  1.000000  1.000000  1.000000
 FoFCou: FMM=F IPFlag=           0 FMFlag=      100000 FMFlg1=           0
         NFxFlg=           0 DoJE=T BraDBF=F KetDBF=T FulRan=T
         wScrn=  0.000000 ICntrl=       500 IOpCl=  0 I1Cent=   200000004 NGrid=           0
         NMat0=    1 NMatS0=      1 NMatT0=    0 NMatD0=    1 NMtDS0=    0 NMtDT0=    0
 Petite list used in FoFCou.
 Requested convergence on RMS density matrix=1.00D-08 within 128 cycles.
 Requested convergence on MAX density matrix=1.00D-06.
 Requested convergence on             energy=1.00D-06.
 No special actions if energy rises.
 Inv3:  Mode=1 IEnd=     6967728.
 Iteration    1 A*A^-1 deviation from unit magnitude is 2.55D-15 for      2.
 Iteration    1 A*A^-1 deviation from orthogonality  is 2.24D-15 for   1122    215.
 Iteration    1 A^-1*A deviation from unit magnitude is 2.55D-15 for      2.
 Iteration    1 A^-1*A deviation from orthogonality  is 7.63D-15 for   1290   1233.
 Error on total polarization charges =  0.00555
 SCF Done:  E(RwB97XD) =  -383.413844658     A.U. after   14 cycles
            NFock= 14  Conv=0.73D-08     -V/T= 2.0097

 **********************************************************************

            Population analysis using the SCF Density.

 **********************************************************************

 Orbital symmetries:
       Occupied  (A) (A) (A) (A) (A) (A) (A) (A) (A) (A) (A) (A)
                 (A) (A) (A) (A) (A) (A) (A) (A) (A) (A) (A) (A)
                 (A) (A) (A) (A) (A) (A)
       Virtual   (A) (A) (A) (A) (A) (A) (A) (A) (A) (A) (A) (A)
                 (A) (A) (A) (A) (A) (A) (A) (A) (A) (A) (A) (A)
                 (A) (A) (A) (A) (A) (A) (A) (A) (A) (A) (A) (A)
                 (A) (A) (A) (A) (A) (A) (A) (A) (A) (A) (A) (A)
                 (A) (A) (A) (A) (A) (A) (A) (A) (A) (A) (A) (A)
                 (A) (A) (A) (A) (A) (A) (A) (A) (A) (A) (A) (A)
                 (A) (A) (A) (A) (A) (A) (A) (A) (A) (A) (A) (A)
                 (A) (A) (A) (A) (A) (A) (A) (A) (A) (A) (A) (A)
                 (A) (A) (A) (A) (A) (A) (A) (A) (A) (A) (A) (A)
                 (A) (A) (A) (A) (A) (A) (A) (A) (A) (A) (A) (A)
                 (A) (A)
 The electronic state is 1-A.
 Alpha  occ. eigenvalues --  -19.26387 -19.25630 -10.39593 -10.38986 -10.32922
 Alpha  occ. eigenvalues --  -10.32715 -10.31716 -10.31464  -1.14586  -1.13989
 Alpha  occ. eigenvalues --   -0.89257  -0.88860  -0.75009  -0.73172  -0.65872
 Alpha  occ. eigenvalues --   -0.63322  -0.60452  -0.56550  -0.56168  -0.54349
 Alpha  occ. eigenvalues --   -0.51708  -0.50832  -0.49842  -0.49312  -0.47319
 Alpha  occ. eigenvalues --   -0.46672  -0.37878  -0.36739  -0.35137  -0.34458
 Alpha virt. eigenvalues --   -0.00399   0.00694   0.12821   0.14016   0.14990
 Alpha virt. eigenvalues --    0.15464   0.16244   0.19609   0.21140   0.21828
 Alpha virt. eigenvalues --    0.24232   0.25108   0.30157   0.31467   0.36747
 Alpha virt. eigenvalues --    0.38163   0.38915   0.41544   0.42986   0.48510
 Alpha virt. eigenvalues --    0.49767   0.51192   0.52816   0.54459   0.56785
 Alpha virt. eigenvalues --    0.57335   0.59798   0.60388   0.63389   0.66270
 Alpha virt. eigenvalues --    0.68052   0.69702   0.70221   0.71381   0.73487
 Alpha virt. eigenvalues --    0.73764   0.74808   0.75436   0.76391   0.77952
 Alpha virt. eigenvalues --    0.78375   0.79549   0.81628   0.84360   0.89025
 Alpha virt. eigenvalues --    0.90317   0.94205   0.98814   1.07101   1.09541
 Alpha virt. eigenvalues --    1.10514   1.13751   1.19221   1.20310   1.22795
 Alpha virt. eigenvalues --    1.24841   1.26913   1.28741   1.31594   1.32842
 Alpha virt. eigenvalues --    1.34248   1.35148   1.50097   1.51770   1.52677
 Alpha virt. eigenvalues --    1.53429   1.66219   1.66651   1.70171   1.71000
 Alpha virt. eigenvalues --    1.74862   1.77791   1.78386   1.79520   1.81344
 Alpha virt. eigenvalues --    1.82558   1.85004   1.86972   1.89076   1.90811
 Alpha virt. eigenvalues --    1.91710   1.95134   1.97068   1.99029   2.03087
 Alpha virt. eigenvalues --    2.10430   2.11691   2.14853   2.17409   2.18265
 Alpha virt. eigenvalues --    2.20295   2.23171   2.31030   2.36901   2.42678
 Alpha virt. eigenvalues --    2.43807   2.52499   2.53825   2.54148   2.55013
 Alpha virt. eigenvalues --    2.58055   2.59192   2.66735   2.67407   2.78824
 Alpha virt. eigenvalues --    2.79732   2.80685   2.82116   2.85511   2.88210
 Alpha virt. eigenvalues --    2.93913   2.96958   3.05897   3.14888   3.22367
 Alpha virt. eigenvalues --    3.23073   3.24306   3.39457   3.53352   3.58073
 Alpha virt. eigenvalues --    3.69787   3.70435
          Condensed to atoms (all electrons):
               1          2          3          4          5          6
     1  O    7.713270  -0.000747   0.011376  -0.001413   0.654228  -0.120961
     2  C   -0.000747   4.779259  -0.000997   0.496397   0.001063  -0.001439
     3  C    0.011376  -0.000997   4.676250  -0.001111  -0.020656   0.572120
     4  C   -0.001413   0.496397  -0.001111   5.271338  -0.000818   0.002672
     5  C    0.654228   0.001063  -0.020656  -0.000818   4.567093   0.232315
     6  C   -0.120961  -0.001439   0.572120   0.002672   0.232315   5.257664
     7  H   -0.039712   0.000019   0.012381  -0.000082   0.418146  -0.122694
     8  H    0.015837   0.000340   0.398624   0.001066  -0.015440  -0.033699
     9  H    0.003131   0.000052  -0.031589  -0.000039  -0.025775   0.385203
    10  H    0.012201   0.383884   0.000291  -0.006143  -0.000320  -0.001207
    11  H    0.000073   0.400308  -0.000010  -0.030538   0.000096  -0.000025
    12  H   -0.000096  -0.025248  -0.000037   0.374410  -0.000016   0.000150
    13  C   -0.000006  -0.010245   0.000340   0.251385  -0.000008  -0.000007
    14  O    0.000000   0.005998   0.000004  -0.094552   0.000000  -0.000004
    15  H    0.000255   0.000049   0.393426  -0.000146   0.007241  -0.017299
    16  H   -0.000001   0.014681   0.000016  -0.138826   0.000000  -0.000002
               7          8          9         10         11         12
     1  O   -0.039712   0.015837   0.003131   0.012201   0.000073  -0.000096
     2  C    0.000019   0.000340   0.000052   0.383884   0.400308  -0.025248
     3  C    0.012381   0.398624  -0.031589   0.000291  -0.000010  -0.000037
     4  C   -0.000082   0.001066  -0.000039  -0.006143  -0.030538   0.374410
     5  C    0.418146  -0.015440  -0.025775  -0.000320   0.000096  -0.000016
     6  C   -0.122694  -0.033699   0.385203  -0.001207  -0.000025   0.000150
     7  H    0.701107   0.001317   0.000027   0.000237   0.000013  -0.000004
     8  H    0.001317   0.584602   0.007318   0.000583   0.000016   0.000562
     9  H    0.000027   0.007318   0.618015  -0.000017   0.000001  -0.000003
    10  H    0.000237   0.000583  -0.000017   0.558148  -0.034250  -0.010933
    11  H    0.000013   0.000016   0.000001  -0.034250   0.593999   0.006593
    12  H   -0.000004   0.000562  -0.000003  -0.010933   0.006593   0.607539
    13  C   -0.000000  -0.000243  -0.000003   0.005012  -0.013697  -0.025417
    14  O    0.000000  -0.000032   0.000000  -0.000119   0.000145   0.007498
    15  H   -0.000173  -0.035538  -0.010674   0.000001   0.000000   0.000083
    16  H   -0.000000  -0.000022  -0.000002  -0.000371   0.007836   0.008035
              13         14         15         16
     1  O   -0.000006   0.000000   0.000255  -0.000001
     2  C   -0.010245   0.005998   0.000049   0.014681
     3  C    0.000340   0.000004   0.393426   0.000016
     4  C    0.251385  -0.094552  -0.000146  -0.138826
     5  C   -0.000008   0.000000   0.007241   0.000000
     6  C   -0.000007  -0.000004  -0.017299  -0.000002
     7  H   -0.000000   0.000000  -0.000173  -0.000000
     8  H   -0.000243  -0.000032  -0.035538  -0.000022
     9  H   -0.000003   0.000000  -0.010674  -0.000002
    10  H    0.005012  -0.000119   0.000001  -0.000371
    11  H   -0.013697   0.000145   0.000000   0.007836
    12  H   -0.025417   0.007498   0.000083   0.008035
    13  C    4.547391   0.654986   0.000068   0.418343
    14  O    0.654986   7.718365   0.000021  -0.039786
    15  H    0.000068   0.000021   0.580647   0.000007
    16  H    0.418343  -0.039786   0.000007   0.714739
 Mulliken charges:
               1
     1  O   -0.247433
     2  C   -0.043374
     3  C   -0.010428
     4  C   -0.123598
     5  C    0.182849
     6  C   -0.152786
     7  H    0.029419
     8  H    0.074708
     9  H    0.054355
    10  H    0.093002
    11  H    0.069440
    12  H    0.056884
    13  C    0.172102
    14  O   -0.252524
    15  H    0.082033
    16  H    0.015351
 Sum of Mulliken charges =  -0.00000
 Mulliken charges with hydrogens summed into heavy atoms:
               1
     1  O   -0.247433
     2  C    0.119068
     3  C    0.146313
     4  C   -0.066714
     5  C    0.212268
     6  C   -0.098431
    13  C    0.187453
    14  O   -0.252524
 Electronic spatial extent (au):  <R**2>=           1538.8332
 Charge=             -0.0000 electrons
 Dipole moment (field-independent basis, Debye):
    X=             -2.5332    Y=             -0.0830    Z=             -1.5287  Tot=              2.9598
 Quadrupole moment (field-independent basis, Debye-Ang):
   XX=            -58.5527   YY=            -47.1889   ZZ=            -43.9945
   XY=             10.6312   XZ=              3.0415   YZ=             -2.0193
 Traceless Quadrupole moment (field-independent basis, Debye-Ang):
   XX=             -8.6407   YY=              2.7232   ZZ=              5.9175
   XY=             10.6312   XZ=              3.0415   YZ=             -2.0193
 Octapole moment (field-independent basis, Debye-Ang**2):
  XXX=            -52.0951  YYY=             -5.4737  ZZZ=              0.3552  XYY=             -1.4720
  XXY=             12.3943  XXZ=            -16.9978  XZZ=              0.5131  YZZ=              0.3182
  YYZ=             -2.5480  XYZ=             -1.7091
 Hexadecapole moment (field-independent basis, Debye-Ang**3):
 XXXX=          -1599.4737 YYYY=           -369.9211 ZZZZ=           -121.7159 XXXY=             70.1853
 XXXZ=             29.0269 YYYX=             -7.2546 YYYZ=             -2.6856 ZZZX=             -1.1051
 ZZZY=             -0.0573 XXYY=           -345.6239 XXZZ=           -248.1612 YYZZ=            -82.2152
 XXYZ=             -5.6796 YYXZ=              2.0713 ZZXY=             -4.3986
 N-N= 3.144464833209D+02 E-N=-1.522645844158D+03  KE= 3.797368092943D+02
   1 Symmetry operations used in ECPInt.
 ECPInt:  NShTT=    2628 NPrTT=    9444 LenC2=    2563 LenP2D=    7176.
 LDataN:  DoStor=T MaxTD1= 5 Len=  102
 D1PCM: PCM CHGder 1st derivatives, ID1Alg=3 FixD1E=F DoIter=F DoCFld=F I1PDM=0.
 Calling FoFJK, ICntrl=      2127 FMM=F ISym2X=0 I1Cent= 0 IOpClX= 0 NMat=1 NMatS=1 NMatT=0.
 ***** Axes restored to original set *****
 -------------------------------------------------------------------
 Center     Atomic                   Forces (Hartrees/Bohr)
 Number     Number              X              Y              Z
 -------------------------------------------------------------------
      1        8          -0.000069456    0.000038270   -0.000027870
      2        6           0.000004009   -0.000156885   -0.000084782
      3        6          -0.000167921   -0.000011371   -0.000141896
      4        6           0.000050926    0.000259060   -0.000065807
      5        6           0.000013210    0.000151685    0.000090098
      6        6          -0.000033059    0.000028472   -0.000004792
      7        1           0.000039433   -0.000010192   -0.000008903
      8        1           0.000108272   -0.000050065    0.000175149
      9        1          -0.000011859    0.000005081   -0.000016011
     10        1           0.000205086   -0.000042826    0.000044632
     11        1          -0.000006808   -0.000059383   -0.000020265
     12        1          -0.000140021   -0.000151754    0.000114726
     13        6          -0.000053582   -0.000005778   -0.000130897
     14        8          -0.000026590    0.000050685    0.000044295
     15        1           0.000090021   -0.000035650    0.000020411
     16        1          -0.000001661   -0.000009348    0.000011912
 -------------------------------------------------------------------
 Cartesian Forces:  Max     0.000259060 RMS     0.000089284

 GradGradGradGradGradGradGradGradGradGradGradGradGradGradGradGradGradGrad
 Berny optimization.
 FormGI is forming the generalized inverse of G from B-inverse, IUseBI=4.
 Internal  Forces:  Max     0.000624333 RMS     0.000196232
 Search for a saddle point.
 Step number   1 out of a maximum of   50
 All quantities printed in internal units (Hartrees-Bohrs-Radians)
 Swapping is turned off.
 Second derivative matrix not updated -- first step.
 ITU=  0
     Eigenvalues ---   -0.00578   0.00005   0.00113   0.00818   0.01090
     Eigenvalues ---    0.01408   0.01993   0.02094   0.02797   0.03510
     Eigenvalues ---    0.04179   0.05432   0.07283   0.09371   0.09582
     Eigenvalues ---    0.11291   0.12135   0.12558   0.12721   0.12924
     Eigenvalues ---    0.14742   0.16134   0.16326   0.18585   0.19711
     Eigenvalues ---    0.25348   0.26179   0.36421   0.36626   0.38199
     Eigenvalues ---    0.38606   0.39114   0.39326   0.39405   0.39576
     Eigenvalues ---    0.39988   0.40980   0.47398   0.63335   0.65363
     Eigenvalues ---    0.80909   0.84117
 Eigenvectors required to have negative eigenvalues:
                          D12       D11       A16       D21       D9
   1                    0.55576   0.52368  -0.51992   0.22997   0.16700
                          D10       A17       D19       D17       D20
   1                    0.16470  -0.12193  -0.07896  -0.07325  -0.06065
 RFO step:  Lambda0=4.489024692D-05 Lambda=-3.89963966D-05.
 Linear search not attempted -- option 19 set.
 Maximum step size (   0.100) exceeded in Quadratic search.
    -- Step size scaled by   0.259
 Iteration  1 RMS(Cart)=  0.04420615 RMS(Int)=  0.00086818
 Iteration  2 RMS(Cart)=  0.00178768 RMS(Int)=  0.00000066
 Iteration  3 RMS(Cart)=  0.00000151 RMS(Int)=  0.00000018
 Iteration  4 RMS(Cart)=  0.00000000 RMS(Int)=  0.00000018
 Variable       Old X    -DE/DX   Delta X   Delta X   Delta X     New X
                                 (Linear)    (Quad)   (Total)
    R1        2.28516   0.00001   0.00000   0.00002   0.00002   2.28519
    R2        2.52557  -0.00000   0.00000  -0.00000  -0.00000   2.52557
    R3        2.06274   0.00020   0.00000  -0.00005  -0.00005   2.06269
    R4        2.07040   0.00001   0.00000  -0.00004  -0.00004   2.07036
    R5        2.52570  -0.00011   0.00000   0.00007   0.00007   2.52578
    R6        2.06632  -0.00010   0.00000  -0.00017  -0.00017   2.06615
    R7        2.06402  -0.00002   0.00000  -0.00005  -0.00005   2.06396
    R8        2.06862  -0.00025   0.00000  -0.00012  -0.00012   2.06849
    R9        2.78709   0.00010   0.00000  -0.00009  -0.00009   2.78700
   R10        2.80219   0.00009   0.00000   0.00004   0.00004   2.80223
   R11        2.10980  -0.00000   0.00000   0.00006   0.00006   2.10986
   R12        2.06715   0.00000   0.00000  -0.00001  -0.00001   2.06714
   R13        5.04231  -0.00010   0.00000   0.06994   0.06994   5.11225
   R14        2.28092  -0.00004   0.00000   0.00001   0.00001   2.28094
   R15        2.11714   0.00001   0.00000   0.00002   0.00002   2.11717
    A1        2.13324  -0.00005   0.00000   0.00101   0.00101   2.13425
    A2        2.10702   0.00000   0.00000   0.00027   0.00027   2.10729
    A3        2.04263   0.00004   0.00000  -0.00128  -0.00128   2.04134
    A4        2.09576  -0.00057   0.00000  -0.00143  -0.00143   2.09433
    A5        2.12810   0.00027   0.00000   0.00043   0.00043   2.12854
    A6        2.05932   0.00030   0.00000   0.00100   0.00100   2.06032
    A7        2.13422  -0.00025   0.00000   0.00002   0.00001   2.13424
    A8        2.11430   0.00013   0.00000  -0.00028  -0.00028   2.11402
    A9        2.03462   0.00012   0.00000   0.00025   0.00025   2.03487
   A10        2.17233  -0.00006   0.00000   0.00012   0.00012   2.17245
   A11        2.09958   0.00003   0.00000  -0.00002  -0.00002   2.09955
   A12        2.01128   0.00002   0.00000  -0.00010  -0.00010   2.01118
   A13        2.11827  -0.00032   0.00000  -0.00066  -0.00066   2.11761
   A14        2.12086   0.00014   0.00000   0.00042   0.00042   2.12128
   A15        2.04406   0.00018   0.00000   0.00023   0.00023   2.04429
   A16        2.07414   0.00009   0.00000   0.02341   0.02341   2.09755
   A17        1.78117  -0.00062   0.00000  -0.06728  -0.06728   1.71389
   A18        2.17140   0.00004   0.00000   0.00028   0.00028   2.17168
   A19        1.99928  -0.00003   0.00000  -0.00019  -0.00019   1.99909
   A20        2.11249  -0.00001   0.00000  -0.00009  -0.00009   2.11240
    D1       -0.02703  -0.00000   0.00000   0.00227   0.00227  -0.02476
    D2        3.10488  -0.00014   0.00000  -0.00008  -0.00008   3.10480
    D3        3.14145   0.00012   0.00000   0.00235   0.00235  -3.13939
    D4       -0.00984  -0.00001   0.00000   0.00000   0.00000  -0.00983
    D5        0.00525   0.00011   0.00000  -0.00061  -0.00061   0.00463
    D6       -3.13491   0.00008   0.00000  -0.00044  -0.00044  -3.13535
    D7       -3.13503   0.00007   0.00000  -0.00134  -0.00134  -3.13637
    D8        0.00800   0.00004   0.00000  -0.00117  -0.00117   0.00683
    D9       -1.92121   0.00024   0.00000  -0.01793  -0.01793  -1.93914
   D10        1.21912   0.00028   0.00000  -0.01723  -0.01723   1.20189
   D11        1.05483  -0.00059   0.00000   0.02928   0.02928   1.08410
   D12       -2.07749  -0.00046   0.00000   0.03153   0.03153  -2.04597
   D13       -3.11150   0.00001   0.00000  -0.00126  -0.00126  -3.11276
   D14        0.02414   0.00006   0.00000  -0.00099  -0.00099   0.02315
   D15        0.02093  -0.00012   0.00000  -0.00348  -0.00348   0.01745
   D16       -3.12661  -0.00007   0.00000  -0.00321  -0.00321  -3.12982
   D17        0.04632   0.00005   0.00000  -0.00425  -0.00425   0.04207
   D18       -3.09665   0.00008   0.00000  -0.00442  -0.00442  -3.10106
   D19       -3.09765   0.00003   0.00000  -0.00425  -0.00425  -3.10190
   D20        0.04257   0.00006   0.00000  -0.00441  -0.00441   0.03816
   D21        0.98546  -0.00028   0.00000  -0.00260  -0.00260   0.98287
         Item               Value     Threshold  Converged?
 Maximum Force            0.000624     0.000450     NO 
 RMS     Force            0.000196     0.000300     YES
 Maximum Displacement     0.164717     0.001800     NO 
 RMS     Displacement     0.044911     0.001200     NO 
 Predicted change in Energy= 1.104493D-06
 GradGradGradGradGradGradGradGradGradGradGradGradGradGradGradGradGradGrad

                          Input orientation:                          
 ---------------------------------------------------------------------
 Center     Atomic      Atomic             Coordinates (Angstroms)
 Number     Number       Type             X           Y           Z
 ---------------------------------------------------------------------
      1          8           0        1.660732   -0.651366    1.943069
      2          6           0       -0.753672    1.254060    0.938455
      3          6           0        1.357001   -1.255474   -0.842353
      4          6           0       -0.883330    1.452053   -0.376897
      5          6           0        1.371378   -1.762536    1.563722
      6          6           0        1.175026   -2.139842    0.143158
      7          1           0        1.230750   -2.590158    2.299802
      8          1           0        1.660907   -0.231519   -0.608708
      9          1           0        0.876775   -3.172063   -0.062144
     10          1           0        0.187329    1.426505    1.464013
     11          1           0       -1.594731    0.883017    1.534487
     12          1           0       -0.059526    1.819850   -0.996751
     13          6           0       -2.154051    1.167088   -1.069101
     14          8           0       -2.328353    1.296655   -2.256422
     15          1           0        1.210601   -1.520970   -1.891631
     16          1           0       -2.976737    0.804101   -0.400801
 ---------------------------------------------------------------------
                    Distance matrix (angstroms):
                    1          2          3          4          5
     1  O    0.000000
     2  C    3.235621   0.000000
     3  C    2.866317   3.731485   0.000000
     4  C    4.034707   1.336475   3.544916   0.000000
     5  C    1.209268   3.742545   2.458967   4.379874   0.000000
     6  C    2.385613   3.983835   1.336583   4.172408   1.482874
     7  H    2.017686   4.535329   3.416205   5.289000   1.116489
     8  H    2.586085   3.229682   1.093359   3.059622   2.673442
     9  H    3.315023   4.821837   2.124301   4.957770   2.207904
    10  H    2.591902   1.091527   3.725650   2.129769   3.403218
    11  H    3.622059   1.095585   4.351463   2.117377   3.974620
    12  H    4.208175   2.132365   3.389396   1.094599   4.630011
    13  C    5.189655   2.449267   4.271734   1.474817   5.286124
    14  O    6.110917   3.562116   4.700509   2.375890   6.135158
    15  H    3.957746   4.423635   1.092202   3.939267   3.467516
    16  H    5.396131   2.634026   4.818517   2.191522   5.417848
                    6          7          8          9         10
     6  C    0.000000
     7  H    2.203861   0.000000
     8  H    2.107861   3.769303   0.000000
     9  H    1.093884   2.458190   3.091989   0.000000
    10  H    3.929253   4.233303   3.035893   4.894008   0.000000
    11  H    4.329552   4.542246   4.053967   5.010114   1.864426
    12  H    4.301473   5.655108   2.705287   5.164237   2.504200
    13  C    4.846453   6.076454   4.089250   5.387773   3.459195
    14  O    5.462706   6.966614   4.578697   5.920907   4.493012
    15  H    2.127119   4.325700   1.873860   2.486879   4.582035
    16  H    5.118576   6.042947   4.756414   5.547442   3.725082
                   11         12         13         14         15
    11  H    0.000000
    12  H    3.105105   0.000000
    13  C    2.678097   2.195079   0.000000
    14  O    3.883334   2.647278   1.207020   0.000000
    15  H    5.038583   3.684442   4.384415   4.538312   0.000000
    16  H    2.379392   3.145954   1.120356   2.026411   5.016207
                   16
    16  H    0.000000
 Stoichiometry    C6H8O2
 Framework group  C1[X(C6H8O2)]
 Deg. of freedom    42
 Full point group                 C1      NOp   1
 Largest Abelian subgroup         C1      NOp   1
 Largest concise Abelian subgroup C1      NOp   1
                         Standard orientation:                         
 ---------------------------------------------------------------------
 Center     Atomic      Atomic             Coordinates (Angstroms)
 Number     Number       Type             X           Y           Z
 ---------------------------------------------------------------------
      1          8           0       -2.389668    1.103257    0.311116
      2          6           0        0.798853    1.573200    0.025236
      3          6           0       -1.233133   -1.503632    0.598050
      4          6           0        1.611515    0.607435    0.464603
      5          6           0       -2.651625    0.206051   -0.456171
      6          6           0       -2.073250   -1.157370   -0.382133
      7          1           0       -3.371290    0.372951   -1.293294
      8          1           0       -0.963018   -0.776629    1.368724
      9          1           0       -2.365094   -1.866066   -1.162620
     10          1           0        0.016089    2.005944    0.650891
     11          1           0        0.878858    1.948624   -1.000904
     12          1           0        1.552415    0.212292    1.483678
     13          6           0        2.630676    0.008797   -0.417456
     14          8           0        3.374926   -0.884168   -0.092490
     15          1           0       -0.797468   -2.503279    0.659762
     16          1           0        2.669227    0.446568   -1.448023
 ---------------------------------------------------------------------
 Rotational constants (GHZ):           3.2737554           0.8356164           0.7146545
 Standard basis: def2SVP (5D, 7F)
 There are   160 symmetry adapted cartesian basis functions of A   symmetry.
 There are   152 symmetry adapted basis functions of A   symmetry.
   152 basis functions,   256 primitive gaussians,   160 cartesian basis functions
    30 alpha electrons       30 beta electrons
       nuclear repulsion energy       315.0712384973 Hartrees.
 NAtoms=   16 NActive=   16 NUniq=   16 SFac= 1.00D+00 NAtFMM=   60 NAOKFM=F Big=F
 Integral buffers will be    131072 words long.
 Raffenetti 2 integral format.
 Two-electron integral symmetry is turned on.
 Nuclear repulsion after empirical dispersion term =      315.0646382484 Hartrees.
 ------------------------------------------------------------------------------
 Polarizable Continuum Model (PCM)
 =================================
 Model                : PCM.
 Atomic radii         : UFF (Universal Force Field).
 Polarization charges : Total charges.
 Charge compensation  : None.
 Solution method      : On-the-fly selection.
 Cavity type          : Scaled VdW (van der Waals Surface) (Alpha=1.100).
 Cavity algorithm     : GePol (No added spheres)
                        Default sphere list used, NSphG=   16.
                        Lebedev-Laikov grids with approx.  5.0 points / Ang**2.
                        Smoothing algorithm: York/Karplus (Gamma=1.0000).
                        Polarization charges: spherical gaussians, with
                                              point-specific exponents (IZeta= 3).
                        Self-potential: point-specific (ISelfS= 7).
                        Self-field    : sphere-specific E.n sum rule (ISelfD= 2).
 1st derivatives      : Analytical E(r).r(x)/FMM algorithm (CHGder, D1EAlg=3).
                        Cavity 1st derivative terms included.
 Solvent              : Toluene, Eps=   2.374100 Eps(inf)=   2.238315
 ------------------------------------------------------------------------------
 Spheres list:
 ISph  on   Nord     Re0    Alpha      Xe            Ye            Ze
    1   O      1    1.7500  1.100     -2.389668      1.103257      0.311116
    2   C      2    1.9255  1.100      0.798853      1.573200      0.025236
    3   C      3    1.9255  1.100     -1.233133     -1.503632      0.598050
    4   C      4    1.9255  1.100      1.611515      0.607435      0.464603
    5   C      5    1.9255  1.100     -2.651625      0.206051     -0.456171
    6   C      6    1.9255  1.100     -2.073250     -1.157370     -0.382133
    7   H      7    1.4430  1.100     -3.371290      0.372951     -1.293294
    8   H      8    1.4430  1.100     -0.963018     -0.776629      1.368724
    9   H      9    1.4430  1.100     -2.365094     -1.866066     -1.162620
   10   H     10    1.4430  1.100      0.016089      2.005944      0.650891
   11   H     11    1.4430  1.100      0.878858      1.948624     -1.000904
   12   H     12    1.4430  1.100      1.552415      0.212292      1.483678
   13   C     13    1.9255  1.100      2.630676      0.008797     -0.417456
   14   O     14    1.7500  1.100      3.374926     -0.884168     -0.092490
   15   H     15    1.4430  1.100     -0.797468     -2.503279      0.659762
   16   H     16    1.4430  1.100      2.669227      0.446568     -1.448023
 ------------------------------------------------------------------------------
 One-electron integrals computed using PRISM.
   1 Symmetry operations used in ECPInt.
 ECPInt:  NShTT=    2628 NPrTT=    9444 LenC2=    2564 LenP2D=    7187.
 LDataN:  DoStor=T MaxTD1= 4 Len=   56
 NBasis=   152 RedAO= T EigKep=  2.18D-03  NBF=   152
 NBsUse=   152 1.00D-06 EigRej= -1.00D+00 NBFU=   152
 Initial guess from the checkpoint file:  "da-1_1_hf.chk"
 B after Tr=    -0.000000   -0.000000   -0.000000
         Rot=    0.999973    0.007009   -0.001550   -0.001778 Ang=   0.85 deg.
 ExpMin= 1.22D-01 ExpMax= 2.27D+03 ExpMxC= 3.41D+02 IAcc=3 IRadAn=         5 AccDes= 0.00D+00
 Harris functional with IExCor= 4639 and IRadAn=       5 diagonalized for initial guess.
 HarFok:  IExCor= 4639 AccDes= 0.00D+00 IRadAn=         5 IDoV= 1 UseB2=F ITyADJ=14
 ICtDFT=  3500011 ScaDFX=  1.000000  1.000000  1.000000  1.000000
 FoFCou: FMM=F IPFlag=           0 FMFlag=      100000 FMFlg1=           0
         NFxFlg=           0 DoJE=T BraDBF=F KetDBF=T FulRan=T
         wScrn=  0.000000 ICntrl=       500 IOpCl=  0 I1Cent=   200000004 NGrid=           0
         NMat0=    1 NMatS0=      1 NMatT0=    0 NMatD0=    1 NMtDS0=    0 NMtDT0=    0
 Petite list used in FoFCou.
 Requested convergence on RMS density matrix=1.00D-08 within 128 cycles.
 Requested convergence on MAX density matrix=1.00D-06.
 Requested convergence on             energy=1.00D-06.
 No special actions if energy rises.
 Inv3:  Mode=1 IEnd=     6949452.
 Iteration    1 A*A^-1 deviation from unit magnitude is 3.22D-15 for   1098.
 Iteration    1 A*A^-1 deviation from orthogonality  is 1.67D-15 for   1340    941.
 Iteration    1 A^-1*A deviation from unit magnitude is 3.22D-15 for   1098.
 Iteration    1 A^-1*A deviation from orthogonality  is 2.15D-14 for   1271   1235.
 Error on total polarization charges =  0.00562
 SCF Done:  E(RwB97XD) =  -383.413840590     A.U. after   12 cycles
            NFock= 12  Conv=0.70D-08     -V/T= 2.0097
   1 Symmetry operations used in ECPInt.
 ECPInt:  NShTT=    2628 NPrTT=    9444 LenC2=    2564 LenP2D=    7187.
 LDataN:  DoStor=T MaxTD1= 5 Len=  102
 D1PCM: PCM CHGder 1st derivatives, ID1Alg=3 FixD1E=F DoIter=F DoCFld=F I1PDM=0.
 Calling FoFJK, ICntrl=      2127 FMM=F ISym2X=0 I1Cent= 0 IOpClX= 0 NMat=1 NMatS=1 NMatT=0.
 ***** Axes restored to original set *****
 -------------------------------------------------------------------
 Center     Atomic                   Forces (Hartrees/Bohr)
 Number     Number              X              Y              Z
 -------------------------------------------------------------------
      1        8          -0.000073267    0.000007721   -0.000068317
      2        6           0.000001824   -0.000082896   -0.000038919
      3        6          -0.000039363   -0.000054447   -0.000048867
      4        6           0.000041648    0.000142491   -0.000033497
      5        6          -0.000019278    0.000095951    0.000093319
      6        6          -0.000019936    0.000025919   -0.000000436
      7        1           0.000039739   -0.000006347   -0.000002863
      8        1           0.000151699   -0.000029188    0.000042479
      9        1          -0.000026924    0.000006908   -0.000008568
     10        1           0.000103132   -0.000019204    0.000026838
     11        1          -0.000004727   -0.000047204   -0.000017978
     12        1          -0.000106700   -0.000045393    0.000093552
     13        6          -0.000068526    0.000001784   -0.000107842
     14        8          -0.000000664    0.000023206    0.000047665
     15        1           0.000029492   -0.000011542    0.000002858
     16        1          -0.000008147   -0.000007760    0.000020575
 -------------------------------------------------------------------
 Cartesian Forces:  Max     0.000151699 RMS     0.000056503

 GradGradGradGradGradGradGradGradGradGradGradGradGradGradGradGradGradGrad
 Berny optimization.
 FormGI is forming the generalized inverse of G from B-inverse, IUseBI=4.
 Internal  Forces:  Max     0.000364857 RMS     0.000122660
 Search for a saddle point.
 Step number   2 out of a maximum of   50
 All quantities printed in internal units (Hartrees-Bohrs-Radians)
 Swapping is turned off.
 Update second derivatives using D2CorX and points    1    2
 ITU=  0  0
     Eigenvalues ---   -0.00635   0.00055   0.00113   0.00819   0.01090
     Eigenvalues ---    0.01423   0.01993   0.02094   0.02797   0.03510
     Eigenvalues ---    0.04182   0.05432   0.07286   0.09372   0.09582
     Eigenvalues ---    0.11291   0.12135   0.12558   0.12722   0.12924
     Eigenvalues ---    0.14742   0.16134   0.16326   0.18585   0.19712
     Eigenvalues ---    0.25349   0.26179   0.36421   0.36626   0.38199
     Eigenvalues ---    0.38606   0.39114   0.39326   0.39405   0.39577
     Eigenvalues ---    0.39988   0.40981   0.47399   0.63335   0.65363
     Eigenvalues ---    0.80909   0.84117
 Eigenvectors required to have negative eigenvalues:
                          D12       D11       A16       D21       A17
   1                   -0.57274  -0.54200   0.47114  -0.21114   0.19485
                          D9        D10       R13       D19       D17
   1                   -0.14432  -0.13893  -0.09496   0.08113   0.07543
 RFO step:  Lambda0=1.023319231D-05 Lambda=-2.82479030D-05.
 Linear search not attempted -- option 19 set.
 Maximum step size (   0.100) exceeded in Quadratic search.
    -- Step size scaled by   0.543
 Iteration  1 RMS(Cart)=  0.03625054 RMS(Int)=  0.00031836
 Iteration  2 RMS(Cart)=  0.00055290 RMS(Int)=  0.00000007
 Iteration  3 RMS(Cart)=  0.00000018 RMS(Int)=  0.00000001
 Variable       Old X    -DE/DX   Delta X   Delta X   Delta X     New X
                                 (Linear)    (Quad)   (Total)
    R1        2.28519  -0.00003   0.00000  -0.00007  -0.00007   2.28511
    R2        2.52557   0.00000   0.00000   0.00000   0.00000   2.52557
    R3        2.06269   0.00010   0.00000  -0.00009  -0.00009   2.06260
    R4        2.07036   0.00001   0.00000  -0.00000  -0.00000   2.07035
    R5        2.52578  -0.00006   0.00000   0.00002   0.00002   2.52580
    R6        2.06615  -0.00002   0.00000   0.00013   0.00013   2.06628
    R7        2.06396  -0.00000   0.00000  -0.00000  -0.00000   2.06396
    R8        2.06849  -0.00011   0.00000  -0.00009  -0.00009   2.06841
    R9        2.78700   0.00008   0.00000   0.00004   0.00004   2.78704
   R10        2.80223   0.00004   0.00000   0.00009   0.00009   2.80231
   R11        2.10986  -0.00000   0.00000  -0.00000  -0.00000   2.10985
   R12        2.06714   0.00000   0.00000  -0.00000  -0.00000   2.06714
   R13        5.11225   0.00000   0.00000   0.09495   0.09495   5.20720
   R14        2.28094  -0.00005   0.00000  -0.00004  -0.00004   2.28090
   R15        2.11717   0.00002   0.00000   0.00006   0.00006   2.11723
    A1        2.13425  -0.00001   0.00000   0.00084   0.00084   2.13510
    A2        2.10729  -0.00001   0.00000   0.00009   0.00009   2.10738
    A3        2.04134   0.00002   0.00000  -0.00093  -0.00093   2.04041
    A4        2.09433  -0.00036   0.00000  -0.00041  -0.00041   2.09392
    A5        2.12854   0.00018   0.00000   0.00004   0.00004   2.12857
    A6        2.06032   0.00019   0.00000   0.00037   0.00037   2.06069
    A7        2.13424  -0.00010   0.00000   0.00043   0.00043   2.13467
    A8        2.11402   0.00004   0.00000  -0.00049  -0.00049   2.11353
    A9        2.03487   0.00006   0.00000   0.00006   0.00006   2.03493
   A10        2.17245  -0.00011   0.00000  -0.00015  -0.00015   2.17229
   A11        2.09955   0.00005   0.00000   0.00008   0.00008   2.09963
   A12        2.01118   0.00006   0.00000   0.00008   0.00008   2.01126
   A13        2.11761  -0.00024   0.00000  -0.00029  -0.00029   2.11732
   A14        2.12128   0.00011   0.00000   0.00015   0.00015   2.12143
   A15        2.04429   0.00013   0.00000   0.00014   0.00014   2.04443
   A16        2.09755   0.00003   0.00000  -0.01407  -0.01407   2.08348
   A17        1.71389  -0.00033   0.00000  -0.02785  -0.02785   1.68604
   A18        2.17168   0.00001   0.00000   0.00018   0.00018   2.17186
   A19        1.99909  -0.00002   0.00000  -0.00020  -0.00020   1.99889
   A20        2.11240   0.00001   0.00000   0.00002   0.00002   2.11242
    D1       -0.02476   0.00000   0.00000   0.00086   0.00086  -0.02390
    D2        3.10480  -0.00007   0.00000   0.00106   0.00106   3.10586
    D3       -3.13939   0.00008   0.00000   0.00081   0.00081  -3.13858
    D4       -0.00983   0.00000   0.00000   0.00101   0.00101  -0.00882
    D5        0.00463   0.00008   0.00000  -0.00077  -0.00077   0.00386
    D6       -3.13535   0.00003   0.00000  -0.00066  -0.00066  -3.13601
    D7       -3.13637   0.00011   0.00000  -0.00065  -0.00065  -3.13702
    D8        0.00683   0.00006   0.00000  -0.00054  -0.00054   0.00629
    D9       -1.93914   0.00025   0.00000   0.00444   0.00444  -1.93470
   D10        1.20189   0.00023   0.00000   0.00432   0.00432   1.20621
   D11        1.08410  -0.00033   0.00000  -0.00622  -0.00622   1.07788
   D12       -2.04597  -0.00026   0.00000  -0.00641  -0.00641  -2.05238
   D13       -3.11276   0.00001   0.00000  -0.00213  -0.00213  -3.11488
   D14        0.02315   0.00003   0.00000  -0.00170  -0.00170   0.02146
   D15        0.01745  -0.00006   0.00000  -0.00193  -0.00193   0.01552
   D16       -3.12982  -0.00004   0.00000  -0.00150  -0.00150  -3.13132
   D17        0.04207   0.00004   0.00000  -0.00295  -0.00295   0.03912
   D18       -3.10106   0.00009   0.00000  -0.00306  -0.00306  -3.10412
   D19       -3.10190   0.00002   0.00000  -0.00275  -0.00275  -3.10465
   D20        0.03816   0.00006   0.00000  -0.00286  -0.00286   0.03529
   D21        0.98287  -0.00017   0.00000   0.02649   0.02649   1.00936
         Item               Value     Threshold  Converged?
 Maximum Force            0.000365     0.000450     YES
 RMS     Force            0.000123     0.000300     YES
 Maximum Displacement     0.105988     0.001800     NO 
 RMS     Displacement     0.036400     0.001200     NO 
 Predicted change in Energy=-7.273646D-06
 GradGradGradGradGradGradGradGradGradGradGradGradGradGradGradGradGradGrad

                          Input orientation:                          
 ---------------------------------------------------------------------
 Center     Atomic      Atomic             Coordinates (Angstroms)
 Number     Number       Type             X           Y           Z
 ---------------------------------------------------------------------
      1          8           0        1.629885   -0.661340    1.954401
      2          6           0       -0.728870    1.266132    0.928309
      3          6           0        1.376788   -1.249531   -0.838974
      4          6           0       -0.884567    1.461136   -0.384664
      5          6           0        1.338388   -1.768150    1.564222
      6          6           0        1.168826   -2.137551    0.138092
      7          1           0        1.174664   -2.597543    2.293499
      8          1           0        1.681719   -0.228594   -0.593445
      9          1           0        0.868318   -3.166830   -0.078382
     10          1           0        0.215891    1.460167    1.439295
     11          1           0       -1.551165    0.875586    1.537906
     12          1           0       -0.079864    1.847304   -1.018205
     13          6           0       -2.160160    1.147692   -1.055310
     14          8           0       -2.358260    1.275007   -2.239117
     15          1           0        1.250936   -1.509005   -1.892414
     16          1           0       -2.962429    0.764921   -0.373314
 ---------------------------------------------------------------------
                    Distance matrix (angstroms):
                    1          2          3          4          5
     1  O    0.000000
     2  C    3.214302   0.000000
     3  C    2.865828   3.726345   0.000000
     4  C    4.037152   1.336476   3.559191   0.000000
     5  C    1.209230   3.726233   2.458819   4.378125   0.000000
     6  C    2.385529   3.976273   1.336594   4.176152   1.482921
     7  H    2.017695   4.518314   3.416193   5.280707   1.116487
     8  H    2.584855   3.218833   1.093426   3.079708   2.672758
     9  H    3.315067   4.818256   2.124400   4.958274   2.208035
    10  H    2.601059   1.091480   3.725675   2.130219   3.420181
    11  H    3.557343   1.095584   4.328809   2.117428   3.916574
    12  H    4.248874   2.132578   3.427003   1.094553   4.663891
    13  C    5.166759   2.448951   4.278257   1.474839   5.253944
    14  O    6.102486   3.561963   4.720622   2.376007   6.114851
    15  H    3.957288   4.424646   1.092201   3.956693   3.467440
    16  H    5.342455   2.633291   4.806627   2.191428   5.354206
                    6          7          8          9         10
     6  C    0.000000
     7  H    2.203953   0.000000
     8  H    2.107681   3.768749   0.000000
     9  H    1.093884   2.458406   3.091948   0.000000
    10  H    3.942687   4.256045   3.022019   4.913055   0.000000
    11  H    4.293812   4.479251   4.026589   4.980704   1.863853
    12  H    4.333049   5.683124   2.755531   5.188821   2.505325
    13  C    4.826922   6.030121   4.107008   5.361079   3.459235
    14  O    5.453164   6.929848   4.614161   5.899957   4.493467
    15  H    2.127150   4.325807   1.874126   2.487065   4.581221
    16  H    5.074755   5.961006   4.754329   5.497297   3.724330
                   11         12         13         14         15
    11  H    0.000000
    12  H    3.105265   0.000000
    13  C    2.677627   2.195101   0.000000
    14  O    3.882891   2.647497   1.207001   0.000000
    15  H    5.030422   3.714846   4.403902   4.571347   0.000000
    16  H    2.378376   3.145890   1.120387   2.026432   5.023031
                   16
    16  H    0.000000
 Stoichiometry    C6H8O2
 Framework group  C1[X(C6H8O2)]
 Deg. of freedom    42
 Full point group                 C1      NOp   1
 Largest Abelian subgroup         C1      NOp   1
 Largest concise Abelian subgroup C1      NOp   1
                         Standard orientation:                         
 ---------------------------------------------------------------------
 Center     Atomic      Atomic             Coordinates (Angstroms)
 Number     Number       Type             X           Y           Z
 ---------------------------------------------------------------------
      1          8           0       -2.380900    1.111496    0.281869
      2          6           0        0.792951    1.567317    0.056844
      3          6           0       -1.247632   -1.497890    0.627964
      4          6           0        1.619592    0.605574    0.478605
      5          6           0       -2.634007    0.205358   -0.477795
      6          6           0       -2.067553   -1.161053   -0.372413
      7          1           0       -3.335312    0.365386   -1.331671
      8          1           0       -0.985439   -0.760222    1.391301
      9          1           0       -2.350998   -1.879767   -1.146811
     10          1           0        0.026649    2.002329    0.700952
     11          1           0        0.843624    1.937511   -0.973055
     12          1           0        1.589455    0.214928    1.500630
     13          6           0        2.615908    0.005667   -0.428378
     14          8           0        3.372623   -0.882528   -0.119599
     15          1           0       -0.821158   -2.499742    0.713488
     16          1           0        2.623828    0.438004   -1.461959
 ---------------------------------------------------------------------
 Rotational constants (GHZ):           3.2560109           0.8384027           0.7179067
 Standard basis: def2SVP (5D, 7F)
 There are   160 symmetry adapted cartesian basis functions of A   symmetry.
 There are   152 symmetry adapted basis functions of A   symmetry.
   152 basis functions,   256 primitive gaussians,   160 cartesian basis functions
    30 alpha electrons       30 beta electrons
       nuclear repulsion energy       315.2078209636 Hartrees.
 NAtoms=   16 NActive=   16 NUniq=   16 SFac= 1.00D+00 NAtFMM=   60 NAOKFM=F Big=F
 Integral buffers will be    131072 words long.
 Raffenetti 2 integral format.
 Two-electron integral symmetry is turned on.
 Nuclear repulsion after empirical dispersion term =      315.2012271362 Hartrees.
 ------------------------------------------------------------------------------
 Polarizable Continuum Model (PCM)
 =================================
 Model                : PCM.
 Atomic radii         : UFF (Universal Force Field).
 Polarization charges : Total charges.
 Charge compensation  : None.
 Solution method      : On-the-fly selection.
 Cavity type          : Scaled VdW (van der Waals Surface) (Alpha=1.100).
 Cavity algorithm     : GePol (No added spheres)
                        Default sphere list used, NSphG=   16.
                        Lebedev-Laikov grids with approx.  5.0 points / Ang**2.
                        Smoothing algorithm: York/Karplus (Gamma=1.0000).
                        Polarization charges: spherical gaussians, with
                                              point-specific exponents (IZeta= 3).
                        Self-potential: point-specific (ISelfS= 7).
                        Self-field    : sphere-specific E.n sum rule (ISelfD= 2).
 1st derivatives      : Analytical E(r).r(x)/FMM algorithm (CHGder, D1EAlg=3).
                        Cavity 1st derivative terms included.
 Solvent              : Toluene, Eps=   2.374100 Eps(inf)=   2.238315
 ------------------------------------------------------------------------------
 Spheres list:
 ISph  on   Nord     Re0    Alpha      Xe            Ye            Ze
    1   O      1    1.7500  1.100     -2.380900      1.111496      0.281869
    2   C      2    1.9255  1.100      0.792951      1.567317      0.056844
    3   C      3    1.9255  1.100     -1.247632     -1.497890      0.627964
    4   C      4    1.9255  1.100      1.619592      0.605574      0.478605
    5   C      5    1.9255  1.100     -2.634007      0.205358     -0.477795
    6   C      6    1.9255  1.100     -2.067553     -1.161053     -0.372413
    7   H      7    1.4430  1.100     -3.335312      0.365386     -1.331671
    8   H      8    1.4430  1.100     -0.985439     -0.760222      1.391301
    9   H      9    1.4430  1.100     -2.350998     -1.879767     -1.146811
   10   H     10    1.4430  1.100      0.026649      2.002329      0.700952
   11   H     11    1.4430  1.100      0.843624      1.937511     -0.973055
   12   H     12    1.4430  1.100      1.589455      0.214928      1.500630
   13   C     13    1.9255  1.100      2.615908      0.005667     -0.428378
   14   O     14    1.7500  1.100      3.372623     -0.882528     -0.119599
   15   H     15    1.4430  1.100     -0.821158     -2.499742      0.713488
   16   H     16    1.4430  1.100      2.623828      0.438004     -1.461959
 ------------------------------------------------------------------------------
 One-electron integrals computed using PRISM.
   1 Symmetry operations used in ECPInt.
 ECPInt:  NShTT=    2628 NPrTT=    9444 LenC2=    2564 LenP2D=    7190.
 LDataN:  DoStor=T MaxTD1= 4 Len=   56
 NBasis=   152 RedAO= T EigKep=  2.19D-03  NBF=   152
 NBsUse=   152 1.00D-06 EigRej= -1.00D+00 NBFU=   152
 Initial guess from the checkpoint file:  "da-1_1_hf.chk"
 B after Tr=     0.000000    0.000000   -0.000000
         Rot=    0.999999    0.001372   -0.000058    0.000488 Ang=   0.17 deg.
 ExpMin= 1.22D-01 ExpMax= 2.27D+03 ExpMxC= 3.41D+02 IAcc=3 IRadAn=         5 AccDes= 0.00D+00
 Harris functional with IExCor= 4639 and IRadAn=       5 diagonalized for initial guess.
 HarFok:  IExCor= 4639 AccDes= 0.00D+00 IRadAn=         5 IDoV= 1 UseB2=F ITyADJ=14
 ICtDFT=  3500011 ScaDFX=  1.000000  1.000000  1.000000  1.000000
 FoFCou: FMM=F IPFlag=           0 FMFlag=      100000 FMFlg1=           0
         NFxFlg=           0 DoJE=T BraDBF=F KetDBF=T FulRan=T
         wScrn=  0.000000 ICntrl=       500 IOpCl=  0 I1Cent=   200000004 NGrid=           0
         NMat0=    1 NMatS0=      1 NMatT0=    0 NMatD0=    1 NMtDS0=    0 NMtDT0=    0
 Petite list used in FoFCou.
 Requested convergence on RMS density matrix=1.00D-08 within 128 cycles.
 Requested convergence on MAX density matrix=1.00D-06.
 Requested convergence on             energy=1.00D-06.
 No special actions if energy rises.
 Inv3:  Mode=1 IEnd=     6894768.
 Iteration    1 A*A^-1 deviation from unit magnitude is 3.00D-15 for    723.
 Iteration    1 A*A^-1 deviation from orthogonality  is 3.19D-15 for   1234    376.
 Iteration    1 A^-1*A deviation from unit magnitude is 2.66D-15 for    218.
 Iteration    1 A^-1*A deviation from orthogonality  is 5.28D-14 for   1331   1234.
 Error on total polarization charges =  0.00558
 SCF Done:  E(RwB97XD) =  -383.413846451     A.U. after   12 cycles
            NFock= 12  Conv=0.82D-08     -V/T= 2.0097
   1 Symmetry operations used in ECPInt.
 ECPInt:  NShTT=    2628 NPrTT=    9444 LenC2=    2564 LenP2D=    7190.
 LDataN:  DoStor=T MaxTD1= 5 Len=  102
 D1PCM: PCM CHGder 1st derivatives, ID1Alg=3 FixD1E=F DoIter=F DoCFld=F I1PDM=0.
 Calling FoFJK, ICntrl=      2127 FMM=F ISym2X=0 I1Cent= 0 IOpClX= 0 NMat=1 NMatS=1 NMatT=0.
 ***** Axes restored to original set *****
 -------------------------------------------------------------------
 Center     Atomic                   Forces (Hartrees/Bohr)
 Number     Number              X              Y              Z
 -------------------------------------------------------------------
      1        8          -0.000042473    0.000024626   -0.000003120
      2        6           0.000013233   -0.000070050   -0.000040088
      3        6          -0.000055542   -0.000010551   -0.000008286
      4        6           0.000017534    0.000074754   -0.000046667
      5        6          -0.000024541    0.000035790    0.000037989
      6        6          -0.000010335    0.000024965    0.000007273
      7        1           0.000036008   -0.000011593    0.000006972
      8        1           0.000117622   -0.000008902   -0.000037018
      9        1          -0.000026279    0.000014730   -0.000008933
     10        1           0.000049680    0.000013496    0.000021703
     11        1           0.000006649   -0.000031990   -0.000007560
     12        1          -0.000043122   -0.000044504    0.000112894
     13        6          -0.000040831   -0.000008968   -0.000070591
     14        8          -0.000000162    0.000013109    0.000021505
     15        1           0.000008799   -0.000006746    0.000006693
     16        1          -0.000006239   -0.000008166    0.000007234
 -------------------------------------------------------------------
 Cartesian Forces:  Max     0.000117622 RMS     0.000038414

 GradGradGradGradGradGradGradGradGradGradGradGradGradGradGradGradGradGrad
 Berny optimization.
 FormGI is forming the generalized inverse of G from B-inverse, IUseBI=4.
 Internal  Forces:  Max     0.000270457 RMS     0.000074906
 Search for a saddle point.
 Step number   3 out of a maximum of   50
 All quantities printed in internal units (Hartrees-Bohrs-Radians)
 Swapping is turned off.
 Update second derivatives using D2CorX and points    1    2    3
 ITU=  0  0  0
     Eigenvalues ---   -0.00665   0.00056   0.00145   0.00819   0.01095
     Eigenvalues ---    0.01426   0.01994   0.02094   0.02798   0.03511
     Eigenvalues ---    0.04182   0.05432   0.07286   0.09372   0.09582
     Eigenvalues ---    0.11293   0.12136   0.12558   0.12722   0.12924
     Eigenvalues ---    0.14743   0.16134   0.16326   0.18585   0.19714
     Eigenvalues ---    0.25349   0.26179   0.36421   0.36626   0.38199
     Eigenvalues ---    0.38606   0.39114   0.39326   0.39405   0.39577
     Eigenvalues ---    0.39988   0.40982   0.47399   0.63335   0.65363
     Eigenvalues ---    0.80909   0.84117
 Eigenvectors required to have negative eigenvalues:
                          D12       D11       A16       A17       D21
   1                   -0.56815  -0.53755   0.46517   0.22052  -0.20684
                          R13       D9        D10       D19       D17
   1                   -0.15102  -0.13502  -0.13010   0.07650   0.07096
 RFO step:  Lambda0=6.126810838D-07 Lambda=-3.24583925D-06.
 Linear search not attempted -- option 19 set.
 Iteration  1 RMS(Cart)=  0.01424228 RMS(Int)=  0.00010568
 Iteration  2 RMS(Cart)=  0.00018511 RMS(Int)=  0.00000001
 Iteration  3 RMS(Cart)=  0.00000002 RMS(Int)=  0.00000001
 Variable       Old X    -DE/DX   Delta X   Delta X   Delta X     New X
                                 (Linear)    (Quad)   (Total)
    R1        2.28511   0.00001   0.00000  -0.00001  -0.00001   2.28511
    R2        2.52557  -0.00000   0.00000  -0.00000  -0.00000   2.52557
    R3        2.06260   0.00006   0.00000   0.00003   0.00003   2.06263
    R4        2.07035   0.00000   0.00000  -0.00005  -0.00005   2.07031
    R5        2.52580  -0.00002   0.00000   0.00005   0.00005   2.52585
    R6        2.06628  -0.00004   0.00000   0.00004   0.00004   2.06632
    R7        2.06396  -0.00000   0.00000  -0.00001  -0.00001   2.06395
    R8        2.06841  -0.00009   0.00000  -0.00021  -0.00021   2.06820
    R9        2.78704   0.00006   0.00000   0.00003   0.00003   2.78707
   R10        2.80231   0.00005   0.00000   0.00000   0.00000   2.80232
   R11        2.10985   0.00001   0.00000   0.00001   0.00001   2.10986
   R12        2.06714  -0.00000   0.00000  -0.00000  -0.00000   2.06714
   R13        5.20720  -0.00004   0.00000   0.04314   0.04314   5.25034
   R14        2.28090  -0.00002   0.00000  -0.00002  -0.00002   2.28088
   R15        2.11723   0.00001   0.00000   0.00003   0.00003   2.11726
    A1        2.13510  -0.00001   0.00000   0.00040   0.00040   2.13550
    A2        2.10738   0.00000   0.00000   0.00016   0.00016   2.10754
    A3        2.04041   0.00001   0.00000  -0.00055  -0.00055   2.03986
    A4        2.09392  -0.00018   0.00000  -0.00014  -0.00014   2.09378
    A5        2.12857   0.00008   0.00000  -0.00007  -0.00007   2.12850
    A6        2.06069   0.00010   0.00000   0.00021   0.00021   2.06090
    A7        2.13467  -0.00007   0.00000  -0.00008  -0.00008   2.13459
    A8        2.11353   0.00005   0.00000   0.00006   0.00006   2.11359
    A9        2.03493   0.00002   0.00000   0.00002   0.00002   2.03495
   A10        2.17229  -0.00002   0.00000   0.00006   0.00006   2.17236
   A11        2.09963   0.00000   0.00000  -0.00007  -0.00007   2.09956
   A12        2.01126   0.00002   0.00000   0.00001   0.00001   2.01126
   A13        2.11732  -0.00007   0.00000   0.00025   0.00025   2.11757
   A14        2.12143   0.00002   0.00000  -0.00016  -0.00016   2.12127
   A15        2.04443   0.00004   0.00000  -0.00009  -0.00009   2.04434
   A16        2.08348  -0.00011   0.00000   0.00372   0.00372   2.08720
   A17        1.68604  -0.00027   0.00000  -0.02309  -0.02309   1.66294
   A18        2.17186   0.00000   0.00000   0.00000   0.00000   2.17187
   A19        1.99889  -0.00000   0.00000  -0.00002  -0.00002   1.99887
   A20        2.11242   0.00000   0.00000   0.00001   0.00001   2.11243
    D1       -0.02390   0.00003   0.00000   0.00151   0.00151  -0.02239
    D2        3.10586  -0.00003   0.00000   0.00100   0.00100   3.10686
    D3       -3.13858   0.00006   0.00000   0.00107   0.00107  -3.13750
    D4       -0.00882   0.00000   0.00000   0.00056   0.00056  -0.00826
    D5        0.00386   0.00004   0.00000  -0.00031  -0.00031   0.00355
    D6       -3.13601   0.00001   0.00000   0.00001   0.00001  -3.13600
    D7       -3.13702   0.00006   0.00000  -0.00063  -0.00063  -3.13765
    D8        0.00629   0.00004   0.00000  -0.00032  -0.00032   0.00598
    D9       -1.93470   0.00014   0.00000  -0.00647  -0.00647  -1.94117
   D10        1.20621   0.00012   0.00000  -0.00616  -0.00616   1.20005
   D11        1.07788  -0.00017   0.00000   0.00188   0.00188   1.07976
   D12       -2.05238  -0.00011   0.00000   0.00237   0.00237  -2.05002
   D13       -3.11488   0.00001   0.00000  -0.00114  -0.00114  -3.11602
   D14        0.02146   0.00002   0.00000  -0.00095  -0.00095   0.02050
   D15        0.01552  -0.00004   0.00000  -0.00162  -0.00162   0.01390
   D16       -3.13132  -0.00003   0.00000  -0.00144  -0.00144  -3.13276
   D17        0.03912   0.00003   0.00000   0.00298   0.00298   0.04210
   D18       -3.10412   0.00006   0.00000   0.00268   0.00268  -3.10144
   D19       -3.10465   0.00002   0.00000   0.00322   0.00322  -3.10143
   D20        0.03529   0.00005   0.00000   0.00292   0.00292   0.03822
   D21        1.00936  -0.00021   0.00000  -0.00180  -0.00180   1.00756
         Item               Value     Threshold  Converged?
 Maximum Force            0.000270     0.000450     YES
 RMS     Force            0.000075     0.000300     YES
 Maximum Displacement     0.051803     0.001800     NO 
 RMS     Displacement     0.014328     0.001200     NO 
 Predicted change in Energy=-1.316531D-06
 GradGradGradGradGradGradGradGradGradGradGradGradGradGradGradGradGradGrad

                          Input orientation:                          
 ---------------------------------------------------------------------
 Center     Atomic      Atomic             Coordinates (Angstroms)
 Number     Number       Type             X           Y           Z
 ---------------------------------------------------------------------
      1          8           0        1.624208   -0.664072    1.960134
      2          6           0       -0.719678    1.264944    0.921828
      3          6           0        1.370963   -1.247889   -0.834559
      4          6           0       -0.884233    1.470498   -0.388453
      5          6           0        1.335114   -1.770798    1.567947
      6          6           0        1.164035   -2.137512    0.141302
      7          1           0        1.175253   -2.602316    2.295665
      8          1           0        1.675950   -0.227305   -0.587537
      9          1           0        0.863510   -3.166461   -0.076707
     10          1           0        0.223857    1.469110    1.431167
     11          1           0       -1.532866    0.855365    1.531106
     12          1           0       -0.088252    1.874717   -1.021564
     13          6           0       -2.157867    1.144204   -1.056721
     14          8           0       -2.363511    1.281230   -2.238146
     15          1           0        1.244463   -1.505866   -1.888283
     16          1           0       -2.950846    0.741551   -0.375280
 ---------------------------------------------------------------------
                    Distance matrix (angstroms):
                    1          2          3          4          5
     1  O    0.000000
     2  C    3.208267   0.000000
     3  C    2.866231   3.710796   0.000000
     4  C    4.045308   1.336476   3.560133   0.000000
     5  C    1.209227   3.722279   2.459015   4.388507   0.000000
     6  C    2.385568   3.966649   1.336620   4.182556   1.482924
     7  H    2.017655   4.520386   3.416296   5.294694   1.116491
     8  H    2.585356   3.200629   1.093448   3.078426   2.672948
     9  H    3.315017   4.810500   2.124327   4.965196   2.207979
    10  H    2.606003   1.091498   3.719066   2.130465   3.427915
    11  H    3.529854   1.095559   4.295611   2.117503   3.888881
    12  H    4.274165   2.132439   3.451804   1.094445   4.692688
    13  C    5.164820   2.449005   4.268970   1.474854   5.252335
[...]
 ! A2    A(4,2,11)             120.7401         -DE/DX =    0.0                 !
 ! A3    A(10,2,11)            116.913          -DE/DX =    0.0                 !
 ! A4    A(6,3,8)              120.0141         -DE/DX =    0.0                 !
 ! A5    A(6,3,15)             121.9362         -DE/DX =    0.0                 !
 ! A6    A(8,3,15)             118.0497         -DE/DX =    0.0                 !
 ! A7    A(2,4,12)             122.2573         -DE/DX =    0.0                 !
 ! A8    A(2,4,13)             121.0889         -DE/DX =    0.0                 !
 ! A9    A(12,4,13)            116.6501         -DE/DX =    0.0                 !
 ! A10   A(1,5,6)              124.4568         -DE/DX =    0.0                 !
 ! A11   A(1,5,7)              120.3028         -DE/DX =    0.0                 !
 ! A12   A(6,5,7)              115.2404         -DE/DX =    0.0                 !
 ! A13   A(3,6,5)              121.3378         -DE/DX =    0.0                 !
 ! A14   A(3,6,9)              121.5294         -DE/DX =    0.0                 !
 ! A15   A(5,6,9)              117.1326         -DE/DX =    0.0                 !
 ! A16   A(3,8,12)             118.987          -DE/DX =    0.0                 !
 ! A17   A(4,12,8)              95.2183         -DE/DX =    0.0                 !
 ! A18   A(4,13,14)            124.4515         -DE/DX =    0.0                 !
 ! A19   A(4,13,16)            114.5152         -DE/DX =    0.0                 !
 ! A20   A(14,13,16)           121.0327         -DE/DX =    0.0                 !
 ! D1    D(10,2,4,12)           -1.296          -DE/DX =    0.0                 !
 ! D2    D(10,2,4,13)          177.9836         -DE/DX =    0.0                 !
 ! D3    D(11,2,4,12)         -179.7486         -DE/DX =    0.0                 !
 ! D4    D(11,2,4,13)           -0.4689         -DE/DX =    0.0                 !
 ! D5    D(8,3,6,5)              0.276          -DE/DX =    0.0                 !
 ! D6    D(8,3,6,9)           -179.5498         -DE/DX =    0.0                 !
 ! D7    D(15,3,6,5)          -179.793          -DE/DX =    0.0                 !
 ! D8    D(15,3,6,9)             0.3812         -DE/DX =    0.0                 !
 ! D9    D(6,3,8,12)          -109.4842         -DE/DX =    0.0                 !
 ! D10   D(15,3,8,12)           70.5822         -DE/DX =    0.0                 !
 ! D11   D(2,4,12,8)            62.7338         -DE/DX =    0.0                 !
 ! D12   D(13,4,12,8)         -116.576          -DE/DX =    0.0                 !
 ! D13   D(2,4,13,14)         -178.511          -DE/DX =    0.0                 !
 ! D14   D(2,4,13,16)            1.2            -DE/DX =    0.0                 !
 ! D15   D(12,4,13,14)           0.8074         -DE/DX =    0.0                 !
 ! D16   D(12,4,13,16)        -179.4815         -DE/DX =    0.0                 !
 ! D17   D(1,5,6,3)              2.9706         -DE/DX =    0.0                 !
 ! D18   D(1,5,6,9)           -177.1962         -DE/DX =    0.0                 !
 ! D19   D(7,5,6,3)           -177.1416         -DE/DX =    0.0                 !
 ! D20   D(7,5,6,9)              2.6915         -DE/DX =    0.0                 !
 ! D21   D(3,8,12,4)            53.8295         -DE/DX =    0.0                 !
 --------------------------------------------------------------------------------
 GradGradGradGradGradGradGradGradGradGradGradGradGradGradGradGradGradGrad

                          Input orientation:                          
 ---------------------------------------------------------------------
 Center     Atomic      Atomic             Coordinates (Angstroms)
 Number     Number       Type             X           Y           Z
 ---------------------------------------------------------------------
      1          8           0        1.667779   -0.642019    1.940768
      2          6           0       -0.731456    1.237574    0.929312
      3          6           0        1.361393   -1.256917   -0.842080
      4          6           0       -0.883601    1.473024   -0.377397
      5          6           0        1.353312   -1.748355    1.567407
      6          6           0        1.148630   -2.128446    0.148752
      7          1           0        1.194257   -2.568772    2.307818
      8          1           0        1.697600   -0.241541   -0.614649
      9          1           0        0.819219   -3.152289   -0.050869
     10          1           0        0.204763    1.438168    1.453491
     11          1           0       -1.547405    0.805638    1.519244
     12          1           0       -0.084152    1.899740   -0.990983
     13          6           0       -2.146714    1.150699   -1.067332
     14          8           0       -2.341008    1.313594   -2.247375
     15          1           0        1.210540   -1.525364   -1.889979
     16          1           0       -2.943057    0.724666   -0.404228
 ---------------------------------------------------------------------
                    Distance matrix (angstroms):
                    1          2          3          4          5
     1  O    0.000000
     2  C    3.211268   0.000000
     3  C    2.866394   3.706795   0.000000
     4  C    4.044358   1.336440   3.564899   0.000000
     5  C    1.209242   3.697187   2.459107   4.377593   0.000000
     6  C    2.385435   3.933712   1.336630   4.168619   1.482884
     7  H    2.017753   4.482959   3.416249   5.278635   1.116509
     8  H    2.586779   3.236033   1.093502   3.107832   2.674021
     9  H    3.314835   4.757756   2.124242   4.939609   2.207964
    10  H    2.589407   1.091563   3.724369   2.130236   3.389110
    11  H    3.551169   1.095609   4.276808   2.117377   3.865147
    12  H    4.257342   2.131900   3.475091   1.094391   4.681908
    13  C    5.178113   2.448895   4.260771   1.474910   5.253241
    14  O    6.118442   3.561990   4.721245   2.376189   6.129934
    15  H    3.957775   4.399269   1.092205   3.957734   3.467510
    16  H    5.350387   2.632980   4.758853   2.191375   5.334976
                    6          7          8          9         10
     6  C    0.000000
     7  H    2.203981   0.000000
     8  H    2.108212   3.769638   0.000000
     9  H    1.093899   2.458566   3.092225   0.000000
    10  H    3.913306   4.214800   3.054045   4.869594   0.000000
    11  H    4.213752   4.418733   4.022454   4.871483   1.864003
    12  H    4.364062   5.699475   2.810935   5.217557   2.504391
    13  C    4.805304   6.032262   4.113637   5.324064   3.459282
    14  O    5.455882   6.951305   4.625429   5.895404   4.493649
    15  H    2.126962   4.325559   1.874004   2.486432   4.579618
    16  H    5.018759   5.943004   4.744842   5.413904   3.724108
                   11         12         13         14         15
    11  H    0.000000
    12  H    3.104739   0.000000
    13  C    2.677426   2.195690   0.000000
    14  O    3.882685   2.648677   1.206974   0.000000
    15  H    4.966148   3.770379   4.371409   4.560802   0.000000
    16  H    2.377845   3.146175   1.120434   2.026448   4.952016
                   16
    16  H    0.000000
 Stoichiometry    C6H8O2
 Framework group  C1[X(C6H8O2)]
 Deg. of freedom    42
 Full point group                 C1      NOp   1
 Largest Abelian subgroup         C1      NOp   1
 Largest concise Abelian subgroup C1      NOp   1
                         Standard orientation:                         
 ---------------------------------------------------------------------
 Center     Atomic      Atomic             Coordinates (Angstroms)
 Number     Number       Type             X           Y           Z
 ---------------------------------------------------------------------
      1          8           0       -2.394380    1.097579    0.313397
      2          6           0        0.770584    1.553858    0.018341
      3          6           0       -1.234523   -1.506370    0.614064
      4          6           0        1.619267    0.625160    0.469261
      5          6           0       -2.637036    0.202611   -0.462759
      6          6           0       -2.050930   -1.157310   -0.385045
      7          1           0       -3.343379    0.368842   -1.311309
      8          1           0       -0.990023   -0.784533    1.398232
      9          1           0       -2.317863   -1.861667   -1.178293
     10          1           0        0.006780    2.004820    0.654537
     11          1           0        0.799756    1.878535   -1.027649
     12          1           0        1.609347    0.279730    1.507660
     13          6           0        2.612245    0.002040   -0.425767
     14          8           0        3.388789   -0.858820   -0.090081
     15          1           0       -0.794810   -2.504032    0.679130
     16          1           0        2.597271    0.388299   -1.477410
 ---------------------------------------------------------------------
 Rotational constants (GHZ):           3.2882678           0.8374677           0.7185237

 **********************************************************************

            Population analysis using the SCF Density.

 **********************************************************************

 Orbital symmetries:
       Occupied  (A) (A) (A) (A) (A) (A) (A) (A) (A) (A) (A) (A)
                 (A) (A) (A) (A) (A) (A) (A) (A) (A) (A) (A) (A)
                 (A) (A) (A) (A) (A) (A)
       Virtual   (A) (A) (A) (A) (A) (A) (A) (A) (A) (A) (A) (A)
                 (A) (A) (A) (A) (A) (A) (A) (A) (A) (A) (A) (A)
                 (A) (A) (A) (A) (A) (A) (A) (A) (A) (A) (A) (A)
                 (A) (A) (A) (A) (A) (A) (A) (A) (A) (A) (A) (A)
                 (A) (A) (A) (A) (A) (A) (A) (A) (A) (A) (A) (A)
                 (A) (A) (A) (A) (A) (A) (A) (A) (A) (A) (A) (A)
                 (A) (A) (A) (A) (A) (A) (A) (A) (A) (A) (A) (A)
                 (A) (A) (A) (A) (A) (A) (A) (A) (A) (A) (A) (A)
                 (A) (A) (A) (A) (A) (A) (A) (A) (A) (A) (A) (A)
                 (A) (A) (A) (A) (A) (A) (A) (A) (A) (A) (A) (A)
                 (A) (A)
 The electronic state is 1-A.
 Alpha  occ. eigenvalues --  -19.26384 -19.25618 -10.39588 -10.38979 -10.32912
 Alpha  occ. eigenvalues --  -10.32724 -10.31706 -10.31437  -1.14585  -1.13979
 Alpha  occ. eigenvalues --   -0.89252  -0.88850  -0.74998  -0.73159  -0.65856
 Alpha  occ. eigenvalues --   -0.63312  -0.60448  -0.56538  -0.56149  -0.54347
 Alpha  occ. eigenvalues --   -0.51704  -0.50827  -0.49841  -0.49294  -0.47243
 Alpha  occ. eigenvalues --   -0.46735  -0.37902  -0.36701  -0.35116  -0.34447
 Alpha virt. eigenvalues --   -0.00382   0.00707   0.12843   0.13968   0.15084
 Alpha virt. eigenvalues --    0.15550   0.16183   0.19457   0.21161   0.21634
 Alpha virt. eigenvalues --    0.24161   0.24849   0.30087   0.31376   0.36826
 Alpha virt. eigenvalues --    0.38029   0.38727   0.41466   0.42671   0.48598
 Alpha virt. eigenvalues --    0.49840   0.51329   0.52729   0.54289   0.56812
 Alpha virt. eigenvalues --    0.57335   0.60144   0.60768   0.63538   0.66257
 Alpha virt. eigenvalues --    0.68512   0.69743   0.70317   0.71184   0.73514
 Alpha virt. eigenvalues --    0.73664   0.74833   0.75367   0.76583   0.78018
 Alpha virt. eigenvalues --    0.78199   0.79555   0.81663   0.84061   0.88820
 Alpha virt. eigenvalues --    0.90337   0.94313   0.98575   1.07487   1.09577
 Alpha virt. eigenvalues --    1.10089   1.14011   1.19449   1.20459   1.22875
 Alpha virt. eigenvalues --    1.24839   1.26641   1.28659   1.31203   1.33040
 Alpha virt. eigenvalues --    1.34269   1.34890   1.49805   1.51845   1.52755
 Alpha virt. eigenvalues --    1.53563   1.66294   1.67012   1.70304   1.71020
 Alpha virt. eigenvalues --    1.74759   1.77691   1.78412   1.79464   1.81657
 Alpha virt. eigenvalues --    1.82654   1.85155   1.87102   1.88950   1.91011
 Alpha virt. eigenvalues --    1.91777   1.95330   1.97139   1.98968   2.03113
 Alpha virt. eigenvalues --    2.10511   2.11743   2.14809   2.17382   2.18168
 Alpha virt. eigenvalues --    2.20335   2.23246   2.31048   2.36970   2.42635
 Alpha virt. eigenvalues --    2.43724   2.52472   2.53783   2.54107   2.55048
 Alpha virt. eigenvalues --    2.57993   2.59186   2.66721   2.67413   2.78859
 Alpha virt. eigenvalues --    2.79739   2.80699   2.82195   2.85361   2.88166
 Alpha virt. eigenvalues --    2.93868   2.96925   3.05894   3.14868   3.22393
 Alpha virt. eigenvalues --    3.23099   3.24308   3.39478   3.53370   3.58076
 Alpha virt. eigenvalues --    3.69767   3.70464
          Condensed to atoms (all electrons):
               1          2          3          4          5          6
     1  O    7.713778   0.000227   0.011434  -0.001410   0.654768  -0.121155
     2  C    0.000227   4.779735  -0.001110   0.492223   0.000944  -0.001699
     3  C    0.011434  -0.001110   4.676321  -0.001616  -0.020579   0.571452
     4  C   -0.001410   0.492223  -0.001616   5.274536  -0.000896   0.002770
     5  C    0.654768   0.000944  -0.020579  -0.000896   4.567733   0.231894
     6  C   -0.121155  -0.001699   0.571452   0.002770   0.231894   5.259714
     7  H   -0.039695   0.000058   0.012387  -0.000090   0.418239  -0.122873
     8  H    0.015586   0.000824   0.398848   0.001021  -0.015621  -0.033156
     9  H    0.003143   0.000067  -0.031739  -0.000042  -0.025893   0.385338
    10  H    0.010579   0.384813   0.000295  -0.006239  -0.000336  -0.001053
    11  H    0.000058   0.400200  -0.000039  -0.030116   0.000190   0.000045
    12  H   -0.000055  -0.025438  -0.000184   0.375958  -0.000010   0.000123
    13  C   -0.000009  -0.009620   0.000422   0.250584  -0.000011   0.000031
    14  O    0.000000   0.006012  -0.000001  -0.094214   0.000000  -0.000004
    15  H    0.000254   0.000039   0.393386  -0.000140   0.007246  -0.017442
    16  H   -0.000001   0.014847   0.000019  -0.138945  -0.000001   0.000005
               7          8          9         10         11         12
     1  O   -0.039695   0.015586   0.003143   0.010579   0.000058  -0.000055
     2  C    0.000058   0.000824   0.000067   0.384813   0.400200  -0.025438
     3  C    0.012387   0.398848  -0.031739   0.000295  -0.000039  -0.000184
     4  C   -0.000090   0.001021  -0.000042  -0.006239  -0.030116   0.375958
     5  C    0.418239  -0.015621  -0.025893  -0.000336   0.000190  -0.000010
     6  C   -0.122873  -0.033156   0.385338  -0.001053   0.000045   0.000123
     7  H    0.701284   0.001295   0.000026   0.000199   0.000004  -0.000002
     8  H    0.001295   0.583565   0.007291   0.000437   0.000012   0.000542
     9  H    0.000026   0.007291   0.618349  -0.000018  -0.000000  -0.000001
    10  H    0.000199   0.000437  -0.000018   0.559100  -0.034524  -0.010829
    11  H    0.000004   0.000012  -0.000000  -0.034524   0.594376   0.006591
    12  H   -0.000002   0.000542  -0.000001  -0.010829   0.006591   0.606795
    13  C   -0.000000  -0.000278  -0.000004   0.005041  -0.013802  -0.025791
    14  O    0.000000  -0.000023   0.000000  -0.000119   0.000146   0.007194
    15  H   -0.000174  -0.035341  -0.010664   0.000003  -0.000001   0.000050
    16  H   -0.000001  -0.000016  -0.000002  -0.000377   0.007892   0.007952
              13         14         15         16
     1  O   -0.000009   0.000000   0.000254  -0.000001
     2  C   -0.009620   0.006012   0.000039   0.014847
     3  C    0.000422  -0.000001   0.393386   0.000019
     4  C    0.250584  -0.094214  -0.000140  -0.138945
     5  C   -0.000011   0.000000   0.007246  -0.000001
     6  C    0.000031  -0.000004  -0.017442   0.000005
     7  H   -0.000000   0.000000  -0.000174  -0.000001
     8  H   -0.000278  -0.000023  -0.035341  -0.000016
     9  H   -0.000004   0.000000  -0.010664  -0.000002
    10  H    0.005041  -0.000119   0.000003  -0.000377
    11  H   -0.013802   0.000146  -0.000001   0.007892
    12  H   -0.025791   0.007194   0.000050   0.007952
    13  C    4.548265   0.654809   0.000099   0.418198
    14  O    0.654809   7.718600   0.000019  -0.039814
    15  H    0.000099   0.000019   0.580784   0.000008
    16  H    0.418198  -0.039814   0.000008   0.715210
 Mulliken charges:
               1
     1  O   -0.247504
     2  C   -0.042122
     3  C   -0.009296
     4  C   -0.123386
     5  C    0.182333
     6  C   -0.153988
     7  H    0.029342
     8  H    0.075013
     9  H    0.054150
    10  H    0.093027
    11  H    0.068970
    12  H    0.057104
    13  C    0.172064
    14  O   -0.252606
    15  H    0.081872
    16  H    0.015025
 Sum of Mulliken charges =  -0.00000
 Mulliken charges with hydrogens summed into heavy atoms:
               1
     1  O   -0.247504
     2  C    0.119876
     3  C    0.147590
     4  C   -0.066282
     5  C    0.211675
     6  C   -0.099839
    13  C    0.187090
    14  O   -0.252606
 Electronic spatial extent (au):  <R**2>=           1518.3837
 Charge=             -0.0000 electrons
 Dipole moment (field-independent basis, Debye):
    X=             -2.5857    Y=             -0.1903    Z=             -1.4824  Tot=              2.9866
 Quadrupole moment (field-independent basis, Debye-Ang):
   XX=            -59.3290   YY=            -47.2739   ZZ=            -43.6340
   XY=             10.2204   XZ=              3.1287   YZ=             -1.7577
 Traceless Quadrupole moment (field-independent basis, Debye-Ang):
   XX=             -9.2501   YY=              2.8051   ZZ=              6.4450
   XY=             10.2204   XZ=              3.1287   YZ=             -1.7577
 Octapole moment (field-independent basis, Debye-Ang**2):
  XXX=            -52.9880  YYY=             -6.0683  ZZZ=              0.4478  XYY=             -1.5089
  XXY=             10.9560  XXZ=            -16.0202  XZZ=              0.7143  YZZ=              0.6659
  YYZ=             -1.8698  XYZ=             -1.4027
 Hexadecapole moment (field-independent basis, Debye-Ang**3):
 XXXX=          -1581.5295 YYYY=           -366.7389 ZZZZ=           -125.1067 XXXY=             67.7068
 XXXZ=             29.1520 YYYX=             -9.4501 YYYZ=             -1.7667 ZZZX=             -0.3594
 ZZZY=              0.4056 XXYY=           -340.0632 XXZZ=           -244.1121 YYZZ=            -81.9382
 XXYZ=             -4.3700 YYXZ=              2.7645 ZZXY=             -4.2566
 N-N= 3.153743097132D+02 E-N=-1.524499324255D+03  KE= 3.797365979481D+02
 Unable to Open any file for archive entry.
 1\1\GINC-NODE-001\FTS\RwB97XD\def2SVP\C6H8O2\JP2658\22-Dec-2023\0\\# w
 b97xd def2svp geom=allchk scrf=(iefpcm,solvent=toluene) opt=(readfc,ts
 ,noeigen,maxcycles=50,maxstep=10)\\1c_2m_endo_adj_1_reopt2.out\\0,1\O,
 1.6677789225,-0.6420189243,1.9407679783\C,-0.7314561429,1.2375739636,0
 .92931153\C,1.3613933435,-1.2569167963,-0.8420803176\C,-0.8836005638,1
 .4730241589,-0.3773971446\C,1.3533121882,-1.7483547783,1.5674068535\C,
 1.1486302085,-2.128446199,0.1487522724\H,1.194256696,-2.5687722022,2.3
 07817676\H,1.6975997324,-0.2415414875,-0.6146489903\H,0.8192186781,-3.
 1522891923,-0.0508690852\H,0.2047631801,1.4381676461,1.4534913988\H,-1
 .5474045626,0.8056384287,1.5192436842\H,-0.0841522732,1.8997404899,-0.
 9909825694\C,-2.1467143436,1.1506988165,-1.0673315518\O,-2.3410083067,
 1.3135940803,-2.2473749172\H,1.2105404824,-1.5253635249,-1.8899786918\
 H,-2.9430572389,0.7246655208,-0.4042281255\\Version=ES64L-G16RevC.01\S
 tate=1-A\HF=-383.4138577\RMSD=2.658e-09\RMSF=1.882e-06\Dipole=0.268740
 6,-0.9724926,0.6022549\Quadrupole=-1.6536196,5.7170036,-4.0633839,0.90
 39953,-8.4622514,1.9411917\PG=C01 [X(C6H8O2)]\\@
 The archive entry for this job was punched.


 DEMOCRATS BUY MOST OF THE BOOKS THAT HAVE BEEN
 BANNED; REPUBLICANS FORM CENSORSHIP COMMITTEES AND
 READ THEM AS A GROUP.
 Job cpu time:       0 days  0 hours 54 minutes 35.1 seconds.
 Elapsed time:       0 days  0 hours  4 minutes 42.0 seconds.
 File lengths (MBytes):  RWF=     62 Int=      0 D2E=      0 Chk=      7 Scr=      1
 Normal termination of Gaussian 16 at Fri Dec 22 18:03:38 2023.
