Unloading slurm/anatra/current
  ERROR: No such file or directory on
    '/cm/local/modulefiles/slurm/anatra/current'
environment: line 0: unalias: gv: not found
environment: line 0: unalias: sl: not found
 Entering Gaussian System, Link 0=g16
 Initial command:
 /apps/gaussian/g16/C.01/g16/l1.exe "/local/jobs/1153193/Gau-1523414.inp" -scrdir="/local/jobs/1153193/"
 Entering Link 1 = /apps/gaussian/g16/C.01/g16/l1.exe PID=   1523415.
  
 Copyright (c) 1988-2019, Gaussian, Inc.  All Rights Reserved.
  
 This is part of the Gaussian(R) 16 program.  It is based on
 the Gaussian(R) 09 system (copyright 2009, Gaussian, Inc.),
 the Gaussian(R) 03 system (copyright 2003, Gaussian, Inc.),
 the Gaussian(R) 98 system (copyright 1998, Gaussian, Inc.),
 the Gaussian(R) 94 system (copyright 1995, Gaussian, Inc.),
 the Gaussian 92(TM) system (copyright 1992, Gaussian, Inc.),
 the Gaussian 90(TM) system (copyright 1990, Gaussian, Inc.),
 the Gaussian 88(TM) system (copyright 1988, Gaussian, Inc.),
 the Gaussian 86(TM) system (copyright 1986, Carnegie Mellon
 University), and the Gaussian 82(TM) system (copyright 1983,
 Carnegie Mellon University). Gaussian is a federally registered
 trademark of Gaussian, Inc.
  
 This software contains proprietary and confidential information,
 including trade secrets, belonging to Gaussian, Inc.
  
 This software is provided under written license and may be
 used, copied, transmitted, or stored only in accord with that
 written license.
  
 The following legend is applicable only to US Government
 contracts under FAR:
  
                    RESTRICTED RIGHTS LEGEND
  
 Use, reproduction and disclosure by the US Government is
 subject to restrictions as set forth in subparagraphs (a)
 and (c) of the Commercial Computer Software - Restricted
 Rights clause in FAR 52.227-19.
  
 Gaussian, Inc.
 340 Quinnipiac St., Bldg. 40, Wallingford CT 06492
  
  
 ---------------------------------------------------------------
 Warning -- This program may not be used in any manner that
 competes with the business of Gaussian, Inc. or will provide
 assistance to any competitor of Gaussian, Inc.  The licensee
 of this program is prohibited from giving any competitor of
 Gaussian, Inc. access to this program.  By using this program,
 the user acknowledges that Gaussian, Inc. is engaged in the
 business of creating and licensing software in the field of
 computational chemistry and represents and warrants to the
 licensee that it is not a competitor of Gaussian, Inc. and that
 it will not use this program in any manner prohibited above.
 ---------------------------------------------------------------
  

 Cite this work as:
 Gaussian 16, Revision C.01,
 M. J. Frisch, G. W. Trucks, H. B. Schlegel, G. E. Scuseria, 
 M. A. Robb, J. R. Cheeseman, G. Scalmani, V. Barone, 
 G. A. Petersson, H. Nakatsuji, X. Li, M. Caricato, A. V. Marenich, 
 J. Bloino, B. G. Janesko, R. Gomperts, B. Mennucci, H. P. Hratchian, 
 J. V. Ortiz, A. F. Izmaylov, J. L. Sonnenberg, D. Williams-Young, 
 F. Ding, F. Lipparini, F. Egidi, J. Goings, B. Peng, A. Petrone, 
 T. Henderson, D. Ranasinghe, V. G. Zakrzewski, J. Gao, N. Rega, 
 G. Zheng, W. Liang, M. Hada, M. Ehara, K. Toyota, R. Fukuda, 
 J. Hasegawa, M. Ishida, T. Nakajima, Y. Honda, O. Kitao, H. Nakai, 
 T. Vreven, K. Throssell, J. A. Montgomery, Jr., J. E. Peralta, 
 F. Ogliaro, M. J. Bearpark, J. J. Heyd, E. N. Brothers, K. N. Kudin, 
 V. N. Staroverov, T. A. Keith, R. Kobayashi, J. Normand, 
 K. Raghavachari, A. P. Rendell, J. C. Burant, S. S. Iyengar, 
 J. Tomasi, M. Cossi, J. M. Millam, M. Klene, C. Adamo, R. Cammi, 
 J. W. Ochterski, R. L. Martin, K. Morokuma, O. Farkas, 
 J. B. Foresman, and D. J. Fox, Gaussian, Inc., Wallingford CT, 2019.
 
 ******************************************
 Gaussian 16:  ES64L-G16RevC.01  3-Jul-2019
                30-Dec-2023 
 ******************************************
 %chk=da-1_1_opt_dft_re2_freq.chk
 %nprocshared=12
 Will use up to   12 processors via shared memory.
 %mem=48GB
 -----------------------------------------------------------
 # wb97xd def2svp scrf=(iefpcm,solvent=toluene) freq=noraman
 -----------------------------------------------------------
 1/10=4,30=1,38=1/1,3;
 2/12=2,17=6,18=5,40=1/2;
 3/5=43,7=101,11=2,25=1,30=1,70=2201,71=2,72=13,74=-58,140=1/1,2,3;
 4//1;
 5/5=2,38=5,53=13,98=1/2;
 8/6=4,10=90,11=11/1;
 11/6=1,8=1,9=11,15=111,16=1/1,2,10;
 10/6=1/2;
 6/7=2,8=2,9=2,10=2,28=1/1;
 7/8=1,10=1,25=1/1,2,3,16;
 1/10=4,30=1/3;
 99//99;
 ----------------------
 da-1_1_opt_dft_re2.out
 ----------------------
 Symbolic Z-matrix:
 Charge =  0 Multiplicity = 1
 O                    -1.7073    1.23489   0.56375 
 C                     1.48018   1.80646  -0.03493 
 C                    -1.94076  -1.61942   0.42627 
 C                     1.45856   0.4804    0.1304 
 C                    -2.25456   0.68943  -0.3668 
 C                    -2.36492  -0.78124  -0.52487 
 H                    -2.71719   1.29357  -1.18314 
 H                    -1.50559  -1.22989   1.35153 
 H                    -2.8162   -1.15015  -1.45047 
 H                     0.59554   2.4131    0.1718 
 H                     2.38366   2.31983  -0.38196 
 H                     0.55843  -0.0347    0.47698 
 C                     2.64613  -0.3476   -0.14963 
 O                     2.68582  -1.54767  -0.02399 
 H                    -2.01751  -2.70306   0.31502 
 H                     3.54287   0.22543  -0.5004 
 

 GradGradGradGradGradGradGradGradGradGradGradGradGradGradGradGradGradGrad
 Berny optimization.
 Initialization pass.
 Trust Radius=3.00D-01 FncErr=1.00D-07 GrdErr=1.00D-07 EigMax=2.50D+02 EigMin=1.00D-04
 Number of steps in this run=      2 maximum allowed number of steps=      2.
 GradGradGradGradGradGradGradGradGradGradGradGradGradGradGradGradGradGrad

                          Input orientation:                          
 ---------------------------------------------------------------------
 Center     Atomic      Atomic             Coordinates (Angstroms)
 Number     Number       Type             X           Y           Z
 ---------------------------------------------------------------------
      1          8           0       -1.707300    1.234890    0.563750
      2          6           0        1.480180    1.806460   -0.034930
      3          6           0       -1.940760   -1.619420    0.426270
      4          6           0        1.458560    0.480400    0.130400
      5          6           0       -2.254560    0.689430   -0.366800
      6          6           0       -2.364920   -0.781240   -0.524870
      7          1           0       -2.717190    1.293570   -1.183140
      8          1           0       -1.505590   -1.229890    1.351530
      9          1           0       -2.816200   -1.150150   -1.450470
     10          1           0        0.595540    2.413100    0.171800
     11          1           0        2.383660    2.319830   -0.381960
     12          1           0        0.558430   -0.034700    0.476980
     13          6           0        2.646130   -0.347600   -0.149630
     14          8           0        2.685820   -1.547670   -0.023990
     15          1           0       -2.017510   -2.703060    0.315020
     16          1           0        3.542870    0.225430   -0.500400
 ---------------------------------------------------------------------
                    Distance matrix (angstroms):
                    1          2          3          4          5
     1  O    0.000000
     2  C    3.293196   0.000000
     3  C    2.867140   4.863352   0.000000
     4  C    3.283248   1.336502   4.006515   0.000000
     5  C    1.209522   3.912311   2.461345   3.752088   0.000000
     6  C    2.383765   4.660582   1.336834   4.079230   1.483252
     7  H    2.018650   4.381707   3.417390   4.452361   1.115985
     8  H    2.595462   4.478450   1.094172   3.633516   2.682798
     9  H    3.312877   5.404089   2.123385   4.840601   2.207676
    10  H    2.616271   1.092400   4.770617   2.117037   3.374048
    11  H    4.336752   1.095561   5.905212   2.121751   4.916454
    12  H    2.598638   2.121684   2.959706   1.093471   3.024771
    13  C    4.686741   2.452054   4.794658   1.474559   5.013916
    14  O    5.233315   3.564250   4.648992   2.375515   5.434104
    15  H    3.957973   5.717698   1.092036   4.717156   3.468438
    16  H    5.451212   2.640267   5.859385   2.192548   5.817503
                    6          7          8          9         10
     6  C    0.000000
     7  H    2.205051   0.000000
     8  H    2.112016   3.776291   0.000000
     9  H    1.093839   2.460292   3.094392   0.000000
    10  H    4.410610   3.750119   4.367824   5.193119   0.000000
    11  H    5.673277   5.264387   5.543624   6.342004   1.874226
    12  H    3.179151   3.905123   2.540373   4.043194   2.467030
    13  C    5.043756   5.703226   4.502077   5.672153   3.453940
    14  O    5.133057   6.213597   4.422777   5.697815   4.482779
    15  H    2.125912   4.325169   1.872604   2.483222   5.746619
    16  H    5.992993   6.387128   5.570866   6.575152   3.731556
                   11         12         13         14         15
    11  H    0.000000
    12  H    3.100493   0.000000
    13  C    2.690363   2.202053   0.000000
    14  O    3.895767   2.658164   1.207282   0.000000
    15  H    6.714574   3.712390   5.245344   4.855015   0.000000
    16  H    2.396728   3.151162   1.120511   2.026175   6.337096
                   16
    16  H    0.000000
 Stoichiometry    C6H8O2
 Framework group  C1[X(C6H8O2)]
 Deg. of freedom    42
 Full point group                 C1      NOp   1
 Largest Abelian subgroup         C1      NOp   1
 Largest concise Abelian subgroup C1      NOp   1
                         Standard orientation:                         
 ---------------------------------------------------------------------
 Center     Atomic      Atomic             Coordinates (Angstroms)
 Number     Number       Type             X           Y           Z
 ---------------------------------------------------------------------
      1          8           0        1.707299    1.234890   -0.563749
      2          6           0       -1.480182    1.806458    0.034931
      3          6           0        1.940760   -1.619420   -0.426269
      4          6           0       -1.458561    0.480398   -0.130399
      5          6           0        2.254559    0.689430    0.366801
      6          6           0        2.364919   -0.781240    0.524871
      7          1           0        2.717189    1.293570    1.183141
      8          1           0        1.505590   -1.229891   -1.351529
      9          1           0        2.816200   -1.150150    1.450471
     10          1           0       -0.595542    2.413099   -0.171799
     11          1           0       -2.383662    2.319828    0.381961
     12          1           0       -0.558431   -0.034701   -0.476979
     13          6           0       -2.646131   -0.347602    0.149631
     14          8           0       -2.685820   -1.547672    0.023991
     15          1           0        2.017510   -2.703060   -0.315019
     16          1           0       -3.542871    0.225427    0.500401
 ---------------------------------------------------------------------
 Rotational constants (GHZ):           2.6324722           0.9510902           0.7368335
 Standard basis: def2SVP (5D, 7F)
 There are   160 symmetry adapted cartesian basis functions of A   symmetry.
 There are   152 symmetry adapted basis functions of A   symmetry.
   152 basis functions,   256 primitive gaussians,   160 cartesian basis functions
    30 alpha electrons       30 beta electrons
       nuclear repulsion energy       315.5703452571 Hartrees.
 NAtoms=   16 NActive=   16 NUniq=   16 SFac= 1.00D+00 NAtFMM=   60 NAOKFM=F Big=F
 Integral buffers will be    131072 words long.
 Raffenetti 2 integral format.
 Two-electron integral symmetry is turned on.
 Nuclear repulsion after empirical dispersion term =      315.5639224195 Hartrees.
 Force inversion solution in PCM.
 ------------------------------------------------------------------------------
 Polarizable Continuum Model (PCM)
 =================================
 Model                : PCM.
 Atomic radii         : UFF (Universal Force Field).
 Polarization charges : Total charges.
 Charge compensation  : None.
 Solution method      : Matrix inversion.
 Cavity type          : Scaled VdW (van der Waals Surface) (Alpha=1.100).
 Cavity algorithm     : GePol (No added spheres)
                        Default sphere list used, NSphG=   16.
                        Lebedev-Laikov grids with approx.  5.0 points / Ang**2.
                        Smoothing algorithm: York/Karplus (Gamma=1.0000).
                        Polarization charges: spherical gaussians, with
                                              point-specific exponents (IZeta= 3).
                        Self-potential: point-specific (ISelfS= 7).
                        Self-field    : sphere-specific E.n sum rule (ISelfD= 2).
 1st derivatives      : Analytical E(r).r(x)/FMM algorithm (CHGder, D1EAlg=3).
                        Cavity 1st derivative terms included.
 2nd derivatives      : Analytical E(r).r(xy)/FMM algorithm (CHGder, D2EAlg=3).
                        Cavity 2nd derivative terms included.
 Solvent              : Toluene, Eps=   2.374100 Eps(inf)=   2.238315
 ------------------------------------------------------------------------------
 Spheres list:
 ISph  on   Nord     Re0    Alpha      Xe            Ye            Ze
    1   O      1    1.7500  1.100      1.707299      1.234890     -0.563749
    2   C      2    1.9255  1.100     -1.480182      1.806458      0.034931
    3   C      3    1.9255  1.100      1.940760     -1.619420     -0.426269
    4   C      4    1.9255  1.100     -1.458561      0.480398     -0.130399
    5   C      5    1.9255  1.100      2.254559      0.689430      0.366801
    6   C      6    1.9255  1.100      2.364919     -0.781240      0.524871
    7   H      7    1.4430  1.100      2.717189      1.293570      1.183141
    8   H      8    1.4430  1.100      1.505590     -1.229891     -1.351529
    9   H      9    1.4430  1.100      2.816200     -1.150150      1.450471
   10   H     10    1.4430  1.100     -0.595542      2.413099     -0.171799
   11   H     11    1.4430  1.100     -2.383662      2.319828      0.381961
   12   H     12    1.4430  1.100     -0.558431     -0.034701     -0.476979
   13   C     13    1.9255  1.100     -2.646131     -0.347602      0.149631
   14   O     14    1.7500  1.100     -2.685820     -1.547672      0.023991
   15   H     15    1.4430  1.100      2.017510     -2.703060     -0.315019
   16   H     16    1.4430  1.100     -3.542871      0.225427      0.500401
 ------------------------------------------------------------------------------
 One-electron integrals computed using PRISM.
   1 Symmetry operations used in ECPInt.
 ECPInt:  NShTT=    2628 NPrTT=    9444 LenC2=    2569 LenP2D=    7124.
 LDataN:  DoStor=T MaxTD1= 4 Len=   56
 NBasis=   152 RedAO= T EigKep=  2.26D-03  NBF=   152
 NBsUse=   152 1.00D-06 EigRej= -1.00D+00 NBFU=   152
 ExpMin= 1.22D-01 ExpMax= 2.27D+03 ExpMxC= 3.41D+02 IAcc=3 IRadAn=         5 AccDes= 0.00D+00
 Harris functional with IExCor= 4639 and IRadAn=       5 diagonalized for initial guess.
 HarFok:  IExCor= 4639 AccDes= 0.00D+00 IRadAn=         5 IDoV= 1 UseB2=F ITyADJ=14
 ICtDFT=  3500011 ScaDFX=  1.000000  1.000000  1.000000  1.000000
 FoFCou: FMM=F IPFlag=           0 FMFlag=      100000 FMFlg1=           0
         NFxFlg=           0 DoJE=T BraDBF=F KetDBF=T FulRan=T
         wScrn=  0.000000 ICntrl=       500 IOpCl=  0 I1Cent=   200000004 NGrid=           0
         NMat0=    1 NMatS0=      1 NMatT0=    0 NMatD0=    1 NMtDS0=    0 NMtDT0=    0
 Petite list used in FoFCou.
 Requested convergence on RMS density matrix=1.00D-08 within 128 cycles.
 Requested convergence on MAX density matrix=1.00D-06.
 Requested convergence on             energy=1.00D-06.
 No special actions if energy rises.
 Inv3:  Mode=1 IEnd=     6949452.
 Iteration    1 A*A^-1 deviation from unit magnitude is 2.78D-15 for    225.
 Iteration    1 A*A^-1 deviation from orthogonality  is 1.43D-15 for   1180    179.
 Iteration    1 A^-1*A deviation from unit magnitude is 2.66D-15 for    379.
 Iteration    1 A^-1*A deviation from orthogonality  is 1.33D-15 for   1284    999.
 Error on total polarization charges =  0.00522
 SCF Done:  E(RwB97XD) =  -383.414471667     A.U. after   15 cycles
            NFock= 15  Conv=0.40D-08     -V/T= 2.0097
 DoSCS=F DFT=T ScalE2(SS,OS)=  1.000000  1.000000
 Range of M.O.s used for correlation:     1   152
 NBasis=   152 NAE=    30 NBE=    30 NFC=     0 NFV=     0
 NROrb=    152 NOA=    30 NOB=    30 NVA=   122 NVB=   122
   1 Symmetry operations used in ECPInt.
 ECPInt:  NShTT=    2628 NPrTT=    9444 LenC2=    2569 LenP2D=    7124.
 LDataN:  DoStor=T MaxTD1= 5 Len=  102
 Symmetrizing basis deriv contribution to polar:
 IMax=3 JMax=2 DiffMx= 0.00D+00
 G2DrvN: will do    17 centers at a time, making    1 passes.
 Calling FoFCou, ICntrl=  3107 FMM=F I1Cent=   0 AccDes= 0.00D+00.
 NEqPCM:  Using equilibrium solvation (IEInf=0, Eps=   2.3741, EpsInf=   2.2383)
 G2PCM: DoFxE=T DoFxN=T DoGrad=T DoDP/DQ/DG/TGxP=FFFF NFrqRd=   0 IEInf=0 SqF1=F DoCFld=F IF1Alg=4.
 End of G2Drv F.D. properties file   721 does not exist.
 End of G2Drv F.D. properties file   722 does not exist.
 End of G2Drv F.D. properties file   788 does not exist.
          IDoAtm=1111111111111111
 NEqPCM:  Using equilibrium solvation (IEInf=0, Eps=   2.3741, EpsInf=   2.2383)
          Differentiating once with respect to electric field.
                with respect to dipole field.
          Differentiating once with respect to nuclear coordinates.
 Keep R1 ints in memory in canonical form, NReq=148857505.
          There are    51 degrees of freedom in the 1st order CPHF.  IDoFFX=6 NUNeed=     3.
     48 vectors produced by pass  0 Test12= 7.18D-15 1.96D-09 XBig12= 5.16D+01 4.38D+00.
 AX will form    48 AO Fock derivatives at one time.
     48 vectors produced by pass  1 Test12= 7.18D-15 1.96D-09 XBig12= 7.07D+00 4.83D-01.
     48 vectors produced by pass  2 Test12= 7.18D-15 1.96D-09 XBig12= 2.99D-01 9.46D-02.
     48 vectors produced by pass  3 Test12= 7.18D-15 1.96D-09 XBig12= 2.88D-03 6.87D-03.
     48 vectors produced by pass  4 Test12= 7.18D-15 1.96D-09 XBig12= 2.51D-05 5.85D-04.
     48 vectors produced by pass  5 Test12= 7.18D-15 1.96D-09 XBig12= 1.24D-07 4.76D-05.
     36 vectors produced by pass  6 Test12= 7.18D-15 1.96D-09 XBig12= 5.24D-10 2.81D-06.
      5 vectors produced by pass  7 Test12= 7.18D-15 1.96D-09 XBig12= 1.72D-12 1.57D-07.
      3 vectors produced by pass  8 Test12= 7.18D-15 1.96D-09 XBig12= 7.26D-15 1.20D-08.
 InvSVY:  IOpt=1 It=  1 EMax= 7.11D-15
 Solved reduced A of dimension   332 with    51 vectors.
 Isotropic polarizability for W=    0.000000       76.06 Bohr**3.
 End of Minotr F.D. properties file   721 does not exist.
 End of Minotr F.D. properties file   722 does not exist.
 End of Minotr F.D. properties file   788 does not exist.

 **********************************************************************

            Population analysis using the SCF Density.

 **********************************************************************

 Orbital symmetries:
       Occupied  (A) (A) (A) (A) (A) (A) (A) (A) (A) (A) (A) (A)
                 (A) (A) (A) (A) (A) (A) (A) (A) (A) (A) (A) (A)
                 (A) (A) (A) (A) (A) (A)
       Virtual   (A) (A) (A) (A) (A) (A) (A) (A) (A) (A) (A) (A)
                 (A) (A) (A) (A) (A) (A) (A) (A) (A) (A) (A) (A)
                 (A) (A) (A) (A) (A) (A) (A) (A) (A) (A) (A) (A)
                 (A) (A) (A) (A) (A) (A) (A) (A) (A) (A) (A) (A)
                 (A) (A) (A) (A) (A) (A) (A) (A) (A) (A) (A) (A)
                 (A) (A) (A) (A) (A) (A) (A) (A) (A) (A) (A) (A)
                 (A) (A) (A) (A) (A) (A) (A) (A) (A) (A) (A) (A)
                 (A) (A) (A) (A) (A) (A) (A) (A) (A) (A) (A) (A)
                 (A) (A) (A) (A) (A) (A) (A) (A) (A) (A) (A) (A)
                 (A) (A) (A) (A) (A) (A) (A) (A) (A) (A) (A) (A)
                 (A) (A)
 The electronic state is 1-A.
 Alpha  occ. eigenvalues --  -19.26568 -19.25444 -10.39754 -10.38765 -10.33009
 Alpha  occ. eigenvalues --  -10.32408 -10.31866 -10.31011  -1.14771  -1.13774
 Alpha  occ. eigenvalues --   -0.89009  -0.88879  -0.75119  -0.72923  -0.65515
 Alpha  occ. eigenvalues --   -0.63454  -0.60571  -0.56481  -0.55878  -0.54379
 Alpha  occ. eigenvalues --   -0.51869  -0.50772  -0.49474  -0.49147  -0.47178
 Alpha  occ. eigenvalues --   -0.46633  -0.37519  -0.36949  -0.35396  -0.34199
 Alpha virt. eigenvalues --   -0.00603   0.00890   0.13332   0.13614   0.15157
 Alpha virt. eigenvalues --    0.16033   0.17094   0.19318   0.21099   0.22012
 Alpha virt. eigenvalues --    0.23668   0.26633   0.30847   0.31111   0.37323
 Alpha virt. eigenvalues --    0.38664   0.39612   0.41946   0.45915   0.47593
 Alpha virt. eigenvalues --    0.49682   0.52046   0.53993   0.55879   0.57380
 Alpha virt. eigenvalues --    0.58312   0.59711   0.60564   0.63380   0.64635
 Alpha virt. eigenvalues --    0.67736   0.69116   0.69960   0.70494   0.73076
 Alpha virt. eigenvalues --    0.73915   0.74658   0.74772   0.75685   0.76368
 Alpha virt. eigenvalues --    0.78223   0.79069   0.80771   0.86532   0.89286
 Alpha virt. eigenvalues --    0.90998   0.94007   0.98521   1.07215   1.09792
 Alpha virt. eigenvalues --    1.10840   1.18407   1.19983   1.21627   1.23688
 Alpha virt. eigenvalues --    1.26206   1.27641   1.29443   1.32872   1.32984
 Alpha virt. eigenvalues --    1.34096   1.36541   1.50689   1.51458   1.52709
 Alpha virt. eigenvalues --    1.52939   1.65216   1.66139   1.70192   1.70859
 Alpha virt. eigenvalues --    1.75106   1.77580   1.78490   1.79287   1.79838
 Alpha virt. eigenvalues --    1.83024   1.84946   1.87469   1.89567   1.91145
 Alpha virt. eigenvalues --    1.92135   1.94726   1.96284   1.98816   2.02995
 Alpha virt. eigenvalues --    2.10688   2.11286   2.15377   2.16321   2.18642
 Alpha virt. eigenvalues --    2.21295   2.22615   2.30970   2.36682   2.43203
 Alpha virt. eigenvalues --    2.43273   2.52109   2.53769   2.54538   2.55821
 Alpha virt. eigenvalues --    2.58474   2.59169   2.66618   2.67605   2.79285
 Alpha virt. eigenvalues --    2.79943   2.80839   2.81959   2.87974   2.88218
 Alpha virt. eigenvalues --    2.93296   2.97457   3.07137   3.14628   3.22273
 Alpha virt. eigenvalues --    3.23234   3.24009   3.39789   3.53562   3.57998
 Alpha virt. eigenvalues --    3.69779   3.70502
          Condensed to atoms (all electrons):
               1          2          3          4          5          6
     1  O    7.721118  -0.004862   0.010468  -0.001490   0.643180  -0.119124
     2  C   -0.004862   4.774753  -0.000046   0.515485   0.000213   0.000109
     3  C    0.010468  -0.000046   4.673207  -0.001563  -0.023278   0.581538
     4  C   -0.001490   0.515485  -0.001563   5.263265   0.000411   0.000281
     5  C    0.643180   0.000213  -0.023278   0.000411   4.575307   0.231744
     6  C   -0.119124   0.000109   0.581538   0.000281   0.231744   5.241917
     7  H   -0.039717   0.000036   0.011710  -0.000067   0.419471  -0.121500
     8  H    0.012626  -0.000031   0.398769  -0.001499  -0.015690  -0.029826
     9  H    0.003065  -0.000001  -0.031274  -0.000066  -0.025348   0.386283
    10  H    0.013146   0.379151  -0.000070  -0.004859   0.000042   0.000654
    11  H    0.000076   0.397561  -0.000003  -0.030559   0.000013   0.000000
    12  H    0.008786  -0.023312   0.005254   0.363686   0.000593  -0.003656
    13  C    0.000243  -0.014930  -0.000080   0.244598   0.000058  -0.000247
    14  O   -0.000000   0.005933  -0.000001  -0.095900  -0.000007   0.000006
    15  H    0.000276  -0.000001   0.392968   0.000051   0.007194  -0.017185
    16  H   -0.000002   0.013906  -0.000001  -0.136167  -0.000007   0.000002
               7          8          9         10         11         12
     1  O   -0.039717   0.012626   0.003065   0.013146   0.000076   0.008786
     2  C    0.000036  -0.000031  -0.000001   0.379151   0.397561  -0.023312
     3  C    0.011710   0.398769  -0.031274  -0.000070  -0.000003   0.005254
     4  C   -0.000067  -0.001499  -0.000066  -0.004859  -0.030559   0.363686
     5  C    0.419471  -0.015690  -0.025348   0.000042   0.000013   0.000593
     6  C   -0.121500  -0.029826   0.386283   0.000654   0.000000  -0.003656
     7  H    0.697668   0.001030  -0.000044  -0.000583  -0.000003   0.000671
     8  H    0.001030   0.568721   0.006778  -0.000043  -0.000002   0.003959
     9  H   -0.000044   0.006778   0.614633  -0.000023  -0.000000   0.000228
    10  H   -0.000583  -0.000043  -0.000023   0.572948  -0.035672  -0.014546
    11  H   -0.000003  -0.000002  -0.000000  -0.035672   0.600584   0.007245
    12  H    0.000671   0.003959   0.000228  -0.014546   0.007245   0.620984
    13  C    0.000014   0.000075   0.000003   0.005673  -0.013908  -0.026580
    14  O   -0.000000  -0.000031   0.000000  -0.000126   0.000129   0.008523
    15  H   -0.000161  -0.033630  -0.010563  -0.000000   0.000000  -0.000162
    16  H   -0.000000  -0.000003   0.000000  -0.000459   0.007972   0.008651
              13         14         15         16
     1  O    0.000243  -0.000000   0.000276  -0.000002
     2  C   -0.014930   0.005933  -0.000001   0.013906
     3  C   -0.000080  -0.000001   0.392968  -0.000001
     4  C    0.244598  -0.095900   0.000051  -0.136167
     5  C    0.000058  -0.000007   0.007194  -0.000007
     6  C   -0.000247   0.000006  -0.017185   0.000002
     7  H    0.000014  -0.000000  -0.000161  -0.000000
     8  H    0.000075  -0.000031  -0.033630  -0.000003
     9  H    0.000003   0.000000  -0.010563   0.000000
    10  H    0.005673  -0.000126  -0.000000  -0.000459
    11  H   -0.013908   0.000129   0.000000   0.007972
    12  H   -0.026580   0.008523  -0.000162   0.008651
    13  C    4.555097   0.656874   0.000002   0.414222
    14  O    0.656874   7.717537   0.000001  -0.040456
    15  H    0.000002   0.000001   0.577836   0.000000
    16  H    0.414222  -0.040456   0.000000   0.719887
 Mulliken charges:
               1
     1  O   -0.247788
     2  C   -0.043962
     3  C   -0.017598
     4  C   -0.115606
     5  C    0.186103
     6  C   -0.150995
     7  H    0.031474
     8  H    0.088798
     9  H    0.056329
    10  H    0.084767
    11  H    0.066566
    12  H    0.039679
    13  C    0.178886
    14  O   -0.252481
    15  H    0.083373
    16  H    0.012455
 Sum of Mulliken charges =  -0.00000
 Mulliken charges with hydrogens summed into heavy atoms:
               1
     1  O   -0.247788
     2  C    0.107371
     3  C    0.154574
     4  C   -0.075928
     5  C    0.217577
     6  C   -0.094666
    13  C    0.191340
    14  O   -0.252481
 APT charges:
               1
     1  O   -0.761576
     2  C    0.000282
     3  C    0.015363
     4  C   -0.299907
     5  C    0.943510
     6  C   -0.337660
     7  H   -0.065256
     8  H    0.081983
     9  H    0.048960
    10  H    0.094433
    11  H    0.054666
    12  H    0.061142
    13  C    0.952354
    14  O   -0.780541
    15  H    0.065565
    16  H   -0.073321
 Sum of APT charges =   0.00000
 APT charges with hydrogens summed into heavy atoms:
               1
     1  O   -0.761576
     2  C    0.149382
     3  C    0.162912
     4  C   -0.238765
     5  C    0.878254
     6  C   -0.288700
    13  C    0.879033
    14  O   -0.780541
 Electronic spatial extent (au):  <R**2>=           1485.9014
 Charge=             -0.0000 electrons
 Dipole moment (field-independent basis, Debye):
    X=              2.1441    Y=              1.1532    Z=              1.7058  Tot=              2.9727
 Quadrupole moment (field-independent basis, Debye-Ang):
   XX=            -45.1168   YY=            -48.2157   ZZ=            -46.6430
   XY=            -11.6983   XZ=              2.8272   YZ=              2.9253
 Traceless Quadrupole moment (field-independent basis, Debye-Ang):
   XX=              1.5417   YY=             -1.5572   ZZ=              0.0155
   XY=            -11.6983   XZ=              2.8272   YZ=              2.9253
 Octapole moment (field-independent basis, Debye-Ang**2):
  XXX=             10.1614  YYY=              2.6514  ZZZ=             -0.7295  XYY=             12.0982
  XXY=             19.7742  XXZ=             13.1677  XZZ=              2.7013  YZZ=             -3.6236
  YYZ=              1.8010  XYZ=              2.1669
 Hexadecapole moment (field-independent basis, Debye-Ang**3):
 XXXX=          -1319.2998 YYYY=           -468.7930 ZZZZ=            -97.8600 XXXY=            -37.9645
 XXXZ=             14.3598 YYYX=            -32.7957 YYYZ=              4.9918 ZZZX=              0.7246
 ZZZY=             -1.1442 XXYY=           -323.2297 XXZZ=           -229.1216 YYZZ=            -99.4337
 XXYZ=              8.4558 YYXZ=              1.4412 ZZXY=              7.2299
 N-N= 3.155639224195D+02 E-N=-1.525025444689D+03  KE= 3.797370739120D+02
  Exact polarizability:      64.408       4.780     106.998       6.165       9.026      56.785
 Approx polarizability:      58.257       4.200     108.479       7.198       7.296      60.899
   1 Symmetry operations used in ECPInt.
 ECPInt:  NShTT=    2628 NPrTT=    9444 LenC2=    2569 LenP2D=    7124.
 LDataN:  DoStor=T MaxTD1= 6 Len=  172
 D2PCM: PCM CHGder 2nd derivatives, FixD1E=F FixD2E=F DoIter=F DoCFld=F I1PDM=0
 Calling FoFJK, ICntrl=    100127 FMM=F ISym2X=0 I1Cent= 0 IOpClX= 0 NMat=1 NMatS=1 NMatT=0.
 Full mass-weighted force constant matrix:
 Low frequencies ---  -22.2540   -8.5897    0.0007    0.0010    0.0012    4.0441
 Low frequencies ---    7.8889   28.3116   38.1217
 ******    1 imaginary frequencies (negative Signs) ****** 
 Diagonal vibrational polarizability:
      268.7840552      25.5678499     324.1200232
 Harmonic frequencies (cm**-1), IR intensities (KM/Mole), Raman scattering
 activities (A**4/AMU), depolarization ratios for plane and unpolarized
 incident light, reduced masses (AMU), force constants (mDyne/A),
 and normal coordinates:
                      1                      2                      3
                      A                      A                      A
 Frequencies --    -22.2087                28.2620                38.0428
 Red. masses --      4.0238                 4.2951                 3.6833
 Frc consts  --      0.0012                 0.0020                 0.0031
 IR Inten    --      4.9569                 5.5432                 4.6650
  Atom  AN      X      Y      Z        X      Y      Z        X      Y      Z
     1   8    -0.04  -0.07  -0.13    -0.10  -0.08  -0.01     0.08   0.02  -0.16
     2   6    -0.06   0.07   0.21    -0.04  -0.01   0.11     0.21  -0.12   0.13
     3   6    -0.16  -0.07   0.17     0.15  -0.05   0.14     0.09   0.04   0.02
     4   6     0.01   0.10  -0.02    -0.08  -0.01   0.07     0.05  -0.11  -0.01
     5   6    -0.00   0.01  -0.11     0.14   0.03  -0.09    -0.13   0.07  -0.01
     6   6    -0.07   0.02   0.06     0.29   0.05  -0.02    -0.11   0.08   0.07
     7   1     0.08   0.08  -0.21     0.26   0.12  -0.23    -0.35   0.12   0.09
     8   1    -0.18  -0.16   0.15    -0.09  -0.15   0.21     0.25  -0.00  -0.07
     9   1    -0.04   0.11   0.08     0.53   0.15  -0.09    -0.28   0.13   0.17
    10   1    -0.14   0.17   0.18     0.00  -0.04   0.19     0.24  -0.19   0.08
    11   1    -0.05  -0.05   0.42    -0.04   0.01   0.06     0.31  -0.06   0.30
    12   1     0.00   0.23  -0.24    -0.07  -0.03   0.12    -0.06  -0.17  -0.18
    13   6     0.11  -0.04   0.02    -0.14   0.03  -0.06    -0.01  -0.00   0.06
    14   8     0.19  -0.02  -0.17    -0.19   0.04  -0.12    -0.17   0.02  -0.08
    15   1    -0.20  -0.06   0.30     0.26  -0.04   0.19     0.10   0.04   0.07
    16   1     0.12  -0.16   0.23    -0.14   0.06  -0.10     0.10   0.06   0.25
                      4                      5                      6
                      A                      A                      A
 Frequencies --     58.8937                89.1495               104.0215
 Red. masses --      3.6920                 2.3199                 4.2266
 Frc consts  --      0.0075                 0.0109                 0.0269
 IR Inten    --      0.3236                 4.8850                 6.7179
  Atom  AN      X      Y      Z        X      Y      Z        X      Y      Z
     1   8    -0.15  -0.12  -0.01     0.10  -0.03  -0.11     0.30   0.02  -0.04
     2   6    -0.05   0.10  -0.00    -0.09   0.04   0.06    -0.23   0.03   0.01
     3   6     0.28  -0.08  -0.06     0.08  -0.02  -0.03     0.08   0.01  -0.02
     4   6    -0.03   0.11  -0.07     0.01   0.03   0.20    -0.19   0.05  -0.13
     5   6    -0.21  -0.06   0.06    -0.03  -0.01  -0.02     0.13  -0.02   0.03
     6   6     0.04  -0.04   0.01    -0.07  -0.01   0.03     0.03  -0.03   0.04
     7   1    -0.47  -0.01   0.17    -0.14   0.01   0.02     0.05  -0.06   0.10
     8   1     0.29  -0.11  -0.08     0.22  -0.03  -0.10     0.20   0.05  -0.06
     9   1     0.01  -0.00   0.04    -0.21   0.01   0.11    -0.10  -0.07   0.08
    10   1    -0.10   0.14  -0.08    -0.06   0.06   0.25    -0.31   0.11  -0.14
    11   1    -0.02   0.05   0.15    -0.22   0.05  -0.28    -0.17  -0.05   0.29
    12   1    -0.05   0.16  -0.22     0.13   0.02   0.52    -0.24   0.14  -0.40
    13   6     0.04   0.05   0.06    -0.05   0.01  -0.10    -0.08  -0.04   0.11
    14   8     0.08   0.05   0.02     0.04  -0.01   0.01    -0.07  -0.02   0.00
    15   1     0.47  -0.07  -0.10     0.06  -0.02   0.00     0.00   0.00  -0.03
    16   1     0.07   0.00   0.20    -0.20   0.01  -0.47    -0.01  -0.11   0.41
                      7                      8                      9
                      A                      A                      A
 Frequencies --    176.2114               185.4785               293.4756
 Red. masses --      3.2411                 1.8920                 3.5037
 Frc consts  --      0.0593                 0.0383                 0.1778
 IR Inten    --      4.4886                15.3273                 8.6952
  Atom  AN      X      Y      Z        X      Y      Z        X      Y      Z
     1   8     0.03   0.00  -0.02    -0.10   0.01   0.06     0.04   0.27   0.06
     2   6     0.06  -0.03   0.17     0.01  -0.01   0.04    -0.01  -0.00   0.00
     3   6    -0.03   0.01   0.01     0.10  -0.01  -0.03     0.05  -0.29   0.07
     4   6    -0.06   0.02  -0.21    -0.01   0.00  -0.05     0.01  -0.00   0.00
     5   6    -0.03   0.00   0.02     0.13   0.00  -0.08    -0.05   0.02  -0.04
     6   6     0.04   0.00  -0.02    -0.13  -0.00   0.06    -0.05  -0.01  -0.13
     7   1    -0.17   0.00   0.10     0.57   0.00  -0.33    -0.05  -0.17   0.10
     8   1    -0.14   0.01   0.06     0.45  -0.02  -0.20    -0.05  -0.67  -0.05
     9   1     0.13   0.00  -0.06    -0.42   0.00   0.20    -0.01   0.13  -0.10
    10   1     0.12  -0.05   0.37     0.01   0.00   0.06    -0.02   0.02   0.01
    11   1     0.11  -0.04   0.33     0.02  -0.03   0.09    -0.02  -0.02  -0.00
    12   1    -0.09   0.03  -0.29    -0.01   0.02  -0.09     0.02   0.01   0.00
    13   6    -0.07   0.02  -0.22    -0.01   0.01  -0.03     0.01   0.00  -0.00
    14   8     0.05  -0.02   0.20    -0.01   0.00   0.04    -0.01   0.00   0.00
    15   1     0.01   0.01  -0.01    -0.03  -0.01   0.05     0.24  -0.25   0.39
    16   1    -0.18   0.07  -0.57    -0.01   0.03  -0.06     0.01   0.02  -0.01
                     10                     11                     12
                      A                      A                      A
 Frequencies --    325.8821               566.0938               580.7458
 Red. masses --      2.6776                 1.2514                 4.7359
 Frc consts  --      0.1675                 0.2363                 0.9411
 IR Inten    --     11.0857                12.5750                 9.9987
  Atom  AN      X      Y      Z        X      Y      Z        X      Y      Z
     1   8     0.00  -0.01  -0.01     0.03   0.01  -0.02     0.00   0.00  -0.00
     2   6    -0.16  -0.06   0.04     0.00   0.00  -0.00    -0.09  -0.27  -0.00
     3   6    -0.01   0.01  -0.00     0.02   0.01  -0.01     0.00  -0.00   0.00
     4   6     0.22  -0.04  -0.06     0.00   0.00   0.00    -0.05  -0.20  -0.02
     5   6    -0.01  -0.00   0.01    -0.02  -0.01  -0.00     0.00  -0.00  -0.00
     6   6     0.01   0.00  -0.00    -0.12  -0.01   0.07    -0.01  -0.00   0.01
     7   1    -0.04   0.01   0.02     0.31  -0.02  -0.18     0.03  -0.00  -0.01
     8   1    -0.02   0.03   0.01    -0.40   0.03   0.20    -0.02   0.01   0.02
     9   1     0.03  -0.01  -0.01     0.36   0.00  -0.16     0.02  -0.00  -0.01
    10   1    -0.38   0.29   0.15    -0.00   0.00  -0.01    -0.19  -0.09   0.11
    11   1    -0.37  -0.43   0.04     0.01   0.01   0.01    -0.22  -0.49  -0.03
    12   1     0.31   0.13  -0.06     0.00   0.01  -0.00    -0.21  -0.51   0.04
    13   6     0.17   0.03  -0.05     0.00  -0.00  -0.00    -0.11   0.22   0.06
    14   8    -0.15   0.04   0.05    -0.00  -0.00   0.00     0.23   0.25  -0.04
    15   1    -0.01   0.01  -0.02     0.62   0.02  -0.32     0.04  -0.00  -0.02
    16   1     0.29   0.26  -0.07     0.00   0.00  -0.01    -0.14   0.14   0.11
                     13                     14                     15
                      A                      A                      A
 Frequencies --    625.8852               693.7150               928.5569
 Red. masses --      1.1756                 2.6656                 1.5145
 Frc consts  --      0.2713                 0.7558                 0.7693
 IR Inten    --     10.0837                12.6816                29.6200
  Atom  AN      X      Y      Z        X      Y      Z        X      Y      Z
     1   8     0.00  -0.00  -0.00    -0.03   0.18  -0.04    -0.00  -0.00  -0.00
     2   6     0.01   0.00   0.02     0.00   0.00  -0.00     0.11   0.07  -0.03
     3   6    -0.00  -0.00  -0.00     0.03  -0.00   0.06    -0.00  -0.01  -0.00
     4   6    -0.03   0.02  -0.11     0.00   0.00  -0.00     0.07   0.03  -0.02
     5   6    -0.00   0.00  -0.00    -0.08  -0.11  -0.15     0.00   0.01   0.00
     6   6    -0.00   0.00   0.00     0.10  -0.16   0.14     0.00  -0.01   0.00
     7   1    -0.00   0.00  -0.00    -0.09  -0.18  -0.09     0.01   0.02  -0.00
     8   1    -0.01  -0.00   0.00     0.16   0.59   0.25     0.00   0.01   0.00
     9   1     0.00   0.00  -0.00     0.08   0.05   0.24     0.00  -0.01  -0.00
    10   1     0.20  -0.07   0.61     0.00   0.00   0.01    -0.25   0.65   0.15
    11   1    -0.15   0.07  -0.49    -0.00  -0.00  -0.01    -0.20  -0.50   0.01
    12   1     0.11  -0.03   0.34    -0.00  -0.00   0.00    -0.09  -0.28   0.00
    13   6     0.01  -0.01   0.02     0.00  -0.00  -0.00    -0.13  -0.03   0.04
    14   8    -0.00  -0.01   0.00    -0.00  -0.00   0.00     0.00  -0.04  -0.01
    15   1     0.01   0.00  -0.00    -0.31  -0.08  -0.45    -0.00  -0.01  -0.02
    16   1     0.13  -0.05   0.40     0.00   0.00   0.00    -0.21  -0.15   0.05
                     16                     17                     18
                      A                      A                      A
 Frequencies --    950.1253              1015.0792              1026.5853
 Red. masses --      2.9411                 1.2421                 1.2781
 Frc consts  --      1.5643                 0.7541                 0.7936
 IR Inten    --     71.1704                56.6988                 1.2640
  Atom  AN      X      Y      Z        X      Y      Z        X      Y      Z
     1   8    -0.03  -0.00  -0.05    -0.00  -0.00   0.00    -0.02  -0.01   0.02
     2   6    -0.01  -0.00   0.01    -0.04   0.02  -0.12     0.00   0.00   0.00
     3   6    -0.01  -0.18  -0.04    -0.00  -0.00   0.00    -0.10  -0.01   0.05
     4   6    -0.01  -0.00  -0.00    -0.01   0.00  -0.03     0.00  -0.00   0.00
     5   6     0.05   0.32   0.11     0.01  -0.00  -0.00     0.08   0.00  -0.04
     6   6     0.02  -0.15   0.05    -0.00   0.00   0.00     0.05   0.01  -0.03
     7   1    -0.01   0.58  -0.06    -0.03  -0.00   0.02    -0.29  -0.01   0.18
     8   1    -0.00   0.14   0.07     0.00   0.00   0.00     0.06   0.05   0.00
     9   1    -0.02  -0.37  -0.01    -0.00   0.01   0.00    -0.50   0.05   0.25
    10   1     0.01  -0.05  -0.03     0.14  -0.05   0.44    -0.00  -0.00  -0.00
    11   1     0.02   0.05   0.01     0.22  -0.08   0.70    -0.01   0.00  -0.02
    12   1     0.01   0.01   0.03     0.12  -0.06   0.39    -0.01  -0.00  -0.03
    13   6     0.01   0.00  -0.00     0.02  -0.01   0.06    -0.00   0.00  -0.00
    14   8    -0.00   0.00   0.00    -0.01   0.00  -0.02     0.00  -0.00   0.00
    15   1    -0.19  -0.24  -0.47     0.02  -0.00  -0.01     0.64   0.00  -0.35
    16   1     0.02   0.01  -0.00    -0.06   0.02  -0.20     0.00  -0.00   0.01
                     19                     20                     21
                      A                      A                      A
 Frequencies --   1031.0558              1046.0399              1051.5898
 Red. masses --      1.1295                 1.6226                 1.2701
 Frc consts  --      0.7075                 1.0461                 0.8275
 IR Inten    --     55.6273                 0.3177                 1.5053
  Atom  AN      X      Y      Z        X      Y      Z        X      Y      Z
     1   8     0.00  -0.00  -0.00    -0.00  -0.00   0.00    -0.00  -0.00   0.00
     2   6    -0.00   0.00   0.00     0.03  -0.01   0.10     0.01  -0.00   0.02
     3   6    -0.09  -0.01   0.04     0.00   0.00   0.00     0.01  -0.00  -0.00
     4   6     0.00   0.00  -0.00    -0.05   0.02  -0.14    -0.01   0.00  -0.01
     5   6    -0.00   0.00   0.01     0.00  -0.00  -0.00     0.02  -0.00  -0.01
     6   6    -0.02   0.00   0.01    -0.00   0.00  -0.00    -0.01   0.01   0.00
     7   1    -0.02   0.00   0.02    -0.02  -0.01   0.02    -0.07  -0.01   0.04
     8   1     0.73   0.04  -0.32    -0.01   0.01   0.01    -0.01   0.02   0.02
     9   1     0.50   0.02  -0.24    -0.00   0.02   0.01     0.03   0.03  -0.01
    10   1    -0.00  -0.00  -0.01    -0.16   0.06  -0.50    -0.13   0.05  -0.41
    11   1     0.00   0.01  -0.00    -0.04   0.02  -0.14     0.09  -0.03   0.30
    12   1     0.00  -0.00   0.00     0.16  -0.09   0.56     0.16  -0.09   0.54
    13   6    -0.00  -0.00   0.00     0.05  -0.02   0.13    -0.04   0.02  -0.14
    14   8     0.00   0.00  -0.00    -0.01   0.00  -0.03     0.01  -0.00   0.03
    15   1     0.17  -0.01  -0.10     0.00   0.00  -0.00    -0.02  -0.01  -0.01
    16   1    -0.00  -0.00  -0.00    -0.15   0.06  -0.51     0.19  -0.06   0.56
                     22                     23                     24
                      A                      A                      A
 Frequencies --   1054.5429              1069.1989              1165.9205
 Red. masses --      1.7512                 1.5625                 1.8046
 Frc consts  --      1.1474                 1.0524                 1.4453
 IR Inten    --      2.2148                 4.2521                39.5196
  Atom  AN      X      Y      Z        X      Y      Z        X      Y      Z
     1   8     0.03   0.02  -0.03     0.04  -0.05   0.02     0.00   0.00  -0.00
     2   6     0.00  -0.00   0.00    -0.00   0.00  -0.00    -0.03  -0.04   0.00
     3   6    -0.07   0.04   0.01     0.01  -0.10   0.04    -0.00  -0.00  -0.00
     4   6    -0.00   0.00  -0.01    -0.00   0.00   0.00     0.15  -0.01  -0.05
     5   6    -0.17  -0.01   0.08    -0.06  -0.00   0.06    -0.00  -0.00   0.00
     6   6     0.14  -0.04  -0.02    -0.01   0.11  -0.11     0.00   0.00   0.00
     7   1     0.62   0.04  -0.40     0.33  -0.11  -0.08    -0.01   0.00   0.00
     8   1     0.13  -0.17  -0.16     0.10   0.39   0.20    -0.01  -0.00   0.00
     9   1    -0.34  -0.25   0.13    -0.06   0.60   0.10    -0.00   0.02   0.01
    10   1    -0.02   0.01  -0.06     0.00  -0.00   0.01     0.05  -0.17  -0.05
    11   1     0.02  -0.00   0.06     0.00   0.00   0.01     0.08   0.15   0.01
    12   1     0.04  -0.01   0.11    -0.01  -0.01  -0.00     0.56   0.69  -0.04
    13   6    -0.00   0.00  -0.01     0.00  -0.00  -0.00    -0.20  -0.01   0.06
    14   8     0.00  -0.00   0.00    -0.00   0.00   0.00     0.03   0.01  -0.01
    15   1     0.27   0.07   0.10    -0.21  -0.16  -0.42    -0.01  -0.00  -0.02
    16   1     0.02  -0.01   0.06     0.00   0.00  -0.00    -0.25  -0.09   0.07
                     25                     26                     27
                      A                      A                      A
 Frequencies --   1283.6970              1303.2682              1387.8039
 Red. masses --      1.5949                 1.2889                 1.1632
 Frc consts  --      1.5485                 1.2898                 1.3200
 IR Inten    --     10.5096                 3.5419                24.1960
  Atom  AN      X      Y      Z        X      Y      Z        X      Y      Z
     1   8     0.00   0.00  -0.00     0.01  -0.00   0.01     0.00  -0.00   0.00
     2   6     0.11  -0.07  -0.04    -0.01   0.01   0.00     0.01   0.01  -0.00
     3   6    -0.00  -0.00  -0.01    -0.05   0.01  -0.10     0.00   0.00   0.00
     4   6    -0.17   0.02   0.05     0.01  -0.00  -0.00    -0.03  -0.09  -0.00
     5   6     0.00  -0.00   0.00     0.00   0.01   0.00    -0.00   0.00  -0.00
     6   6     0.00  -0.00   0.01     0.04  -0.05   0.09     0.00  -0.00  -0.00
     7   1    -0.01   0.02  -0.01    -0.04   0.16  -0.07    -0.00  -0.00   0.00
     8   1     0.00  -0.03  -0.02    -0.11  -0.43  -0.27    -0.00  -0.00  -0.00
     9   1     0.01   0.05   0.02     0.16   0.71   0.35     0.00   0.00   0.00
    10   1    -0.02   0.12   0.02     0.00  -0.00  -0.00    -0.25   0.46   0.13
    11   1    -0.15  -0.55  -0.01     0.01   0.03  -0.00     0.22   0.42  -0.02
    12   1     0.21   0.73   0.04    -0.02  -0.05  -0.01     0.06   0.07  -0.01
    13   6     0.05  -0.00  -0.01    -0.00   0.00   0.00    -0.05  -0.01   0.01
    14   8    -0.00   0.01   0.00    -0.00  -0.00   0.00     0.03  -0.03  -0.01
    15   1    -0.00  -0.00  -0.02    -0.04  -0.00  -0.09    -0.00   0.00  -0.00
    16   1     0.12   0.12  -0.02    -0.01  -0.01   0.00     0.31   0.60  -0.03
                     28                     29                     30
                      A                      A                      A
 Frequencies --   1413.8739              1441.0959              1443.8694
 Red. masses --      1.1613                 1.2863                 1.2294
 Frc consts  --      1.3677                 1.5740                 1.5101
 IR Inten    --     33.1121                25.9374                15.5818
  Atom  AN      X      Y      Z        X      Y      Z        X      Y      Z
     1   8     0.01   0.00   0.02     0.04   0.00   0.07     0.00   0.00   0.00
     2   6    -0.00  -0.00  -0.00     0.00  -0.00  -0.00    -0.01   0.04   0.01
     3   6    -0.02  -0.01  -0.04     0.01  -0.01   0.03     0.00  -0.00   0.00
     4   6     0.00   0.00  -0.00    -0.00  -0.00  -0.00     0.04   0.06  -0.00
     5   6     0.00   0.00   0.01    -0.02  -0.10  -0.03    -0.00  -0.01  -0.00
     6   6    -0.02  -0.09  -0.05    -0.01   0.06  -0.02    -0.00   0.01   0.00
     7   1    -0.09   0.30  -0.16    -0.30   0.72  -0.51    -0.02   0.04  -0.03
     8   1     0.06   0.54   0.16    -0.00  -0.11  -0.01    -0.00  -0.01  -0.00
     9   1     0.03   0.27   0.07    -0.04  -0.14  -0.10    -0.00  -0.01  -0.01
    10   1     0.00  -0.01  -0.00    -0.02   0.03   0.01     0.26  -0.41  -0.13
    11   1    -0.00  -0.00  -0.00     0.02   0.03  -0.00    -0.23  -0.36   0.03
    12   1     0.00   0.01  -0.00     0.00  -0.00   0.00    -0.07  -0.14   0.01
    13   6    -0.00  -0.00   0.00     0.01   0.00  -0.00    -0.08  -0.01   0.02
    14   8     0.00  -0.00  -0.00    -0.00   0.00   0.00     0.03  -0.06  -0.01
    15   1     0.28   0.09   0.61    -0.10  -0.04  -0.22    -0.01  -0.00  -0.02
    16   1     0.00   0.01  -0.00    -0.02  -0.04   0.00     0.29   0.65  -0.02
                     31                     32                     33
                      A                      A                      A
 Frequencies --   1711.1313              1720.3674              1843.5269
 Red. masses --      5.2164                 5.0179                 8.9774
 Frc consts  --      8.9989                 8.7501                17.9763
 IR Inten    --     81.7475                 7.9809               118.0066
  Atom  AN      X      Y      Z        X      Y      Z        X      Y      Z
     1   8    -0.03   0.04  -0.05     0.00  -0.00   0.00    -0.19   0.19  -0.33
     2   6     0.00   0.04   0.00    -0.01  -0.40  -0.05    -0.00  -0.00   0.00
     3   6    -0.12  -0.26  -0.27    -0.01  -0.03  -0.03     0.04   0.06   0.08
     4   6    -0.01  -0.05  -0.00     0.06   0.43   0.03    -0.00  -0.01  -0.00
     5   6     0.04  -0.12   0.05    -0.00  -0.00  -0.01     0.28  -0.31   0.48
     6   6     0.11   0.34   0.26     0.01   0.04   0.03    -0.05  -0.05  -0.11
     7   1     0.00  -0.07   0.02     0.00  -0.02   0.00     0.01   0.46   0.01
     8   1    -0.05   0.50  -0.05    -0.00   0.05  -0.01     0.02  -0.13   0.05
     9   1     0.03  -0.39   0.07     0.00  -0.05   0.01    -0.02   0.27  -0.03
    10   1     0.04  -0.01  -0.01    -0.41   0.13   0.15    -0.02   0.03   0.00
    11   1    -0.04  -0.02   0.01     0.43   0.27  -0.10     0.01   0.01  -0.00
    12   1     0.03   0.01  -0.01    -0.32  -0.14   0.08     0.00   0.01   0.00
    13   6     0.00  -0.00  -0.00    -0.02   0.04   0.01     0.02   0.18   0.01
    14   8     0.00   0.01   0.00    -0.01  -0.08  -0.01    -0.01  -0.12  -0.01
    15   1     0.16  -0.24   0.34     0.02  -0.03   0.03    -0.06   0.05  -0.14
    16   1    -0.01  -0.02  -0.00     0.03   0.16   0.01    -0.10  -0.04   0.03
                     34                     35                     36
                      A                      A                      A
 Frequencies --   1857.1945              2913.1419              2961.6709
 Red. masses --      9.9765                 1.0854                 1.0865
 Frc consts  --     20.2741                 5.4269                 5.6151
 IR Inten    --    383.5875               118.8148               135.8028
  Atom  AN      X      Y      Z        X      Y      Z        X      Y      Z
     1   8     0.06  -0.06   0.09    -0.00   0.00  -0.00    -0.00   0.00  -0.00
     2   6    -0.01   0.04   0.01    -0.00  -0.00  -0.00    -0.00   0.00   0.00
     3   6    -0.01  -0.01  -0.02    -0.00   0.00  -0.00    -0.00  -0.00  -0.00
     4   6    -0.03  -0.12  -0.01     0.00   0.00  -0.00     0.00  -0.00  -0.00
     5   6    -0.08   0.09  -0.14    -0.00  -0.00  -0.00    -0.03  -0.05  -0.06
     6   6     0.01   0.01   0.03    -0.00   0.00   0.00     0.00   0.00   0.00
     7   1    -0.00  -0.13  -0.00     0.00   0.01   0.01     0.41   0.56   0.72
     8   1    -0.00   0.04  -0.01     0.00  -0.00   0.00     0.00   0.00   0.01
     9   1     0.01  -0.07   0.01     0.00  -0.00   0.00    -0.02   0.00  -0.03
    10   1     0.04  -0.01  -0.01     0.00  -0.00  -0.00    -0.00  -0.00   0.00
    11   1    -0.05  -0.04   0.01    -0.01  -0.00   0.00     0.00  -0.00  -0.00
    12   1     0.12   0.19  -0.02    -0.00   0.00   0.00    -0.00   0.00   0.00
    13   6     0.08   0.68   0.05    -0.07   0.04   0.03     0.00  -0.00  -0.00
    14   8    -0.02  -0.45  -0.05     0.00   0.00  -0.00    -0.00  -0.00   0.00
    15   1     0.02  -0.01   0.04     0.00   0.00  -0.00    -0.00   0.00  -0.00
    16   1    -0.37  -0.18   0.10     0.81  -0.49  -0.31    -0.01   0.00   0.00
                     37                     38                     39
                      A                      A                      A
 Frequencies --   3154.7845              3168.5408              3206.7760
 Red. masses --      1.0632                 1.0605                 1.0972
 Frc consts  --      6.2348                 6.2729                 6.6480
 IR Inten    --      6.9752                 2.8773                 5.0512
  Atom  AN      X      Y      Z        X      Y      Z        X      Y      Z
     1   8    -0.00   0.00  -0.00     0.00  -0.00   0.00    -0.00   0.00  -0.00
     2   6    -0.02   0.07   0.01     0.00  -0.00  -0.00    -0.00   0.00   0.00
     3   6    -0.00  -0.00  -0.00    -0.02  -0.04  -0.05     0.01   0.00   0.02
     4   6    -0.01  -0.01   0.00    -0.00   0.00   0.00     0.00  -0.00  -0.00
     5   6     0.00   0.00   0.00    -0.00   0.00  -0.00    -0.00  -0.00  -0.00
     6   6    -0.00   0.00  -0.00    -0.00   0.01  -0.01    -0.04   0.03  -0.08
     7   1    -0.00  -0.00  -0.00    -0.00  -0.00  -0.00     0.01   0.02   0.02
     8   1     0.00  -0.00   0.00     0.30  -0.27   0.63    -0.07   0.07  -0.16
     9   1     0.00  -0.00   0.00     0.07  -0.06   0.15     0.40  -0.33   0.83
    10   1    -0.46  -0.31   0.11     0.00   0.00  -0.00     0.00   0.00  -0.00
    11   1     0.68  -0.38  -0.26    -0.01   0.00   0.00     0.00  -0.00  -0.00
    12   1     0.06  -0.03  -0.02     0.00  -0.00  -0.00    -0.02   0.01   0.01
    13   6    -0.00  -0.00   0.00     0.00  -0.00  -0.00    -0.00  -0.00  -0.00
    14   8     0.00   0.00   0.00    -0.00   0.00   0.00     0.00  -0.00   0.00
    15   1    -0.00   0.00  -0.00    -0.05   0.63  -0.07     0.00  -0.04   0.00
    16   1     0.01   0.00  -0.00    -0.00   0.00   0.00    -0.00   0.00   0.00
                     40                     41                     42
                      A                      A                      A
 Frequencies --   3222.3980              3272.5660              3280.8029
 Red. masses --      1.0950                 1.1171                 1.1187
 Frc consts  --      6.6990                 7.0488                 7.0943
 IR Inten    --      1.0366                 0.6445                 0.2874
  Atom  AN      X      Y      Z        X      Y      Z        X      Y      Z
     1   8    -0.00   0.00   0.00    -0.00   0.00   0.00    -0.00   0.00  -0.00
     2   6     0.01  -0.01  -0.01    -0.09  -0.02   0.03     0.00   0.00  -0.00
     3   6     0.00   0.00   0.00     0.00  -0.00   0.00     0.02  -0.08   0.05
     4   6    -0.07   0.04   0.03    -0.01   0.01   0.00     0.00  -0.00  -0.00
     5   6    -0.00  -0.00  -0.00    -0.00  -0.00  -0.00     0.00   0.00   0.00
     6   6    -0.00   0.00  -0.00    -0.00   0.00   0.00     0.00  -0.00   0.01
     7   1     0.00   0.00   0.00     0.00   0.00   0.00     0.00   0.00   0.00
     8   1    -0.01   0.01  -0.01    -0.00   0.00  -0.00    -0.25   0.22  -0.53
     9   1     0.01  -0.01   0.02     0.00  -0.00   0.00    -0.04   0.03  -0.08
    10   1    -0.06  -0.04   0.01     0.66   0.46  -0.15    -0.00  -0.00   0.00
    11   1    -0.10   0.06   0.04     0.45  -0.26  -0.17    -0.00   0.00   0.00
    12   1     0.81  -0.46  -0.31     0.10  -0.06  -0.04    -0.00   0.00   0.00
    13   6     0.00   0.00  -0.00     0.00   0.00  -0.00    -0.00  -0.00   0.00
    14   8    -0.00  -0.00  -0.00     0.00  -0.00  -0.00     0.00   0.00  -0.00
    15   1     0.00  -0.00   0.00    -0.00   0.00  -0.00    -0.05   0.76  -0.08
    16   1     0.00  -0.00  -0.00     0.00   0.00  -0.00     0.00  -0.00  -0.00

 -------------------
 - Thermochemistry -
 -------------------
 Temperature   298.150 Kelvin.  Pressure   1.00000 Atm.
 Atom     1 has atomic number  8 and mass  15.99491
 Atom     2 has atomic number  6 and mass  12.00000
 Atom     3 has atomic number  6 and mass  12.00000
 Atom     4 has atomic number  6 and mass  12.00000
 Atom     5 has atomic number  6 and mass  12.00000
 Atom     6 has atomic number  6 and mass  12.00000
 Atom     7 has atomic number  1 and mass   1.00783
 Atom     8 has atomic number  1 and mass   1.00783
 Atom     9 has atomic number  1 and mass   1.00783
 Atom    10 has atomic number  1 and mass   1.00783
 Atom    11 has atomic number  1 and mass   1.00783
 Atom    12 has atomic number  1 and mass   1.00783
 Atom    13 has atomic number  6 and mass  12.00000
 Atom    14 has atomic number  8 and mass  15.99491
 Atom    15 has atomic number  1 and mass   1.00783
 Atom    16 has atomic number  1 and mass   1.00783
 Molecular mass:   112.05243 amu.
 Principal axes and moments of inertia in atomic units:
                           1         2         3
     Eigenvalues --   685.568941897.549972449.32026
           X            0.99906  -0.04320   0.00413
           Y            0.04312   0.99889   0.01870
           Z           -0.00493  -0.01851   0.99982
 This molecule is an asymmetric top.
 Rotational symmetry number  1.
 Warning -- assumption of classical behavior for rotation
           may cause significant error
 Rotational temperatures (Kelvin)      0.12634     0.04565     0.03536
 Rotational constants (GHZ):           2.63247     0.95109     0.73683
    1 imaginary frequencies ignored.
 Zero-point vibrational energy     327125.2 (Joules/Mol)
                                   78.18480 (Kcal/Mol)
 Warning -- explicit consideration of  11 degrees of freedom as
           vibrations may cause significant error
 Vibrational temperatures:     40.66    54.74    84.73   128.27   149.66
          (Kelvin)            253.53   266.86   422.25   468.87   814.48
                              835.56   900.51   998.10  1335.99  1367.02
                             1460.47  1477.03  1483.46  1505.02  1513.00
                             1517.25  1538.34  1677.50  1846.95  1875.11
                             1996.74  2034.25  2073.42  2077.41  2461.94
                             2475.23  2652.42  2672.09  4191.36  4261.18
                             4539.03  4558.82  4613.84  4636.31  4708.49
                             4720.34
 
 Zero-point correction=                           0.124595 (Hartree/Particle)
 Thermal correction to Energy=                    0.134469
 Thermal correction to Enthalpy=                  0.135413
 Thermal correction to Gibbs Free Energy=         0.086699
 Sum of electronic and zero-point Energies=           -383.289876
 Sum of electronic and thermal Energies=              -383.280003
 Sum of electronic and thermal Enthalpies=            -383.279059
 Sum of electronic and thermal Free Energies=         -383.327773
 
                     E (Thermal)             CV                S
                      KCal/Mol        Cal/Mol-Kelvin    Cal/Mol-Kelvin
 Total                   84.380             31.112            102.527
 Electronic               0.000              0.000              0.000
 Translational            0.889              2.981             40.057
 Rotational               0.889              2.981             29.545
 Vibrational             82.603             25.151             32.925
 Vibration     1          0.593              1.984              5.948
 Vibration     2          0.594              1.982              5.358
 Vibration     3          0.596              1.974              4.494
 Vibration     4          0.602              1.957              3.679
 Vibration     5          0.605              1.946              3.378
 Vibration     6          0.628              1.872              2.368
 Vibration     7          0.632              1.860              2.273
 Vibration     8          0.688              1.686              1.454
 Vibration     9          0.710              1.624              1.280
 Vibration    10          0.922              1.105              0.512
 Vibration    11          0.937              1.073              0.484
                       Q            Log10(Q)             Ln(Q)
 Total Bot       0.132240D-39        -39.878638        -91.823957
 Total V=0       0.269910D+18         17.431219         40.136865
 Vib (Bot)       0.443900D-53        -53.352714       -122.849165
 Vib (Bot)    1  0.732660D+01          0.864902          1.991512
 Vib (Bot)    2  0.543950D+01          0.735559          1.693687
 Vib (Bot)    3  0.350681D+01          0.544912          1.254706
 Vib (Bot)    4  0.230663D+01          0.362978          0.835788
 Vib (Bot)    5  0.197137D+01          0.294768          0.678728
 Vib (Bot)    6  0.114130D+01          0.057401          0.132170
 Vib (Bot)    7  0.108080D+01          0.033746          0.077704
 Vib (Bot)    8  0.650374D+00         -0.186837         -0.430207
 Vib (Bot)    9  0.574800D+00         -0.240483         -0.553733
 Vib (Bot)   10  0.272920D+00         -0.563964         -1.298575
 Vib (Bot)   11  0.262194D+00         -0.581377         -1.338671
 Vib (V=0)       0.906030D+04          3.957142          9.111657
 Vib (V=0)    1  0.784364D+01          0.894518          2.059703
 Vib (V=0)    2  0.596243D+01          0.775424          1.785479
 Vib (V=0)    3  0.404227D+01          0.606626          1.396807
 Vib (V=0)    4  0.286020D+01          0.456397          1.050892
 Vib (V=0)    5  0.253379D+01          0.403770          0.929716
 Vib (V=0)    6  0.174602D+01          0.242050          0.557340
 Vib (V=0)    7  0.169085D+01          0.228106          0.525234
 Vib (V=0)    8  0.132036D+01          0.120692          0.277903
 Vib (V=0)    9  0.126184D+01          0.101003          0.232568
 Vib (V=0)   10  0.106964D+01          0.029236          0.067319
 Vib (V=0)   11  0.106458D+01          0.027177          0.062576
 Electronic      0.100000D+01          0.000000          0.000000
 Translational   0.466215D+08          7.668586         17.657571
 Rotational      0.638985D+06          5.805491         13.367636
 ***** Axes restored to original set *****
 -------------------------------------------------------------------
 Center     Atomic                   Forces (Hartrees/Bohr)
 Number     Number              X              Y              Z
 -------------------------------------------------------------------
      1        8           0.000000936   -0.000001300    0.000004061
      2        6          -0.000004172   -0.000001057    0.000003218
      3        6           0.000002762   -0.000002272    0.000002325
      4        6          -0.000068102    0.000150820    0.000021740
      5        6          -0.000000213   -0.000001923   -0.000001255
      6        6           0.000000415   -0.000000935    0.000001993
      7        1          -0.000002303   -0.000001161    0.000002756
      8        1          -0.000030445    0.000058040    0.000007810
      9        1          -0.000000192   -0.000001053   -0.000001077
     10        1          -0.000001649   -0.000000285    0.000001499
     11        1          -0.000000898    0.000003072    0.000000531
     12        1           0.000102285   -0.000210478   -0.000033952
     13        6          -0.000005154    0.000001107   -0.000002621
     14        8           0.000001797    0.000001219   -0.000002887
     15        1           0.000002558    0.000001177   -0.000001482
     16        1           0.000002375    0.000005027   -0.000002659
 -------------------------------------------------------------------
 Cartesian Forces:  Max     0.000210478 RMS     0.000042899

 GradGradGradGradGradGradGradGradGradGradGradGradGradGradGradGradGradGrad
 Berny optimization.
 Search for a local minimum.
 Step number   1 out of a maximum of    2
 All quantities printed in internal units (Hartrees-Bohrs-Radians)
 Second derivative matrix not updated -- analytic derivatives used.
 ITU=  0
     Eigenvalues ---   -0.00008   0.00012   0.00025   0.00056   0.00084
     Eigenvalues ---    0.00200   0.00463   0.00478   0.01182   0.01317
     Eigenvalues ---    0.02183   0.02226   0.04265   0.04673   0.06779
     Eigenvalues ---    0.07132   0.07375   0.08024   0.08204   0.09787
     Eigenvalues ---    0.14408   0.16130   0.16402   0.16898   0.17831
     Eigenvalues ---    0.18969   0.27191   0.27396   0.28477   0.28717
     Eigenvalues ---    0.44907   0.51023   0.63731   0.72894   0.84537
     Eigenvalues ---    0.88227   0.99053   1.02925   1.49046   1.51279
     Eigenvalues ---    1.75362   1.77298
 Eigenvalue     1 is  -8.31D-05 should be greater than     0.000000 Eigenvector:
                          Z11       Z15       Z12       Y12       Z14
   1                    0.37917   0.28662  -0.26797  -0.24482  -0.24331
                          X14       Z7        X15       Y16       Y10
   1                    0.22799  -0.21028  -0.20393   0.18153  -0.17920
 Quadratic step=7.599D-01 exceeds max=3.000D-01 adjusted using Lamda=-1.356D-04.
 Angle between NR and scaled steps=   7.98 degrees.
 Angle between quadratic step and forces=  74.85 degrees.
 Linear search not attempted -- first point.
 B after Tr=     0.005572    0.001939   -0.006997
         Rot=    0.999999   -0.000574   -0.000881    0.000025 Ang=  -0.12 deg.
 Variable       Old X    -DE/DX   Delta X   Delta X   Delta X     New X
                                 (Linear)    (Quad)   (Total)
    X1       -3.22633   0.00000   0.00000  -0.01629  -0.00876  -3.23509
    Y1        2.33360  -0.00000   0.00000   0.02750   0.02840   2.36200
    Z1        1.06533   0.00000   0.00000  -0.02508  -0.02365   1.04168
    X2        2.79713  -0.00000   0.00000  -0.03946  -0.03377   2.76337
    Y2        3.41371  -0.00000   0.00000  -0.03720  -0.03536   3.37835
    Z2       -0.06601   0.00000   0.00000   0.03864   0.03067  -0.03534
    X3       -3.66750   0.00000   0.00000  -0.04232  -0.03540  -3.70291
    Y3       -3.06026  -0.00000   0.00000   0.02971   0.03086  -3.02940
    Z3        0.80553   0.00000   0.00000   0.04379   0.03984   0.84538
    X4        2.75628  -0.00007   0.00000   0.00641   0.01243   2.76871
    Y4        0.90782   0.00015   0.00000  -0.04464  -0.04310   0.86472
    Z4        0.24642   0.00002   0.00000  -0.01482  -0.02569   0.22073
    X5       -4.26050  -0.00000   0.00000   0.00517   0.00954  -4.25096
    Y5        1.30283  -0.00000   0.00000   0.01033   0.01330   1.31614
    Z5       -0.69315  -0.00000   0.00000  -0.02754  -0.02554  -0.71869
    X6       -4.46905   0.00000   0.00000  -0.00832  -0.00454  -4.47359
    Y6       -1.47633  -0.00000   0.00000   0.00726   0.01055  -1.46578
    Z6       -0.99186   0.00000   0.00000   0.00890   0.00811  -0.98375
    X7       -5.13474  -0.00000   0.00000   0.03819   0.03985  -5.09489
    Y7        2.44449  -0.00000   0.00000  -0.00548  -0.00066   2.44383
    Z7       -2.23581   0.00000   0.00000  -0.05788  -0.05310  -2.28891
    X8       -2.84515  -0.00003   0.00000  -0.06294  -0.05291  -2.89806
    Y8       -2.32416   0.00006   0.00000   0.05359   0.05269  -2.27147
    Z8        2.55402   0.00001   0.00000   0.04354   0.03905   2.59308
    X9       -5.32185  -0.00000   0.00000   0.01280   0.01346  -5.30839
    Y9       -2.17347  -0.00000   0.00000  -0.01300  -0.00766  -2.18113
    Z9       -2.74099  -0.00000   0.00000   0.00671   0.00656  -2.73444
   X10        1.12541  -0.00000   0.00000  -0.06637  -0.05993   1.06548
   Y10        4.56010  -0.00000   0.00000  -0.07743  -0.07596   4.48414
   Z10        0.32465   0.00000   0.00000   0.04116   0.03745   0.36210
   X11        4.50446  -0.00000   0.00000  -0.04906  -0.04440   4.46007
   Y11        4.38384   0.00000   0.00000   0.00826   0.01072   4.39456
   Z11       -0.72180   0.00000   0.00000   0.08086   0.07106  -0.65074
   X12        1.05528   0.00010   0.00000   0.02075   0.02780   1.08308
   Y12       -0.06557  -0.00021   0.00000  -0.09927  -0.09835  -0.16392
   Z12        0.90136  -0.00003   0.00000  -0.05813  -0.06721   0.83415
   X13        5.00046  -0.00001   0.00000   0.04544   0.05044   5.05090
   Y13       -0.65687   0.00000   0.00000   0.01174   0.01378  -0.64309
   Z13       -0.28276  -0.00000   0.00000  -0.01669  -0.03332  -0.31608
   X14        5.07546   0.00000   0.00000   0.08928   0.09452   5.16998
   Y14       -2.92467   0.00000   0.00000   0.00899   0.01079  -2.91388
   Z14       -0.04533  -0.00000   0.00000  -0.05684  -0.07628  -0.12162
   X15       -3.81254   0.00000   0.00000  -0.05001  -0.04352  -3.85606
   Y15       -5.10804   0.00000   0.00000   0.02729   0.02865  -5.07939
   Z15        0.59530  -0.00000   0.00000   0.07266   0.06663   0.66194
   X16        6.69505   0.00000   0.00000   0.03121   0.03518   6.73023
   Y16        0.42600   0.00001   0.00000   0.05869   0.06136   0.48736
   Z16       -0.94562  -0.00000   0.00000   0.02370   0.00542  -0.94020
         Item               Value     Threshold  Converged?
 Maximum Force            0.000210     0.000450     YES
 RMS     Force            0.000043     0.000300     YES
 Maximum Displacement     0.098349     0.001800     NO 
 RMS     Displacement     0.042796     0.001200     NO 
 Predicted change in Energy=-2.450703D-05
 GradGradGradGradGradGradGradGradGradGradGradGradGradGradGradGradGradGrad


 ----------------------------------------------------------------------

 Electric dipole moment (input orientation):
 (Debye = 10**-18 statcoulomb cm , SI units = C m)
                  (au)            (Debye)         (10**-30 SI)
   Tot        0.116955D+01      0.297270D+01      0.991587D+01
   x         -0.843560D+00     -0.214412D+01     -0.715200D+01
   y          0.453714D+00      0.115323D+01      0.384675D+01
   z         -0.671119D+00     -0.170581D+01     -0.568999D+01

 Dipole polarizability, Alpha (input orientation).
 (esu units = cm**3 , SI units = C**2 m**2 J**-1)
 Alpha(0;0):
               (au)            (10**-24 esu)      (10**-40 SI)
   iso        0.760638D+02      0.112715D+02      0.125412D+02
   aniso      0.512215D+02      0.759025D+01      0.844529D+01
   xx         0.644083D+02      0.954432D+01      0.106195D+02
   yx        -0.477964D+01     -0.708270D+00     -0.788057D+00
   yy         0.106998D+03      0.158555D+02      0.176416D+02
   zx         0.616544D+01      0.913624D+00      0.101654D+01
   zy        -0.902595D+01     -0.133751D+01     -0.148818D+01
   zz         0.567851D+02      0.841469D+01      0.936260D+01

 ----------------------------------------------------------------------

 Dipole orientation:
     8         -2.51337100         -1.95013490          2.62102715
     6          2.52707038         -3.55897045         -0.65529586
     6         -3.58029599          3.10716611          0.99582564
     6          1.82885721         -1.40664382         -1.77723836
     6         -2.12061735         -0.15188455          3.97613085
     6         -2.53888436          2.51448150          3.21981418
     1         -1.39023616         -0.43048632          5.93480627
     1         -4.16002989          1.61694064         -0.31507501
     1         -1.97213972          3.97512868          4.56815790
     1          1.32997252         -4.45007158          0.77102122
     1          4.31552182         -4.48546736         -1.13407786
     1          0.04467590         -0.47798591         -1.30380270
     6          3.43472241         -0.18527317         -3.69924257
     8          2.91049757          1.76023202         -4.76934883
     1         -3.88982854          5.06647372          0.42665884
     1          5.23978887         -1.20872411         -4.12104582

 Electric dipole moment (dipole orientation):
 (Debye = 10**-18 statcoulomb cm , SI units = C m)
                  (au)            (Debye)         (10**-30 SI)
   Tot        0.116955D+01      0.297270D+01      0.991587D+01
   x          0.000000D+00      0.000000D+00      0.000000D+00
   y          0.000000D+00      0.000000D+00      0.000000D+00
   z          0.116955D+01      0.297270D+01      0.991587D+01

 Dipole polarizability, Alpha (dipole orientation).
 (esu units = cm**3 , SI units = C**2 m**2 J**-1)
 Alpha(0;0):
               (au)            (10**-24 esu)      (10**-40 SI)
   iso        0.760638D+02      0.112715D+02      0.125412D+02
   aniso      0.512215D+02      0.759025D+01      0.844529D+01
   xx         0.570118D+02      0.844828D+01      0.939998D+01
   yx        -0.120117D+02     -0.177996D+01     -0.198047D+01
   yy         0.910751D+02      0.134959D+02      0.150163D+02
   zx         0.343932D+01      0.509654D+00      0.567067D+00
   zy        -0.203989D+02     -0.302281D+01     -0.336333D+01
   zz         0.801046D+02      0.118703D+02      0.132075D+02

 ----------------------------------------------------------------------
 Unable to Open any file for archive entry.
 1\1\GINC-NODE-007\Freq\RwB97XD\def2SVP\C6H8O2\JP2658\30-Dec-2023\0\\# 
 wb97xd def2svp scrf=(iefpcm,solvent=toluene) freq=noraman\\da-1_1_opt_
 dft_re2.out\\0,1\O,-1.7073,1.23489,0.56375\C,1.48018,1.80646,-0.03493\
 C,-1.94076,-1.61942,0.42627\C,1.45856,0.4804,0.1304\C,-2.25456,0.68943
 ,-0.3668\C,-2.36492,-0.78124,-0.52487\H,-2.71719,1.29357,-1.18314\H,-1
 .50559,-1.22989,1.35153\H,-2.8162,-1.15015,-1.45047\H,0.59554,2.4131,0
 .1718\H,2.38366,2.31983,-0.38196\H,0.55843,-0.0347,0.47698\C,2.64613,-
 0.3476,-0.14963\O,2.68582,-1.54767,-0.02399\H,-2.01751,-2.70306,0.3150
 2\H,3.54287,0.22543,-0.5004\\Version=ES64L-G16RevC.01\State=1-A\HF=-38
 3.4144717\RMSD=3.983e-09\RMSF=4.290e-05\ZeroPoint=0.1245954\Thermal=0.
 1344686\ETot=-383.2800031\HTot=-383.2790589\GTot=-383.3277729\Dipole=-
 0.8435605,0.4537141,-0.6711192\DipoleDeriv=-0.6788252,-0.2344211,-0.20
 34695,-0.1370016,-0.8852622,-0.1254056,-0.2782786,-0.4189598,-0.720641
 ,0.0120151,0.0596579,-0.0841359,-0.0497577,0.1566339,-0.0391611,-0.069
 1511,-0.0635201,-0.1678017,-0.122159,-0.0822226,0.0991303,0.0126122,0.
 1299729,-0.0220771,0.0870119,-0.1380799,0.0382742,-0.2750774,0.4093454
 ,-0.0163192,0.2294235,-0.4606385,-0.0193902,-0.0070336,-0.0984353,-0.1
 640055,0.5557245,0.0843767,0.3045993,0.0337556,1.4979308,-0.1132241,0.
 4207645,0.1222039,0.7768752,-0.1974714,0.1509473,0.0624843,0.0661805,-
 0.7492472,0.2100054,0.0962828,0.3642859,-0.0662614,0.00443,0.0716696,-
 0.0998633,0.070743,-0.0758828,0.1206964,-0.1277205,0.1362978,-0.124315
 1,0.1235185,0.0056599,-0.051981,-0.0269597,0.0783846,-0.0666749,-0.064
 7284,-0.0152614,0.0440473,0.114085,-0.0036791,-0.086201,-0.0166312,0.0
 48012,-0.017557,-0.0890907,-0.0375366,-0.0152158,0.0815542,0.067733,0.
 027243,0.0476999,0.0844392,0.0098994,0.0211647,-0.001908,0.1173056,-0.
 0317097,-0.0883483,0.0567826,-0.0128031,0.0734108,0.0123295,0.0579217,
 0.0362455,0.1222982,0.0682452,0.0037072,0.0555933,-0.0539245,-0.001328
 9,0.0267417,0.0507399,0.0196712,0.1165111,1.0101121,-0.5162334,-0.1560
 737,-0.186179,1.5153882,-0.1086306,-0.2111118,0.0195588,0.3315627,-0.5
 85587,0.149354,0.0339947,0.1734779,-1.3559461,0.0701254,0.0417429,0.06
 83751,-0.4000891,0.1206813,-0.0093324,-0.0185145,-0.0059565,-0.0161525
 ,0.0065082,-0.0253534,-0.0239926,0.0921675,-0.1995362,-0.0682141,0.076
 7307,-0.1446794,-0.0397142,0.0558143,0.0968398,0.0310553,0.0192878\Pol
 ar=64.4082864,-4.7796432,106.9980691,6.1654406,-9.0259524,56.7851353\Q
 uadrupole=1.1462241,-1.1577413,0.0115172,8.6973956,2.1019797,-2.174856
 3\PG=C01 [X(C6H8O2)]\NImag=1\\0.20664994,0.16261743,0.25286882,0.30361
 294,0.27518697,0.54292365,-0.00099290,0.00000231,0.00007866,0.61258353
 ,-0.00132403,-0.00097151,-0.00054483,-0.02639411,0.86854588,0.00005252
 ,-0.00024690,0.00034895,-0.15127115,-0.08068014,0.18040448,-0.00286262
 ,-0.00306272,-0.00351814,-0.00003532,-0.00018871,0.00001049,0.23892541
 ,0.00357008,0.00300713,0.00622636,0.00015209,-0.00004084,-0.00003261,-
 0.03175199,0.75961707,-0.00436285,-0.00615325,-0.00825815,0.00014671,-
 0.00013477,-0.00008572,0.24864700,-0.10118952,0.66594920,-0.00218504,-
 0.00064170,-0.00023947,-0.11443035,-0.01559079,0.02120538,-0.00004835,
 -0.00018422,-0.00025971,0.58520889,0.00260081,0.00029155,0.00091748,-0
 .00775501,-0.57027107,0.06446065,-0.00026126,0.00000365,-0.00000359,0.
 04453878,0.86768573,0.00034022,0.00042149,0.00032868,0.02051218,0.0668
 6992,-0.06681940,-0.00021941,0.00017846,-0.00024507,-0.15382072,-0.103
 49233,0.17787382,-0.21766784,-0.13550912,-0.26191803,-0.00004987,0.000
 48737,0.00007999,0.00861231,0.00903021,0.00486910,0.00022088,-0.001033
 11,-0.00000399,0.38814404,-0.13076066,-0.23346187,-0.22261776,-0.00061
 282,0.00081890,0.00037875,0.00728144,-0.03330340,0.01601811,0.00167598
 ,-0.00124523,-0.00075212,0.07764535,0.63679288,-0.26084327,-0.22906719
 ,-0.51101096,0.00019704,0.00103631,-0.00008663,0.00520068,0.02219098,0
 .01526142,0.00062568,-0.00156355,-0.00014423,0.33216073,0.12208166,0.7
 6945522,0.01198140,-0.02543582,-0.00826782,-0.00008816,0.00022227,0.00
 008317,-0.11293695,0.09010754,-0.13053050,0.00027547,0.00011690,-0.000
 28542,-0.08595070,-0.00774568,-0.01575516,0.24958694,-0.02624887,-0.03
 735420,-0.04270940,0.00020177,-0.00052313,-0.00007061,0.08469818,-0.28
 885588,0.19641532,-0.00049528,0.00022058,0.00016287,0.00839998,-0.2213
 6365,0.01722765,-0.03347212,0.64982939,-0.00867442,-0.04160481,0.00562
 058,0.00000283,-0.00006628,0.00003401,-0.12943024,0.20686453,-0.343662
 40,0.00019768,-0.00026518,0.00026286,-0.01505756,-0.01506539,-0.109250
 90,0.27881756,-0.10012625,0.70315888,0.00242550,0.00210736,-0.03180887
 ,-0.00001398,-0.00014944,0.00002195,0.00121229,-0.00011755,0.00018896,
 0.00009703,-0.00013048,0.00005681,-0.09278521,0.05402319,-0.05476549,0
 .01620268,-0.00169158,-0.00676229,0.07454640,-0.00822370,0.02384062,-0
 .01402621,0.00002099,0.00004828,-0.00000612,-0.00105692,-0.00627043,-0
 .00213373,-0.00008205,0.00000907,0.00000168,0.05116125,-0.14882149,0.0
 8973397,0.01239934,-0.01183407,0.02267354,-0.05440944,0.14357317,-0.03
 152141,0.00364372,-0.03293963,-0.00005269,-0.00000866,0.00005609,-0.00
 002315,-0.00064287,0.00135376,0.00001247,0.00039612,-0.00002027,-0.055
 00424,0.09596611,-0.16038664,-0.00699341,-0.00220363,0.00774059,0.0923
 4216,-0.09708305,0.18462320,0.00139794,-0.00035297,0.00059691,0.000078
 86,-0.00000381,-0.00003875,-0.08961736,-0.04195293,-0.10226847,-0.0000
 8747,-0.00002585,-0.00003051,-0.00827210,-0.00140555,0.00245851,0.0031
 3525,-0.00301133,-0.00925622,0.00053799,0.00011058,-0.00029777,0.08036
 172,-0.00019946,-0.00008681,-0.00095974,-0.00000228,0.00001506,0.00001
 178,-0.04348889,-0.09563527,-0.09150706,0.00011629,-0.00029425,-0.0000
 7378,0.00062094,-0.00030269,0.00095975,0.00833941,0.01319343,0.0174655
 7,-0.00041527,0.00034051,-0.00052799,0.04507374,0.08859008,0.00058564,
 -0.00043286,0.00228472,-0.00019619,-0.00004234,0.00004944,-0.10272372,
 -0.08721059,-0.26060949,0.00010603,0.00011685,-0.00009219,0.00270695,-
 0.00218445,-0.00301480,-0.01010160,-0.00934947,-0.01329588,-0.00020493
 ,0.00001114,0.00016613,0.11523410,0.09338547,0.27112890,0.00225276,-0.
 00072221,-0.00107497,0.00001602,0.00000336,0.00001405,0.00219550,-0.00
 451855,-0.00787559,-0.00000608,0.00006091,0.00003873,0.00052048,0.0018
 9833,-0.00037851,-0.09116287,-0.04048621,-0.10776194,-0.00072945,-0.00
 024611,0.00047434,0.00924397,0.00080628,-0.00486142,0.08393546,-0.0009
 0777,-0.00864576,-0.00070678,0.00002211,-0.00006610,-0.00000338,0.0097
 7552,0.01068986,0.02056849,-0.00005390,0.00006895,0.00001413,-0.012855
 26,-0.00015381,-0.02624134,-0.04064436,-0.09202288,-0.08440409,0.00044
 876,0.00004333,0.00110653,0.00089057,-0.00240923,0.00275231,0.04315069
 ,0.09159751,-0.00097412,-0.00086832,0.00031484,-0.00002619,-0.00002949
 ,0.00001392,-0.00916392,-0.00943991,-0.01253365,0.00002363,0.00005975,
 0.00001598,0.00026377,0.00511172,0.00141879,-0.10701842,-0.08392517,-0
 .25795455,0.00031500,-0.00043313,-0.00010829,-0.00508977,0.00241322,0.
 00084725,0.11808875,0.08723576,0.26877056,0.00022599,0.00046399,0.0006
 8882,-0.25366636,0.13688909,0.05066811,-0.00002974,0.00001665,0.000096
 42,0.00688187,-0.00471261,0.00153044,-0.00089764,-0.00084381,-0.001139
 47,-0.00014172,0.00028276,0.00011168,0.00020553,-0.00006273,0.00006701
 ,0.00001846,-0.00003789,0.00001288,0.00002046,0.00008037,0.00001738,0.
 25618617,0.00144778,0.00054256,0.00054396,0.13014118,-0.14397539,-0.02
 881016,0.00006849,0.00001385,0.00015042,0.02704632,-0.01089419,-0.0060
 9362,-0.00090683,-0.00106415,-0.00116775,-0.00015588,0.00039105,-0.000
 02072,0.00010143,-0.00000014,0.00011583,0.00000888,-0.00003516,0.00000
 751,-0.00000211,0.00007518,0.00002839,-0.14383756,0.14898719,0.0001072
 1,0.00025032,-0.00045555,0.05140380,-0.03090428,-0.05445711,-0.0000070
 2,0.00001549,-0.00000071,-0.00225093,0.00392643,0.01023753,-0.00017327
 ,-0.00041172,0.00001764,-0.00011068,-0.00003648,-0.00001440,-0.0000004
 7,-0.00001053,-0.00010859,-0.00000325,-0.00000332,0.00000736,-0.000004
 84,-0.00001173,-0.00000308,-0.05555548,0.03077395,0.03977759,-0.000754
 19,-0.00037472,-0.00026216,-0.25318577,-0.10820481,0.08056785,-0.00003
 910,-0.00000327,-0.00002961,0.00420475,0.00037408,0.00072141,0.0003351
 0,0.00034872,0.00052196,0.00005082,-0.00013870,0.00000138,-0.00004114,
 0.00001904,-0.00005821,0.00002079,0.00001763,-0.00002579,-0.00000184,-
 0.00002943,-0.00001770,-0.01009837,-0.01244151,0.00601201,0.25787500,0
 .00037973,0.00038409,0.00011125,-0.10480748,-0.11730598,0.04238212,0.0
 0002267,0.00004280,0.00008817,-0.02717259,-0.00859958,0.01046067,-0.00
 010191,-0.00037248,-0.00018452,-0.00008963,0.00015888,0.00001042,0.000
 02936,0.00000862,-0.00002251,0.00002948,-0.00000291,-0.00006126,-0.000
 00070,0.00002057,-0.00000634,0.01292309,0.00969191,-0.00478590,0.11827
 209,0.11926561,0.00009612,0.00001735,-0.00000293,0.08005988,0.04347557
 ,-0.06994381,0.00006325,-0.00002612,0.00004609,0.00410106,0.00174684,0
 .00516755,-0.00009385,0.00001094,-0.00000809,0.00004357,0.00007170,-0.
 00007708,-0.00000189,-0.00000424,0.00000745,-0.00000016,-0.00000172,0.
 00002871,-0.00001135,0.00000082,0.00000214,0.00300634,0.00326424,0.002
 79487,-0.08781069,-0.04857845,0.05836629,0.00013008,0.00006827,0.00047
 567,0.00583574,0.00382084,-0.00040754,-0.00033080,-0.00019804,-0.00016
 555,-0.25366722,-0.11329735,0.08133286,-0.00197952,-0.00020612,-0.0012
 9617,-0.00009498,0.00041882,-0.00030525,0.00002138,-0.00005746,0.00030
 756,-0.00087116,-0.00064398,0.00050440,0.00005961,0.00004779,0.0000795
 8,-0.00015440,-0.00029592,-0.00228486,0.00161750,0.00165457,0.00278913
 ,0.26292902,-0.00191117,-0.00085144,-0.00079143,-0.02605909,-0.0095096
 6,0.01007262,-0.00001774,-0.00027350,-0.00033742,-0.10993968,-0.116714
 34,0.04407968,0.00135770,0.00181602,0.00138943,-0.00029752,-0.00038813
 ,0.00036884,0.00017719,-0.00012718,-0.00042065,-0.00049909,0.00014465,
 0.00025576,-0.00002699,-0.00010686,0.00000695,-0.00035964,0.00073517,-
 0.00083438,0.00078611,-0.00422084,0.00157796,0.12082214,0.11993690,0.0
 0015586,-0.00018138,-0.00041958,0.00319257,0.00061066,0.00492398,0.000
 19564,-0.00011282,0.00063958,0.08066693,0.04510314,-0.07141258,-0.0004
 7422,0.00055258,0.00005802,0.00011779,-0.00012530,-0.00046699,-0.00009
 641,-0.00000500,-0.00005125,0.00028880,0.00023936,-0.00017994,-0.00001
 477,0.00003068,-0.00004705,-0.00229942,-0.00090223,-0.00678640,0.00291
 090,0.00132588,0.01015678,-0.08811012,-0.04974453,0.06142697,0.0011958
 8,0.00081438,0.00040872,0.01035932,0.00885862,-0.00301373,0.00024657,-
 0.00011104,0.00012697,-0.22390642,0.04606221,0.04026238,-0.00088382,-0
 .00090953,-0.00074944,-0.00002395,0.00044765,-0.00026048,0.00002089,-0
 .00001809,0.00006036,-0.00007292,-0.00002216,0.00010763,-0.00003034,0.
 00003693,0.00005081,0.00108009,-0.00345673,0.00470575,-0.00037504,-0.0
 0317300,-0.00257592,-0.01464398,0.01608263,0.00368846,0.54688471,-0.00
 272528,-0.00096474,-0.00109052,0.02587933,-0.03720655,-0.00343293,0.00
 005873,0.00002924,-0.00011573,0.03974554,-0.10341920,-0.00991599,0.001
 43357,0.00212024,0.00171450,0.00017242,-0.00079593,0.00047444,0.000136
 67,-0.00006728,-0.00028107,-0.00002587,0.00032048,-0.00018304,-0.00007
 658,-0.00007324,-0.00007068,0.00006112,-0.00268449,0.00207494,0.003739
 20,-0.00000595,-0.00235516,-0.01528665,0.01014681,0.00411758,-0.000766
 91,1.01779899,-0.00016167,-0.00014549,-0.00017951,-0.00525116,0.002065
 19,0.00493679,0.00000280,-0.00000252,0.00001486,0.04107947,-0.01207633
 ,-0.09190356,0.00013124,0.00017178,0.00024963,0.00005036,-0.00004268,-
 0.00005279,-0.00003692,0.00001590,-0.00000322,0.00002482,-0.00004178,0
 .00000927,-0.00002752,-0.00001049,-0.00002147,0.00423952,0.00317489,0.
 01295027,-0.00334851,-0.00013714,-0.00852005,0.00747290,-0.00588152,0.
 00156588,-0.11200912,-0.09496151,0.24000930,-0.00038730,-0.00008707,-0
 .00004361,-0.00641201,0.00260101,0.00235236,-0.00007428,0.00006505,0.0
 0000576,0.01474404,0.04715988,-0.00299745,0.00034080,-0.00009555,0.000
 24075,-0.00008443,0.00003735,0.00009317,-0.00001442,0.00003808,-0.0000
 6129,0.00008039,-0.00003305,-0.00012016,0.00003310,-0.00000691,-0.0000
 3025,0.00011305,0.00179008,-0.00134295,0.00000319,0.00080500,0.0004509
 3,0.00353009,-0.00303872,-0.00140219,-0.10681099,0.01514739,0.01160258
 ,0.07928799,0.00171123,0.00099699,0.00074991,0.00837722,0.00862246,-0.
 00336206,0.00000520,-0.00003641,0.00014450,0.02697275,-0.06470095,0.00
 158235,-0.00096455,-0.00171369,-0.00109929,-0.00019869,0.00072310,-0.0
 0030282,-0.00005717,0.00005467,0.00009521,0.00002995,-0.00019871,0.000
 07094,0.00004631,0.00005054,0.00004114,-0.00065797,-0.00195025,0.00002
 945,-0.00134876,0.00096448,0.00051249,0.00094745,0.00114711,-0.0007050
 5,0.01170334,-0.79365776,0.08026652,-0.03196112,0.89141151,-0.00000939
 ,-0.00000932,0.00009444,0.00178261,-0.00160081,0.00180459,-0.00004008,
 -0.00002798,-0.00008757,-0.00078980,-0.00484211,0.02318407,-0.00001363
 ,0.00003659,-0.00009114,-0.00002286,-0.00004114,0.00009310,0.00002524,
 -0.00002071,0.00001971,-0.00004220,0.00006519,-0.00000203,0.00003555,-
 0.00000817,0.00002308,-0.00102706,-0.00075122,-0.00299326,0.00068900,-
 0.00016668,0.00148398,-0.00184416,0.00062851,-0.00143695,0.01202220,0.
 07920555,-0.07763868,-0.01372859,-0.08983997,0.03895719,-0.00088067,0.
 00009636,0.00142676,-0.00002023,-0.00004094,0.00001650,-0.04519269,-0.
 02414439,-0.00863869,-0.00004820,0.00006138,0.00001254,0.00999853,-0.0
 0034028,-0.00682637,0.00931286,0.01104116,-0.00178590,-0.00169987,0.00
 038528,0.00085604,0.00399678,-0.01015725,-0.00092766,-0.00634427,0.000
 05510,0.00350875,0.00000377,0.00001306,-0.00000224,-0.00000451,-0.0000
 0420,0.00000128,0.00019346,0.00005006,-0.00005617,0.00000430,-0.000222
 54,0.00000593,0.00006682,0.00017233,-0.00000348,0.03061203,-0.00012146
 ,0.00042888,-0.00031581,-0.00001538,-0.00001830,0.00000697,-0.02205183
 ,-0.34899337,-0.03180853,-0.00001655,0.00008772,-0.00000636,0.00120587
 ,0.00032395,0.00301183,-0.00330639,-0.01139779,-0.00598605,-0.00003530
 ,-0.00080921,-0.00014457,0.00112095,-0.00361372,0.00286333,0.00010517,
 0.00093175,-0.00012106,0.00001669,0.00001878,-0.00000069,-0.00000744,-
 0.00000244,0.00000130,0.00005493,-0.00003374,0.00000188,0.00002065,-0.
 00018146,0.00000165,0.00003104,0.00012010,0.00000246,0.02301074,0.3631
 2492,0.00142681,-0.00078854,0.00132328,-0.00004967,0.00001684,0.000017
 27,-0.00901667,-0.03677912,-0.05778468,0.00005477,0.00004813,0.0000127
 2,-0.00738828,0.00068615,-0.00235726,-0.00005943,0.02477038,0.00790675
 ,0.00073225,0.00129270,-0.00037856,-0.00156458,-0.02141502,0.00263634,
 0.00336455,-0.00032700,-0.00074447,-0.00000660,-0.00000643,-0.00000529
 ,-0.00000215,-0.00001969,0.,0.00010374,0.00006471,-0.00009059,0.000023
 85,-0.00008942,0.00001465,-0.00001623,0.00004427,-0.00002808,0.0124209
 4,0.03249462,0.04946982,-0.00052895,0.00001624,-0.00015541,0.00002148,
 -0.00098592,-0.00034118,-0.00002488,0.00004036,0.00005005,-0.01725382,
 -0.01375928,0.01254995,0.00031454,0.00004697,0.00034855,-0.00006166,0.
 00001641,0.00007000,0.00001437,0.00002195,-0.00010778,0.00004887,0.000
 02594,-0.00009617,-0.00000251,-0.00001021,-0.00002731,0.00025284,0.000
 47931,-0.00049277,0.00039280,0.00123353,-0.00011772,-0.00257484,0.0028
 7381,0.00123634,-0.21304430,-0.06727014,0.05622528,0.01558393,-0.01477
 753,0.00296664,0.00000190,-0.00001169,-0.00002330,0.21686024,0.0000953
 4,-0.00002430,0.00002656,0.00084915,0.00183796,-0.00066798,-0.00003016
 ,0.00000551,-0.00000141,0.01408110,0.00777154,-0.00343706,0.00002851,-
 0.00006952,-0.00002244,-0.00001178,0.00001921,-0.00001575,-0.00001773,
 0.00001153,0.00001147,0.00001325,-0.00002545,0.00000070,0.00000841,0.0
 0000021,-0.00000281,-0.00022154,0.00014809,-0.00007155,-0.00100822,-0.
 00002679,0.00028649,0.00215070,-0.00170095,-0.00020544,-0.07556895,-0.
 09135916,0.02760352,-0.03245246,-0.04183320,0.01736982,0.00002413,0.00
 001392,0.00000742,0.09206025,0.12523139,0.00016979,-0.00002178,0.00002
 719,-0.00052922,-0.00006288,-0.00119684,0.00002249,-0.00001175,0.00000
 251,0.00928752,0.00546770,0.01355409,-0.00008472,0.00001705,-0.0001100
 7,0.00003286,-0.00001781,-0.00004178,-0.00000511,-0.00000621,0.0000295
 4,-0.00001147,-0.00000993,0.00003620,-0.00000505,0.00000428,0.00000600
 ,-0.00041055,-0.00030707,-0.00096088,0.00013032,-0.00041603,0.00049810
 ,0.00134782,-0.00043451,0.00212011,0.05715156,0.02490905,-0.08143136,0
 .00499716,0.01177239,0.01661754,-0.00000822,-0.00000094,0.00000810,-0.
 07208516,-0.04088155,0.05084157\\-0.00000094,0.00000130,-0.00000406,0.
 00000417,0.00000106,-0.00000322,-0.00000276,0.00000227,-0.00000233,0.0
 0006810,-0.00015082,-0.00002174,0.00000021,0.00000192,0.00000126,-0.00
 000042,0.00000093,-0.00000199,0.00000230,0.00000116,-0.00000276,0.0000
 3044,-0.00005804,-0.00000781,0.00000019,0.00000105,0.00000108,0.000001
 65,0.00000029,-0.00000150,0.00000090,-0.00000307,-0.00000053,-0.000102
 29,0.00021048,0.00003395,0.00000515,-0.00000111,0.00000262,-0.00000180
 ,-0.00000122,0.00000289,-0.00000256,-0.00000118,0.00000148,-0.00000238
 ,-0.00000503,0.00000266\\\@
 The archive entry for this job was punched.


     ON THE SURVIVAL OF THE FITTEST -
 "STRONG REPRESENTATIVES FROM EACH PAST ERA THRIVE TODAY,
 SUCH AS PROGRAMMING IN THE THIRTY YEAR OLD LANGUAGE KNOWN
 AS FORTRAN, AND EVEN IN THE ANCIENT SCRIPT KNOWN AS DIRECT
 MACHINE CODE. SOME PEOPLE MIGHT LOOK ON SUCH RELICS AS LIVING
 FOSSILS; OTHERS WOULD POINT OUT THAT EVEN A VERY OLD SPECIES
 MIGHT STILL BE FILLING A PARTICULAR ECOLOGICAL NICHE."
     -- ALAN KAY, SCI.AM. SEPTEMBER 1984
 Job cpu time:       0 days  0 hours  8 minutes  2.0 seconds.
 Elapsed time:       0 days  0 hours  0 minutes 40.8 seconds.
 File lengths (MBytes):  RWF=     90 Int=      0 D2E=      0 Chk=      7 Scr=      1
 Normal termination of Gaussian 16 at Sat Dec 30 22:30:15 2023.
