Unloading slurm/anatra/current
  ERROR: No such file or directory on
    '/cm/local/modulefiles/slurm/anatra/current'
environment: line 0: unalias: gv: not found
environment: line 0: unalias: sl: not found
 Entering Gaussian System, Link 0=g16
 Initial command:
 /apps/gaussian/g16/C.01/g16/l1.exe "/local/jobs/1152812/Gau-833112.inp" -scrdir="/local/jobs/1152812/"
 Entering Link 1 = /apps/gaussian/g16/C.01/g16/l1.exe PID=    833113.
  
 Copyright (c) 1988-2019, Gaussian, Inc.  All Rights Reserved.
  
 This is part of the Gaussian(R) 16 program.  It is based on
 the Gaussian(R) 09 system (copyright 2009, Gaussian, Inc.),
 the Gaussian(R) 03 system (copyright 2003, Gaussian, Inc.),
 the Gaussian(R) 98 system (copyright 1998, Gaussian, Inc.),
 the Gaussian(R) 94 system (copyright 1995, Gaussian, Inc.),
 the Gaussian 92(TM) system (copyright 1992, Gaussian, Inc.),
 the Gaussian 90(TM) system (copyright 1990, Gaussian, Inc.),
 the Gaussian 88(TM) system (copyright 1988, Gaussian, Inc.),
 the Gaussian 86(TM) system (copyright 1986, Carnegie Mellon
 University), and the Gaussian 82(TM) system (copyright 1983,
 Carnegie Mellon University). Gaussian is a federally registered
 trademark of Gaussian, Inc.
  
 This software contains proprietary and confidential information,
 including trade secrets, belonging to Gaussian, Inc.
  
 This software is provided under written license and may be
 used, copied, transmitted, or stored only in accord with that
 written license.
  
 The following legend is applicable only to US Government
 contracts under FAR:
  
                    RESTRICTED RIGHTS LEGEND
  
 Use, reproduction and disclosure by the US Government is
 subject to restrictions as set forth in subparagraphs (a)
 and (c) of the Commercial Computer Software - Restricted
 Rights clause in FAR 52.227-19.
  
 Gaussian, Inc.
 340 Quinnipiac St., Bldg. 40, Wallingford CT 06492
  
  
 ---------------------------------------------------------------
 Warning -- This program may not be used in any manner that
 competes with the business of Gaussian, Inc. or will provide
 assistance to any competitor of Gaussian, Inc.  The licensee
 of this program is prohibited from giving any competitor of
 Gaussian, Inc. access to this program.  By using this program,
 the user acknowledges that Gaussian, Inc. is engaged in the
 business of creating and licensing software in the field of
 computational chemistry and represents and warrants to the
 licensee that it is not a competitor of Gaussian, Inc. and that
 it will not use this program in any manner prohibited above.
 ---------------------------------------------------------------
  

 Cite this work as:
 Gaussian 16, Revision C.01,
 M. J. Frisch, G. W. Trucks, H. B. Schlegel, G. E. Scuseria, 
 M. A. Robb, J. R. Cheeseman, G. Scalmani, V. Barone, 
 G. A. Petersson, H. Nakatsuji, X. Li, M. Caricato, A. V. Marenich, 
 J. Bloino, B. G. Janesko, R. Gomperts, B. Mennucci, H. P. Hratchian, 
 J. V. Ortiz, A. F. Izmaylov, J. L. Sonnenberg, D. Williams-Young, 
 F. Ding, F. Lipparini, F. Egidi, J. Goings, B. Peng, A. Petrone, 
 T. Henderson, D. Ranasinghe, V. G. Zakrzewski, J. Gao, N. Rega, 
 G. Zheng, W. Liang, M. Hada, M. Ehara, K. Toyota, R. Fukuda, 
 J. Hasegawa, M. Ishida, T. Nakajima, Y. Honda, O. Kitao, H. Nakai, 
 T. Vreven, K. Throssell, J. A. Montgomery, Jr., J. E. Peralta, 
 F. Ogliaro, M. J. Bearpark, J. J. Heyd, E. N. Brothers, K. N. Kudin, 
 V. N. Staroverov, T. A. Keith, R. Kobayashi, J. Normand, 
 K. Raghavachari, A. P. Rendell, J. C. Burant, S. S. Iyengar, 
 J. Tomasi, M. Cossi, J. M. Millam, M. Klene, C. Adamo, R. Cammi, 
 J. W. Ochterski, R. L. Martin, K. Morokuma, O. Farkas, 
 J. B. Foresman, and D. J. Fox, Gaussian, Inc., Wallingford CT, 2019.
 
 ******************************************
 Gaussian 16:  ES64L-G16RevC.01  3-Jul-2019
                23-Dec-2023 
 ******************************************
 %chk=da-1_1_opt_dft_re.chk
 %nprocshared=12
 Will use up to   12 processors via shared memory.
 %mem=48GB
 ----------------------------------------------------------------------
 # wb97xd def2svp geom=allchk scrf=(iefpcm,solvent=toluene) opt=(calcfc
 ,ts,noeigen,maxcycles=50,maxstep=10)
 ----------------------------------------------------------------------
 1/5=1,6=50,8=10,10=4,11=1,18=20,26=3,29=7,38=1/1,3;
 2/9=110,12=2,40=1/2;
 3/5=43,7=101,11=2,14=-4,25=1,30=1,70=2201,71=2,72=13,74=-58,140=1/1,2,3;
 4//1;
 5/5=2,38=5,53=13/2;
 8/6=4,10=90,11=11/1;
 11/6=1,8=1,9=11,15=111,16=1/1,2,10;
 10/6=1,13=1/2;
 6/7=2,8=2,9=2,10=2,28=1/1;
 7/10=1,25=1/1,2,3,16;
 1/5=1,6=50,8=10,10=4,11=1,18=20,26=3/3(2);
 2/9=110/2;
 99//99;
 2/9=110/2;
 3/5=43,7=101,11=2,14=-2,25=1,30=1,70=2205,71=1,72=13,74=-58/1,2,3;
 4/5=5,16=3,69=1/1;
 5/5=2,38=5,53=13/2;
 7//1,2,3,16;
 1/5=1,6=50,8=10,11=1,18=20,26=3/3(-5);
 2/9=110/2;
 6/7=2,8=2,9=2,10=2,19=2,28=1/1;
 99/9=1/99;
 Structure from the checkpoint file:  "da-1_1_opt_dft_re.chk"
 ---------------------------
 1c_2m_endo_adj_1_reopt2.out
 ---------------------------
 Charge =  0 Multiplicity = 1
 Redundant internal coordinates found in file.  (old form).
 O,0,1.5304443935,-0.2622507185,1.4907583501
 C,0,-1.2508930495,1.4250066637,1.2204885845
 C,0,1.7599192543,-1.5408781701,-1.0647958541
 C,0,-1.0423913715,1.0413262188,-0.0426636933
 C,0,1.3410163362,-1.4495014991,1.3587874059
 C,0,1.3918850237,-2.1632573651,0.0595692302
 H,0,1.1076230565,-2.0864282731,2.2449315875
 H,0,2.0393692988,-0.483074595,-1.0447077411
 H,0,1.1223682896,-3.2233732494,0.0626529897
 H,0,-0.4854580939,1.2792663238,1.9860461379
 H,0,-2.1939309535,1.8942877285,1.5217433248
 H,0,-0.1029849688,0.572100791,-0.3480059444
 C,0,-2.0723882992,1.2277819596,-1.0813454148
 O,0,-1.9445622006,0.896830445,-2.2353205116
 H,0,1.7969340308,-2.0599697365,-2.0248512845
 H,0,-3.0168507466,1.7115334766,-0.7213871669
 Recover connectivity data from disk.

 GradGradGradGradGradGradGradGradGradGradGradGradGradGradGradGradGradGrad
 Berny optimization.
 Initialization pass.
                           ----------------------------
                           !    Initial Parameters    !
                           ! (Angstroms and Degrees)  !
 --------------------------                            --------------------------
 ! Name  Definition              Value          Derivative Info.                !
 --------------------------------------------------------------------------------
 ! R1    R(1,5)                  1.2095         calculate D2E/DX2 analytically  !
 ! R2    R(2,4)                  1.3365         calculate D2E/DX2 analytically  !
 ! R3    R(2,10)                 1.0923         calculate D2E/DX2 analytically  !
 ! R4    R(2,11)                 1.0956         calculate D2E/DX2 analytically  !
 ! R5    R(3,6)                  1.3368         calculate D2E/DX2 analytically  !
 ! R6    R(3,8)                  1.0943         calculate D2E/DX2 analytically  !
 ! R7    R(3,15)                 1.092          calculate D2E/DX2 analytically  !
 ! R8    R(4,12)                 1.0936         calculate D2E/DX2 analytically  !
 ! R9    R(4,13)                 1.4746         calculate D2E/DX2 analytically  !
 ! R10   R(5,6)                  1.4832         calculate D2E/DX2 analytically  !
 ! R11   R(5,7)                  1.116          calculate D2E/DX2 analytically  !
 ! R12   R(6,9)                  1.0938         calculate D2E/DX2 analytically  !
 ! R13   R(8,12)                 2.4877         calculate D2E/DX2 analytically  !
 ! R14   R(13,14)                1.2073         calculate D2E/DX2 analytically  !
 ! R15   R(13,16)                1.1205         calculate D2E/DX2 analytically  !
 ! A1    A(4,2,10)             120.9813         calculate D2E/DX2 analytically  !
 ! A2    A(4,2,11)             121.1401         calculate D2E/DX2 analytically  !
 ! A3    A(10,2,11)            117.8786         calculate D2E/DX2 analytically  !
 ! A4    A(6,3,8)              120.3265         calculate D2E/DX2 analytically  !
 ! A5    A(6,3,15)             121.8345         calculate D2E/DX2 analytically  !
 ! A6    A(8,3,15)             117.8387         calculate D2E/DX2 analytically  !
 ! A7    A(2,4,12)             121.405          calculate D2E/DX2 analytically  !
 ! A8    A(2,4,13)             121.3623         calculate D2E/DX2 analytically  !
 ! A9    A(12,4,13)            117.2322         calculate D2E/DX2 analytically  !
 ! A10   A(1,5,6)              124.2337         calculate D2E/DX2 analytically  !
 ! A11   A(1,5,7)              120.4214         calculate D2E/DX2 analytically  !
 ! A12   A(6,5,7)              115.3448         calculate D2E/DX2 analytically  !
 ! A13   A(3,6,5)              121.476          calculate D2E/DX2 analytically  !
 ! A14   A(3,6,9)              121.4281         calculate D2E/DX2 analytically  !
 ! A15   A(5,6,9)              117.0943         calculate D2E/DX2 analytically  !
 ! A16   A(3,8,12)             101.2588         calculate D2E/DX2 analytically  !
 ! A17   A(4,12,8)             179.6886         calculate D2E/DX2 analytically  !
 ! A18   A(4,13,14)            124.3782         calculate D2E/DX2 analytically  !
 ! A19   A(4,13,16)            114.6481         calculate D2E/DX2 analytically  !
 ! A20   A(14,13,16)           120.9736         calculate D2E/DX2 analytically  !
 ! D1    D(10,2,4,12)           -0.0339         calculate D2E/DX2 analytically  !
 ! D2    D(10,2,4,13)          179.686          calculate D2E/DX2 analytically  !
 ! D3    D(11,2,4,12)         -179.971          calculate D2E/DX2 analytically  !
 ! D4    D(11,2,4,13)           -0.2511         calculate D2E/DX2 analytically  !
 ! D5    D(8,3,6,5)              0.3891         calculate D2E/DX2 analytically  !
 ! D6    D(8,3,6,9)           -179.1408         calculate D2E/DX2 analytically  !
 ! D7    D(15,3,6,5)          -179.838          calculate D2E/DX2 analytically  !
 ! D8    D(15,3,6,9)             0.6321         calculate D2E/DX2 analytically  !
 ! D9    D(6,3,8,12)           -63.8            calculate D2E/DX2 analytically  !
 ! D10   D(15,3,8,12)          116.4182         calculate D2E/DX2 analytically  !
 ! D11   D(2,4,12,8)           -86.7126         calculate D2E/DX2 analytically  !
 ! D12   D(13,4,12,8)           93.5564         calculate D2E/DX2 analytically  !
 ! D13   D(2,4,13,14)         -179.6572         calculate D2E/DX2 analytically  !
 ! D14   D(2,4,13,16)            0.2359         calculate D2E/DX2 analytically  !
 ! D15   D(12,4,13,14)           0.0739         calculate D2E/DX2 analytically  !
 ! D16   D(12,4,13,16)         179.9671         calculate D2E/DX2 analytically  !
 ! D17   D(1,5,6,3)              5.2849         calculate D2E/DX2 analytically  !
 ! D18   D(1,5,6,9)           -175.1657         calculate D2E/DX2 analytically  !
 ! D19   D(7,5,6,3)           -174.8555         calculate D2E/DX2 analytically  !
 ! D20   D(7,5,6,9)              4.6939         calculate D2E/DX2 analytically  !
 ! D21   D(3,8,12,4)          -172.9242         calculate D2E/DX2 analytically  !
 --------------------------------------------------------------------------------
 Trust Radius=1.00D-01 FncErr=1.00D-07 GrdErr=1.00D-06 EigMax=2.50D+02 EigMin=1.00D-04
 Number of steps in this run=     50 maximum allowed number of steps=    100.
 Search for a saddle point of order  1.
 GradGradGradGradGradGradGradGradGradGradGradGradGradGradGradGradGradGrad

                          Input orientation:                          
 ---------------------------------------------------------------------
 Center     Atomic      Atomic             Coordinates (Angstroms)
 Number     Number       Type             X           Y           Z
 ---------------------------------------------------------------------
      1          8           0        1.530444   -0.262251    1.490758
      2          6           0       -1.250893    1.425007    1.220489
      3          6           0        1.759919   -1.540878   -1.064796
      4          6           0       -1.042391    1.041326   -0.042664
      5          6           0        1.341016   -1.449501    1.358787
      6          6           0        1.391885   -2.163257    0.059569
      7          1           0        1.107623   -2.086428    2.244932
      8          1           0        2.039369   -0.483075   -1.044708
      9          1           0        1.122368   -3.223373    0.062653
     10          1           0       -0.485458    1.279266    1.986046
     11          1           0       -2.193931    1.894288    1.521743
     12          1           0       -0.102985    0.572101   -0.348006
     13          6           0       -2.072388    1.227782   -1.081345
     14          8           0       -1.944562    0.896830   -2.235321
     15          1           0        1.796934   -2.059970   -2.024851
     16          1           0       -3.016851    1.711533   -0.721387
 ---------------------------------------------------------------------
                    Distance matrix (angstroms):
                    1          2          3          4          5
     1  O    0.000000
     2  C    3.264310   0.000000
     3  C    2.866776   4.804580   0.000000
     4  C    3.266524   1.336502   3.945311   0.000000
     5  C    1.209489   3.872973   2.461216   3.721414   0.000000
     6  C    2.383553   4.605176   1.336788   4.025607   1.483241
     7  H    2.018707   4.352270   3.417223   4.431535   1.115975
     8  H    2.595449   4.426931   1.094278   3.581220   2.682996
     9  H    3.312742   5.346063   2.123300   4.783820   2.207803
    10  H    2.585623   1.092341   4.722560   2.117181   3.342998
    11  H    4.303788   1.095582   5.841531   2.121546   4.868607
    12  H    2.597169   2.122573   2.906696   1.093568   3.014160
    13  C    4.670794   2.451977   4.727826   1.474625   4.977291
    14  O    5.225208   3.564094   4.586473   2.375402   5.405360
    15  H    3.957565   5.653896   1.092031   4.648534   3.468363
    16  H    5.428380   2.640376   5.789097   2.192791   5.771505
                    6          7          8          9         10
     6  C    0.000000
     7  H    2.205111   0.000000
     8  H    2.112268   3.776324   0.000000
     9  H    1.093844   2.460732   3.094572   0.000000
    10  H    4.368833   3.732671   4.320425   5.153476   0.000000
    11  H    5.608895   5.222007   5.491753   6.270346   1.874222
    12  H    3.143714   3.905979   2.487664   4.009458   2.468637
    13  C    4.980163   5.671030   4.453642   5.597141   3.453967
    14  O    5.075681   6.187756   4.381028   5.626973   4.482765
    15  H    2.125921   4.325147   1.872446   2.483188   5.696236
    16  H    5.921220   6.343094   5.521431   6.488540   3.731621
                   11         12         13         14         15
    11  H    0.000000
    12  H    3.100999   0.000000
    13  C    2.689809   2.201421   0.000000
    14  O    3.895207   2.656843   1.207281   0.000000
    15  H    6.643906   3.653669   5.164414   4.773443   0.000000
    16  H    2.396295   3.150926   1.120533   2.026213   6.252662
                   16
    16  H    0.000000
 Stoichiometry    C6H8O2
 Framework group  C1[X(C6H8O2)]
 Deg. of freedom    42
 Full point group                 C1      NOp   1
 Largest Abelian subgroup         C1      NOp   1
 Largest concise Abelian subgroup C1      NOp   1
                         Standard orientation:                         
 ---------------------------------------------------------------------
 Center     Atomic      Atomic             Coordinates (Angstroms)
 Number     Number       Type             X           Y           Z
 ---------------------------------------------------------------------
      1          8           0       -1.719684    1.232323    0.558313
      2          6           0        1.437610    1.813074   -0.033246
      3          6           0       -1.884013   -1.626971    0.432476
      4          6           0        1.433746    0.488259    0.143070
      5          6           0       -2.247147    0.669983   -0.373577
      6          6           0       -2.319735   -0.803591   -0.526269
      7          1           0       -2.720043    1.259225   -1.194894
      8          1           0       -1.467075   -1.223202    1.360149
      9          1           0       -2.752417   -1.187546   -1.454633
     10          1           0        0.550738    2.412041    0.185626
     11          1           0        2.328571    2.332906   -0.402385
     12          1           0        0.546751   -0.035078    0.510834
     13          6           0        2.623957   -0.329275   -0.156188
     14          8           0        2.678718   -1.527931   -0.022944
     15          1           0       -1.932252   -2.712644    0.325149
     16          1           0        3.506942    0.250291   -0.530400
 ---------------------------------------------------------------------
 Rotational constants (GHZ):           2.6333912           0.9699783           0.7487814
 Standard basis: def2SVP (5D, 7F)
 There are   160 symmetry adapted cartesian basis functions of A   symmetry.
 There are   152 symmetry adapted basis functions of A   symmetry.
   152 basis functions,   256 primitive gaussians,   160 cartesian basis functions
    30 alpha electrons       30 beta electrons
       nuclear repulsion energy       316.5887840818 Hartrees.
 NAtoms=   16 NActive=   16 NUniq=   16 SFac= 1.00D+00 NAtFMM=   60 NAOKFM=F Big=F
 Integral buffers will be    131072 words long.
 Raffenetti 2 integral format.
 Two-electron integral symmetry is turned on.
 Nuclear repulsion after empirical dispersion term =      316.5822563627 Hartrees.
 Force inversion solution in PCM.
 ------------------------------------------------------------------------------
 Polarizable Continuum Model (PCM)
 =================================
 Model                : PCM.
 Atomic radii         : UFF (Universal Force Field).
 Polarization charges : Total charges.
 Charge compensation  : None.
 Solution method      : Matrix inversion.
 Cavity type          : Scaled VdW (van der Waals Surface) (Alpha=1.100).
 Cavity algorithm     : GePol (No added spheres)
                        Default sphere list used, NSphG=   16.
                        Lebedev-Laikov grids with approx.  5.0 points / Ang**2.
                        Smoothing algorithm: York/Karplus (Gamma=1.0000).
                        Polarization charges: spherical gaussians, with
                                              point-specific exponents (IZeta= 3).
                        Self-potential: point-specific (ISelfS= 7).
                        Self-field    : sphere-specific E.n sum rule (ISelfD= 2).
 1st derivatives      : Analytical E(r).r(x)/FMM algorithm (CHGder, D1EAlg=3).
                        Cavity 1st derivative terms included.
 2nd derivatives      : Analytical E(r).r(xy)/FMM algorithm (CHGder, D2EAlg=3).
                        Cavity 2nd derivative terms included.
 Solvent              : Toluene, Eps=   2.374100 Eps(inf)=   2.238315
 ------------------------------------------------------------------------------
 Spheres list:
 ISph  on   Nord     Re0    Alpha      Xe            Ye            Ze
    1   O      1    1.7500  1.100     -1.719684      1.232323      0.558313
    2   C      2    1.9255  1.100      1.437610      1.813074     -0.033246
    3   C      3    1.9255  1.100     -1.884013     -1.626971      0.432476
    4   C      4    1.9255  1.100      1.433746      0.488259      0.143070
    5   C      5    1.9255  1.100     -2.247147      0.669983     -0.373577
    6   C      6    1.9255  1.100     -2.319735     -0.803591     -0.526269
    7   H      7    1.4430  1.100     -2.720043      1.259225     -1.194894
    8   H      8    1.4430  1.100     -1.467075     -1.223202      1.360149
    9   H      9    1.4430  1.100     -2.752417     -1.187546     -1.454633
   10   H     10    1.4430  1.100      0.550738      2.412041      0.185626
   11   H     11    1.4430  1.100      2.328571      2.332906     -0.402385
   12   H     12    1.4430  1.100      0.546751     -0.035078      0.510834
   13   C     13    1.9255  1.100      2.623957     -0.329275     -0.156188
   14   O     14    1.7500  1.100      2.678718     -1.527931     -0.022944
   15   H     15    1.4430  1.100     -1.932252     -2.712644      0.325149
   16   H     16    1.4430  1.100      3.506942      0.250291     -0.530400
 ------------------------------------------------------------------------------
 One-electron integrals computed using PRISM.
   1 Symmetry operations used in ECPInt.
 ECPInt:  NShTT=    2628 NPrTT=    9444 LenC2=    2570 LenP2D=    7142.
 LDataN:  DoStor=T MaxTD1= 4 Len=   56
 NBasis=   152 RedAO= T EigKep=  2.25D-03  NBF=   152
 NBsUse=   152 1.00D-06 EigRej= -1.00D+00 NBFU=   152
 ExpMin= 1.22D-01 ExpMax= 2.27D+03 ExpMxC= 3.41D+02 IAcc=3 IRadAn=         5 AccDes= 0.00D+00
 Harris functional with IExCor= 4639 and IRadAn=       5 diagonalized for initial guess.
 HarFok:  IExCor= 4639 AccDes= 0.00D+00 IRadAn=         5 IDoV= 1 UseB2=F ITyADJ=14
 ICtDFT=  3500011 ScaDFX=  1.000000  1.000000  1.000000  1.000000
 FoFCou: FMM=F IPFlag=           0 FMFlag=      100000 FMFlg1=           0
         NFxFlg=           0 DoJE=T BraDBF=F KetDBF=T FulRan=T
         wScrn=  0.000000 ICntrl=       500 IOpCl=  0 I1Cent=   200000004 NGrid=           0
         NMat0=    1 NMatS0=      1 NMatT0=    0 NMatD0=    1 NMtDS0=    0 NMtDT0=    0
 Petite list used in FoFCou.
 Requested convergence on RMS density matrix=1.00D-08 within 128 cycles.
 Requested convergence on MAX density matrix=1.00D-06.
 Requested convergence on             energy=1.00D-06.
 No special actions if energy rises.
 Inv3:  Mode=1 IEnd=     6931200.
 Iteration    1 A*A^-1 deviation from unit magnitude is 3.11D-15 for    738.
 Iteration    1 A*A^-1 deviation from orthogonality  is 2.06D-15 for   1136    157.
 Iteration    1 A^-1*A deviation from unit magnitude is 3.33D-15 for    738.
 Iteration    1 A^-1*A deviation from orthogonality  is 1.60D-15 for   1104    196.
 Error on total polarization charges =  0.00526
 SCF Done:  E(RwB97XD) =  -383.414457498     A.U. after   15 cycles
            NFock= 15  Conv=0.40D-08     -V/T= 2.0097
 DoSCS=F DFT=T ScalE2(SS,OS)=  1.000000  1.000000
 Range of M.O.s used for correlation:     1   152
 NBasis=   152 NAE=    30 NBE=    30 NFC=     0 NFV=     0
 NROrb=    152 NOA=    30 NOB=    30 NVA=   122 NVB=   122
   1 Symmetry operations used in ECPInt.
 ECPInt:  NShTT=    2628 NPrTT=    9444 LenC2=    2570 LenP2D=    7142.
 LDataN:  DoStor=T MaxTD1= 5 Len=  102
 Symmetrizing basis deriv contribution to polar:
 IMax=3 JMax=2 DiffMx= 0.00D+00
 G2DrvN: will do    17 centers at a time, making    1 passes.
 Calling FoFCou, ICntrl=  3107 FMM=F I1Cent=   0 AccDes= 0.00D+00.
 NEqPCM:  Using equilibrium solvation (IEInf=0, Eps=   2.3741, EpsInf=   2.2383)
 G2PCM: DoFxE=T DoFxN=T DoGrad=T DoDP/DQ/DG/TGxP=FFFF NFrqRd=   0 IEInf=0 SqF1=F DoCFld=F IF1Alg=4.
 End of G2Drv F.D. properties file   721 does not exist.
 End of G2Drv F.D. properties file   722 does not exist.
 End of G2Drv F.D. properties file   788 does not exist.
          IDoAtm=1111111111111111
 NEqPCM:  Using equilibrium solvation (IEInf=0, Eps=   2.3741, EpsInf=   2.2383)
          Differentiating once with respect to nuclear coordinates.
 Keep R1 ints in memory in canonical form, NReq=148857505.
          There are    51 degrees of freedom in the 1st order CPHF.  IDoFFX=6 NUNeed=     0.
     45 vectors produced by pass  0 Test12= 7.18D-15 1.96D-09 XBig12= 8.11D-02 7.07D-02.
 AX will form    45 AO Fock derivatives at one time.
     45 vectors produced by pass  1 Test12= 7.18D-15 1.96D-09 XBig12= 5.79D-03 2.56D-02.
     45 vectors produced by pass  2 Test12= 7.18D-15 1.96D-09 XBig12= 1.10D-04 3.29D-03.
     45 vectors produced by pass  3 Test12= 7.18D-15 1.96D-09 XBig12= 8.86D-07 1.80D-04.
     45 vectors produced by pass  4 Test12= 7.18D-15 1.96D-09 XBig12= 6.28D-09 1.33D-05.
     45 vectors produced by pass  5 Test12= 7.18D-15 1.96D-09 XBig12= 4.31D-11 1.05D-06.
     35 vectors produced by pass  6 Test12= 7.18D-15 1.96D-09 XBig12= 2.22D-13 8.60D-08.
      7 vectors produced by pass  7 Test12= 7.18D-15 1.96D-09 XBig12= 9.83D-16 4.95D-09.
 InvSVY:  IOpt=1 It=  1 EMax= 2.22D-16
 Solved reduced A of dimension   312 with    51 vectors.
 End of Minotr F.D. properties file   721 does not exist.
 End of Minotr F.D. properties file   722 does not exist.
 End of Minotr F.D. properties file   788 does not exist.

 **********************************************************************

            Population analysis using the SCF Density.

 **********************************************************************

 Orbital symmetries:
       Occupied  (A) (A) (A) (A) (A) (A) (A) (A) (A) (A) (A) (A)
                 (A) (A) (A) (A) (A) (A) (A) (A) (A) (A) (A) (A)
                 (A) (A) (A) (A) (A) (A)
       Virtual   (A) (A) (A) (A) (A) (A) (A) (A) (A) (A) (A) (A)
                 (A) (A) (A) (A) (A) (A) (A) (A) (A) (A) (A) (A)
                 (A) (A) (A) (A) (A) (A) (A) (A) (A) (A) (A) (A)
                 (A) (A) (A) (A) (A) (A) (A) (A) (A) (A) (A) (A)
                 (A) (A) (A) (A) (A) (A) (A) (A) (A) (A) (A) (A)
                 (A) (A) (A) (A) (A) (A) (A) (A) (A) (A) (A) (A)
                 (A) (A) (A) (A) (A) (A) (A) (A) (A) (A) (A) (A)
                 (A) (A) (A) (A) (A) (A) (A) (A) (A) (A) (A) (A)
                 (A) (A) (A) (A) (A) (A) (A) (A) (A) (A) (A) (A)
                 (A) (A) (A) (A) (A) (A) (A) (A) (A) (A) (A) (A)
                 (A) (A)
 The electronic state is 1-A.
 Alpha  occ. eigenvalues --  -19.26572 -19.25442 -10.39758 -10.38761 -10.33015
 Alpha  occ. eigenvalues --  -10.32392 -10.31869 -10.31003  -1.14779  -1.13772
 Alpha  occ. eigenvalues --   -0.89018  -0.88867  -0.75123  -0.72913  -0.65516
 Alpha  occ. eigenvalues --   -0.63462  -0.60578  -0.56485  -0.55887  -0.54371
 Alpha  occ. eigenvalues --   -0.51879  -0.50786  -0.49449  -0.49132  -0.47216
 Alpha  occ. eigenvalues --   -0.46604  -0.37521  -0.36938  -0.35405  -0.34191
 Alpha virt. eigenvalues --   -0.00611   0.00895   0.13306   0.13606   0.15167
 Alpha virt. eigenvalues --    0.16049   0.17118   0.19395   0.21112   0.22040
 Alpha virt. eigenvalues --    0.23697   0.26848   0.30822   0.31085   0.37340
 Alpha virt. eigenvalues --    0.38696   0.39574   0.41976   0.45775   0.47569
 Alpha virt. eigenvalues --    0.49694   0.52062   0.53952   0.55865   0.57395
 Alpha virt. eigenvalues --    0.58269   0.59686   0.60573   0.63380   0.64986
 Alpha virt. eigenvalues --    0.67805   0.69430   0.69995   0.70640   0.73123
 Alpha virt. eigenvalues --    0.73916   0.74712   0.74861   0.75802   0.76402
 Alpha virt. eigenvalues --    0.78156   0.79083   0.80793   0.86475   0.89171
 Alpha virt. eigenvalues --    0.90949   0.94030   0.98564   1.07206   1.09792
 Alpha virt. eigenvalues --    1.10850   1.18455   1.19980   1.21744   1.23541
 Alpha virt. eigenvalues --    1.26459   1.27737   1.29416   1.32923   1.32984
 Alpha virt. eigenvalues --    1.34125   1.37329   1.50696   1.51478   1.52785
 Alpha virt. eigenvalues --    1.52947   1.65252   1.66127   1.70196   1.70871
 Alpha virt. eigenvalues --    1.75091   1.77620   1.78450   1.79414   1.79858
 Alpha virt. eigenvalues --    1.83066   1.84973   1.87540   1.89564   1.91124
 Alpha virt. eigenvalues --    1.92136   1.94696   1.96360   1.98861   2.02998
 Alpha virt. eigenvalues --    2.10706   2.11301   2.15412   2.16398   2.18709
 Alpha virt. eigenvalues --    2.21334   2.22690   2.30995   2.36776   2.43237
 Alpha virt. eigenvalues --    2.43286   2.52110   2.53794   2.54585   2.55865
 Alpha virt. eigenvalues --    2.58504   2.59184   2.66614   2.67604   2.79309
 Alpha virt. eigenvalues --    2.79944   2.80890   2.81975   2.87930   2.88316
 Alpha virt. eigenvalues --    2.93268   2.97508   3.07147   3.14635   3.22286
 Alpha virt. eigenvalues --    3.23234   3.24015   3.39844   3.53568   3.58008
 Alpha virt. eigenvalues --    3.69783   3.70504
          Condensed to atoms (all electrons):
               1          2          3          4          5          6
     1  O    7.721527  -0.005184   0.010416  -0.001410   0.642908  -0.119153
     2  C   -0.005184   4.775286  -0.000059   0.515450   0.000270   0.000117
     3  C    0.010416  -0.000059   4.673593  -0.001879  -0.023220   0.581750
     4  C   -0.001410   0.515450  -0.001879   5.263693   0.000492   0.000223
     5  C    0.642908   0.000270  -0.023220   0.000492   4.575223   0.231819
     6  C   -0.119153   0.000117   0.581750   0.000223   0.231819   5.241449
     7  H   -0.039694   0.000023   0.011684  -0.000052   0.419596  -0.121463
     8  H    0.012554  -0.000036   0.398445  -0.001730  -0.015583  -0.029972
     9  H    0.003061  -0.000001  -0.031209  -0.000073  -0.025299   0.386273
    10  H    0.013618   0.379342  -0.000073  -0.004920  -0.000043   0.000692
    11  H    0.000086   0.397345  -0.000004  -0.030604   0.000015  -0.000000
    12  H    0.008569  -0.023498   0.005772   0.363241   0.000423  -0.003643
    13  C    0.000256  -0.015024  -0.000072   0.244796   0.000067  -0.000294
    14  O   -0.000000   0.005940   0.000006  -0.096005  -0.000007   0.000005
    15  H    0.000278  -0.000001   0.393045   0.000065   0.007177  -0.017157
    16  H   -0.000002   0.013857  -0.000001  -0.136082  -0.000008   0.000002
               7          8          9         10         11         12
     1  O   -0.039694   0.012554   0.003061   0.013618   0.000086   0.008569
     2  C    0.000023  -0.000036  -0.000001   0.379342   0.397345  -0.023498
     3  C    0.011684   0.398445  -0.031209  -0.000073  -0.000004   0.005772
     4  C   -0.000052  -0.001730  -0.000073  -0.004920  -0.030604   0.363241
     5  C    0.419596  -0.015583  -0.025299  -0.000043   0.000015   0.000423
     6  C   -0.121463  -0.029972   0.386273   0.000692  -0.000000  -0.003643
     7  H    0.697437   0.001022  -0.000046  -0.000586  -0.000003   0.000656
     8  H    0.001022   0.568149   0.006768  -0.000043  -0.000002   0.004291
     9  H   -0.000046   0.006768   0.614416  -0.000025  -0.000000   0.000239
    10  H   -0.000586  -0.000043  -0.000025   0.572011  -0.035651  -0.014579
    11  H   -0.000003  -0.000002  -0.000000  -0.035651   0.600957   0.007301
    12  H    0.000656   0.004291   0.000239  -0.014579   0.007301   0.622912
    13  C    0.000017   0.000084   0.000004   0.005628  -0.013912  -0.026708
    14  O   -0.000000  -0.000040   0.000000  -0.000126   0.000130   0.008622
    15  H   -0.000160  -0.033520  -0.010551  -0.000000   0.000000  -0.000200
    16  H   -0.000000  -0.000004   0.000000  -0.000458   0.007994   0.008717
              13         14         15         16
     1  O    0.000256  -0.000000   0.000278  -0.000002
     2  C   -0.015024   0.005940  -0.000001   0.013857
     3  C   -0.000072   0.000006   0.393045  -0.000001
     4  C    0.244796  -0.096005   0.000065  -0.136082
     5  C    0.000067  -0.000007   0.007177  -0.000008
     6  C   -0.000294   0.000005  -0.017157   0.000002
     7  H    0.000017  -0.000000  -0.000160  -0.000000
     8  H    0.000084  -0.000040  -0.033520  -0.000004
     9  H    0.000004   0.000000  -0.010551   0.000000
    10  H    0.005628  -0.000126  -0.000000  -0.000458
    11  H   -0.013912   0.000130   0.000000   0.007994
    12  H   -0.026708   0.008622  -0.000200   0.008717
    13  C    4.555188   0.656844   0.000003   0.414056
    14  O    0.656844   7.717688   0.000002  -0.040461
    15  H    0.000003   0.000002   0.577414   0.000000
    16  H    0.414056  -0.040461   0.000000   0.720013
 Mulliken charges:
               1
     1  O   -0.247827
     2  C   -0.043827
     3  C   -0.018197
     4  C   -0.115205
     5  C    0.186169
     6  C   -0.150646
     7  H    0.031569
     8  H    0.089618
     9  H    0.056443
    10  H    0.085213
    11  H    0.066349
    12  H    0.037886
    13  C    0.179067
    14  O   -0.252596
    15  H    0.083606
    16  H    0.012377
 Sum of Mulliken charges =  -0.00000
 Mulliken charges with hydrogens summed into heavy atoms:
               1
     1  O   -0.247827
     2  C    0.107736
     3  C    0.155027
     4  C   -0.077319
     5  C    0.217737
     6  C   -0.094203
    13  C    0.191444
    14  O   -0.252596
 APT charges:
               1
     1  O   -0.353590
     2  C   -0.406999
     3  C   -0.477576
     4  C   -0.337099
     5  C   -0.265997
     6  C   -0.544386
     7  H    0.471745
     8  H    0.084955
     9  H    0.541347
    10  H    0.217816
    11  H    0.612621
    12  H   -0.067048
    13  C   -0.715258
    14  O    0.155076
    15  H    0.576919
    16  H    0.507472
 Sum of APT charges =  -0.00000
 APT charges with hydrogens summed into heavy atoms:
               1
     1  O   -0.353590
     2  C    0.423438
     3  C    0.184298
     4  C   -0.404147
     5  C    0.205748
     6  C   -0.003038
    13  C   -0.207785
    14  O    0.155076
 Electronic spatial extent (au):  <R**2>=           1465.0761
 Charge=             -0.0000 electrons
 Dipole moment (field-independent basis, Debye):
    X=             -2.1225    Y=              1.1106    Z=             -1.7172  Tot=              2.9474
 Quadrupole moment (field-independent basis, Debye-Ang):
   XX=            -45.5811   YY=            -48.1280   ZZ=            -46.5536
   XY=             11.6230   XZ=              2.7810   YZ=             -2.9063
 Traceless Quadrupole moment (field-independent basis, Debye-Ang):
   XX=              1.1732   YY=             -1.3738   ZZ=              0.2006
   XY=             11.6230   XZ=              2.7810   YZ=             -2.9063
 Octapole moment (field-independent basis, Debye-Ang**2):
  XXX=            -10.3702  YYY=              2.2661  ZZZ=              0.6690  XYY=            -11.4942
  XXY=             19.6261  XXZ=            -13.2401  XZZ=             -2.6798  YZZ=             -3.6041
  YYZ=             -1.8645  XYZ=              2.0063
 Hexadecapole moment (field-independent basis, Debye-Ang**3):
 XXXX=          -1294.1253 YYYY=           -467.6165 ZZZZ=            -98.7341 XXXY=             36.4034
 XXXZ=             13.6805 YYYX=             31.3535 YYYZ=             -4.9967 ZZZX=              0.6643
 ZZZY=              1.1525 XXYY=           -319.6030 XXZZ=           -224.3227 YYZZ=            -99.4254
 XXYZ=             -8.5833 YYXZ=              1.3317 ZZXY=             -6.9558
 N-N= 3.165822563627D+02 E-N=-1.527060352145D+03  KE= 3.797379718657D+02
  Exact polarizability:       0.000       0.000       0.000       0.000       0.000       0.000
 Approx polarizability:      58.178      -4.991     108.293       7.043      -7.330      61.314
   1 Symmetry operations used in ECPInt.
 ECPInt:  NShTT=    2628 NPrTT=    9444 LenC2=    2570 LenP2D=    7142.
 LDataN:  DoStor=T MaxTD1= 6 Len=  172
 D2PCM: PCM CHGder 2nd derivatives, FixD1E=F FixD2E=F DoIter=F DoCFld=F I1PDM=0
 Calling FoFJK, ICntrl=    100127 FMM=F ISym2X=0 I1Cent= 0 IOpClX= 0 NMat=1 NMatS=1 NMatT=0.
 ***** Axes restored to original set *****
 -------------------------------------------------------------------
 Center     Atomic                   Forces (Hartrees/Bohr)
 Number     Number              X              Y              Z
 -------------------------------------------------------------------
      1        8           0.000117088   -0.000008017    0.000046700
      2        6          -0.000053265    0.000084462    0.000023147
      3        6           0.000001218    0.000017193   -0.000120378
      4        6          -0.000075853   -0.000009360    0.000012396
      5        6           0.000130058   -0.000107095   -0.000004934
      6        6          -0.000042231   -0.000001945    0.000042970
      7        1          -0.000052883    0.000019844   -0.000019759
      8        1           0.000105323   -0.000094671    0.000075506
      9        1           0.000044212   -0.000003495    0.000017245
     10        1           0.000033470   -0.000013771   -0.000034481
     11        1          -0.000003073   -0.000007858   -0.000017213
     12        1          -0.000261210    0.000105350   -0.000038112
     13        6           0.000059611    0.000017198    0.000053605
     14        8          -0.000018245   -0.000003198   -0.000041303
     15        1           0.000012264   -0.000007744    0.000005021
     16        1           0.000003515    0.000013108   -0.000000411
 -------------------------------------------------------------------
 Cartesian Forces:  Max     0.000261210 RMS     0.000065149
 FormGI is forming the generalized inverse of G from B-inverse, IUseBI=4.

 GradGradGradGradGradGradGradGradGradGradGradGradGradGradGradGradGradGrad
 Berny optimization.
 Internal  Forces:  Max     0.000488914 RMS     0.000130331
 Search for a saddle point.
 Step number   1 out of a maximum of   50
 All quantities printed in internal units (Hartrees-Bohrs-Radians)
 Swapping is turned off.
 Second derivative matrix not updated -- analytic derivatives used.
 ITU=  0
     Eigenvalues ---   -0.00001   0.00059   0.00151   0.00362   0.00682
     Eigenvalues ---    0.00694   0.01666   0.01791   0.02337   0.02541
     Eigenvalues ---    0.03301   0.03511   0.04683   0.07328   0.07946
     Eigenvalues ---    0.08745   0.10135   0.10308   0.10487   0.11273
     Eigenvalues ---    0.11814   0.14208   0.14469   0.15688   0.16817
     Eigenvalues ---    0.19511   0.22704   0.23056   0.30403   0.31299
     Eigenvalues ---    0.32668   0.33513   0.35994   0.36267   0.36591
     Eigenvalues ---    0.36798   0.36936   0.37246   0.64472   0.64778
     Eigenvalues ---    0.89659   0.91415
 Eigenvectors required to have negative eigenvalues:
                          D21       D12       D11       A17       R13
   1                   -0.57436   0.57241   0.57184   0.11445   0.04804
                          D19       D20       D17       D18       A7
   1                   -0.00306  -0.00261  -0.00252  -0.00206   0.00186
 RFO step:  Lambda0=4.917356520D-06 Lambda=-3.28621940D-05.
 Linear search not attempted -- option 19 set.
 Maximum step size (   0.100) exceeded in Quadratic search.
    -- Step size scaled by   0.919
 Iteration  1 RMS(Cart)=  0.05267026 RMS(Int)=  0.01394631
 Iteration  2 RMS(Cart)=  0.00532223 RMS(Int)=  0.00006737
 Iteration  3 RMS(Cart)=  0.00009481 RMS(Int)=  0.00000068
 Iteration  4 RMS(Cart)=  0.00000015 RMS(Int)=  0.00000068
 Variable       Old X    -DE/DX   Delta X   Delta X   Delta X     New X
                                 (Linear)    (Quad)   (Total)
    R1        2.28560   0.00001   0.00000   0.00002   0.00002   2.28563
    R2        2.52562  -0.00001   0.00000   0.00001   0.00001   2.52564
    R3        2.06423  -0.00000   0.00000   0.00012   0.00012   2.06435
    R4        2.07035  -0.00000   0.00000  -0.00007  -0.00007   2.07028
    R5        2.52616   0.00007   0.00000   0.00016   0.00016   2.52632
    R6        2.06789   0.00003   0.00000  -0.00018  -0.00018   2.06771
    R7        2.06364  -0.00000   0.00000   0.00001   0.00001   2.06365
    R8        2.06654   0.00008   0.00000  -0.00022  -0.00022   2.06632
    R9        2.78664  -0.00003   0.00000  -0.00031  -0.00031   2.78633
   R10        2.80292  -0.00003   0.00000   0.00011   0.00011   2.80303
   R11        2.10889  -0.00001   0.00000  -0.00003  -0.00003   2.10886
   R12        2.06707  -0.00001   0.00000   0.00001   0.00001   2.06708
   R13        4.70100   0.00034   0.00000   0.05251   0.05251   4.75351
   R14        2.28143   0.00004   0.00000   0.00007   0.00007   2.28150
   R15        2.11750   0.00000   0.00000  -0.00000  -0.00000   2.11750
    A1        2.11152  -0.00005   0.00000  -0.00134  -0.00134   2.11018
    A2        2.11429   0.00000   0.00000   0.00060   0.00060   2.11490
    A3        2.05737   0.00005   0.00000   0.00074   0.00074   2.05811
    A4        2.10009   0.00012   0.00000   0.00054   0.00054   2.10063
    A5        2.12641  -0.00007   0.00000  -0.00048  -0.00048   2.12594
    A6        2.05667  -0.00006   0.00000  -0.00007  -0.00007   2.05661
    A7        2.11892   0.00006   0.00000  -0.00263  -0.00263   2.11629
    A8        2.11817  -0.00003   0.00000   0.00069   0.00069   2.11886
    A9        2.04609  -0.00003   0.00000   0.00195   0.00195   2.04804
   A10        2.16829   0.00005   0.00000   0.00031   0.00031   2.16859
   A11        2.10175  -0.00002   0.00000  -0.00005  -0.00005   2.10170
   A12        2.01315  -0.00002   0.00000  -0.00026  -0.00026   2.01289
   A13        2.12016   0.00011   0.00000   0.00088   0.00088   2.12103
   A14        2.11932  -0.00004   0.00000  -0.00028  -0.00028   2.11904
   A15        2.04368  -0.00006   0.00000  -0.00061  -0.00061   2.04307
   A16        1.76730   0.00034   0.00000  -0.00053  -0.00053   1.76677
   A17        3.13616  -0.00022   0.00000  -0.08418  -0.08418   3.05198
   A18        2.17081   0.00003   0.00000   0.00039   0.00039   2.17119
   A19        2.00099  -0.00001   0.00000  -0.00027  -0.00027   2.00071
   A20        2.11139  -0.00002   0.00000  -0.00011  -0.00011   2.11128
    D1       -0.00059  -0.00002   0.00000  -0.00004  -0.00004  -0.00063
    D2        3.13611   0.00003   0.00000   0.00256   0.00256   3.13867
    D3       -3.14109  -0.00002   0.00000  -0.00081  -0.00081   3.14129
    D4       -0.00438   0.00003   0.00000   0.00179   0.00178  -0.00260
    D5        0.00679  -0.00020   0.00000   0.00021   0.00021   0.00701
    D6       -3.12660  -0.00006   0.00000   0.00109   0.00109  -3.12551
    D7       -3.13877  -0.00028   0.00000  -0.00071  -0.00071  -3.13948
    D8        0.01103  -0.00014   0.00000   0.00016   0.00016   0.01119
    D9       -1.11352  -0.00049   0.00000   0.00851   0.00851  -1.10501
   D10        2.03188  -0.00041   0.00000   0.00940   0.00940   2.04128
   D11       -1.51342   0.00002   0.00000   0.06584   0.06584  -1.44758
   D12        1.63287  -0.00002   0.00000   0.06335   0.06335   1.69622
   D13       -3.13561  -0.00002   0.00000  -0.00189  -0.00190  -3.13751
   D14        0.00412  -0.00001   0.00000  -0.00107  -0.00108   0.00304
   D15        0.00129   0.00002   0.00000   0.00059   0.00059   0.00188
   D16        3.14102   0.00004   0.00000   0.00141   0.00141  -3.14076
   D17        0.09224  -0.00005   0.00000  -0.00065  -0.00065   0.09159
   D18       -3.05722  -0.00018   0.00000  -0.00148  -0.00148  -3.05870
   D19       -3.05180   0.00001   0.00000  -0.00120  -0.00120  -3.05301
   D20        0.08192  -0.00012   0.00000  -0.00204  -0.00204   0.07989
   D21       -3.01810   0.00000   0.00000  -0.07391  -0.07391  -3.09201
         Item               Value     Threshold  Converged?
 Maximum Force            0.000489     0.000450     NO 
 RMS     Force            0.000130     0.000300     YES
 Maximum Displacement     0.156505     0.001800     NO 
 RMS     Displacement     0.051714     0.001200     NO 
 Predicted change in Energy=-1.565730D-05
 GradGradGradGradGradGradGradGradGradGradGradGradGradGradGradGradGradGrad

                          Input orientation:                          
 ---------------------------------------------------------------------
 Center     Atomic      Atomic             Coordinates (Angstroms)
 Number     Number       Type             X           Y           Z
 ---------------------------------------------------------------------
      1          8           0        1.499367   -0.277406    1.489600
      2          6           0       -1.262537    1.447056    1.216956
      3          6           0        1.788176   -1.551996   -1.063494
      4          6           0       -1.078876    1.032174   -0.040183
      5          6           0        1.348521   -1.470170    1.357492
      6          6           0        1.431975   -2.183532    0.059677
      7          1           0        1.127851   -2.113232    2.242447
      8          1           0        2.033857   -0.485923   -1.044358
      9          1           0        1.197239   -3.251893    0.063095
     10          1           0       -0.501623    1.274545    1.981548
     11          1           0       -2.178640    1.969525    1.513605
     12          1           0       -0.164928    0.510840   -0.337750
     13          6           0       -2.100052    1.255951   -1.079969
     14          8           0       -1.992647    0.901319   -2.229019
     15          1           0        1.849222   -2.072209   -2.021722
     16          1           0       -3.016805    1.794352   -0.726024
 ---------------------------------------------------------------------
                    Distance matrix (angstroms):
                    1          2          3          4          5
     1  O    0.000000
     2  C    3.267449   0.000000
     3  C    2.868149   4.847847   0.000000
     4  C    3.271479   1.336509   3.993130   0.000000
     5  C    1.209501   3.917600   2.461944   3.755993   0.000000
     6  C    2.383807   4.666997   1.336873   4.081067   1.483299
     7  H    2.018678   4.409223   3.417640   4.469187   1.115961
     8  H    2.598096   4.440289   1.094183   3.605842   2.684644
     9  H    3.312668   5.427893   2.123219   4.852278   2.207462
    10  H    2.579638   1.092406   4.743922   2.116450   3.368374
    11  H    4.310106   1.095545   5.897303   2.121878   4.929172
    12  H    2.594305   2.120934   2.931997   1.093452   3.014759
    13  C    4.680779   2.452309   4.796160   1.474460   5.026491
    14  O    5.235617   3.564496   4.655300   2.375522   5.445221
    15  H    3.958926   5.705902   1.092039   4.705045   3.468752
    16  H    5.440311   2.640689   5.865132   2.192456   5.835599
                    6          7          8          9         10
     6  C    0.000000
     7  H    2.204977   0.000000
     8  H    2.112588   3.777839   0.000000
     9  H    1.093851   2.459866   3.094669   0.000000
    10  H    4.403486   3.768328   4.322501   5.201465   0.000000
    11  H    5.691953   5.304055   5.506136   6.384649   1.874661
    12  H    3.157164   3.900570   2.515449   4.021733   2.464904
    13  C    5.060045   5.727932   4.486045   5.700823   3.453724
    14  O    5.146112   6.230493   4.420475   5.716496   4.482334
    15  H    2.125726   4.324951   1.872334   2.482580   5.723059
    16  H    6.019347   6.423334   5.550692   6.621591   3.731927
                   11         12         13         14         15
    11  H    0.000000
    12  H    3.100051   0.000000
    13  C    2.691095   2.202450   0.000000
    14  O    3.896523   2.658934   1.207317   0.000000
    15  H    6.712513   3.683029   5.249792   4.862591   0.000000
    16  H    2.397737   3.151407   1.120531   2.026179   6.348807
                   16
    16  H    0.000000
 Stoichiometry    C6H8O2
 Framework group  C1[X(C6H8O2)]
 Deg. of freedom    42
 Full point group                 C1      NOp   1
 Largest Abelian subgroup         C1      NOp   1
 Largest concise Abelian subgroup C1      NOp   1
                         Standard orientation:                         
 ---------------------------------------------------------------------
 Center     Atomic      Atomic             Coordinates (Angstroms)
 Number     Number       Type             X           Y           Z
 ---------------------------------------------------------------------
      1          8           0       -1.698646    1.243620    0.535271
      2          6           0        1.473145    1.804073   -0.014148
      3          6           0       -1.933866   -1.613542    0.448235
      4          6           0        1.454029    0.474539    0.120866
      5          6           0       -2.263157    0.682948   -0.375699
      6          6           0       -2.374776   -0.790191   -0.508280
      7          1           0       -2.742501    1.273496   -1.192309
      8          1           0       -1.483067   -1.210591    1.360182
      9          1           0       -2.841680   -1.173794   -1.420068
     10          1           0        0.579746    2.400964    0.183112
     11          1           0        2.382625    2.329444   -0.325674
     12          1           0        0.547102   -0.051127    0.431987
     13          6           0        2.652350   -0.342064   -0.146003
     14          8           0        2.694673   -1.544437   -0.045390
     15          1           0       -2.011961   -2.698749    0.354552
     16          1           0        3.555164    0.242323   -0.460658
 ---------------------------------------------------------------------
 Rotational constants (GHZ):           2.6438760           0.9498759           0.7358036
 Standard basis: def2SVP (5D, 7F)
 There are   160 symmetry adapted cartesian basis functions of A   symmetry.
 There are   152 symmetry adapted basis functions of A   symmetry.
   152 basis functions,   256 primitive gaussians,   160 cartesian basis functions
    30 alpha electrons       30 beta electrons
       nuclear repulsion energy       315.6620149638 Hartrees.
 NAtoms=   16 NActive=   16 NUniq=   16 SFac= 1.00D+00 NAtFMM=   60 NAOKFM=F Big=F
 Integral buffers will be    131072 words long.
 Raffenetti 2 integral format.
 Two-electron integral symmetry is turned on.
 Nuclear repulsion after empirical dispersion term =      315.6555784382 Hartrees.
 ------------------------------------------------------------------------------
 Polarizable Continuum Model (PCM)
 =================================
 Model                : PCM.
 Atomic radii         : UFF (Universal Force Field).
 Polarization charges : Total charges.
 Charge compensation  : None.
 Solution method      : Matrix inversion.
 Cavity type          : Scaled VdW (van der Waals Surface) (Alpha=1.100).
 Cavity algorithm     : GePol (No added spheres)
                        Default sphere list used, NSphG=   16.
                        Lebedev-Laikov grids with approx.  5.0 points / Ang**2.
                        Smoothing algorithm: York/Karplus (Gamma=1.0000).
                        Polarization charges: spherical gaussians, with
                                              point-specific exponents (IZeta= 3).
                        Self-potential: point-specific (ISelfS= 7).
                        Self-field    : sphere-specific E.n sum rule (ISelfD= 2).
 1st derivatives      : Analytical E(r).r(x)/FMM algorithm (CHGder, D1EAlg=3).
                        Cavity 1st derivative terms included.
 Solvent              : Toluene, Eps=   2.374100 Eps(inf)=   2.238315
 ------------------------------------------------------------------------------
 Spheres list:
 ISph  on   Nord     Re0    Alpha      Xe            Ye            Ze
    1   O      1    1.7500  1.100     -1.698646      1.243620      0.535271
    2   C      2    1.9255  1.100      1.473145      1.804073     -0.014148
    3   C      3    1.9255  1.100     -1.933866     -1.613542      0.448235
    4   C      4    1.9255  1.100      1.454029      0.474539      0.120866
    5   C      5    1.9255  1.100     -2.263157      0.682948     -0.375699
    6   C      6    1.9255  1.100     -2.374776     -0.790191     -0.508280
    7   H      7    1.4430  1.100     -2.742501      1.273496     -1.192309
    8   H      8    1.4430  1.100     -1.483067     -1.210591      1.360182
    9   H      9    1.4430  1.100     -2.841680     -1.173794     -1.420068
   10   H     10    1.4430  1.100      0.579746      2.400964      0.183112
   11   H     11    1.4430  1.100      2.382625      2.329444     -0.325674
   12   H     12    1.4430  1.100      0.547102     -0.051127      0.431987
   13   C     13    1.9255  1.100      2.652350     -0.342064     -0.146003
   14   O     14    1.7500  1.100      2.694673     -1.544437     -0.045390
   15   H     15    1.4430  1.100     -2.011961     -2.698749      0.354552
   16   H     16    1.4430  1.100      3.555164      0.242323     -0.460658
 ------------------------------------------------------------------------------
 One-electron integrals computed using PRISM.
   1 Symmetry operations used in ECPInt.
 ECPInt:  NShTT=    2628 NPrTT=    9444 LenC2=    2568 LenP2D=    7124.
 LDataN:  DoStor=T MaxTD1= 4 Len=   56
 NBasis=   152 RedAO= T EigKep=  2.26D-03  NBF=   152
 NBsUse=   152 1.00D-06 EigRej= -1.00D+00 NBFU=   152
 Initial guess from the checkpoint file:  "da-1_1_opt_dft_re.chk"
 B after Tr=     0.000000   -0.000000   -0.000000
         Rot=    0.999990    0.000012   -0.000757    0.004309 Ang=   0.50 deg.
 ExpMin= 1.22D-01 ExpMax= 2.27D+03 ExpMxC= 3.41D+02 IAcc=3 IRadAn=         5 AccDes= 0.00D+00
 Harris functional with IExCor= 4639 and IRadAn=       5 diagonalized for initial guess.
 HarFok:  IExCor= 4639 AccDes= 0.00D+00 IRadAn=         5 IDoV= 1 UseB2=F ITyADJ=14
 ICtDFT=  3500011 ScaDFX=  1.000000  1.000000  1.000000  1.000000
 FoFCou: FMM=F IPFlag=           0 FMFlag=      100000 FMFlg1=           0
         NFxFlg=           0 DoJE=T BraDBF=F KetDBF=T FulRan=T
         wScrn=  0.000000 ICntrl=       500 IOpCl=  0 I1Cent=   200000004 NGrid=           0
         NMat0=    1 NMatS0=      1 NMatT0=    0 NMatD0=    1 NMtDS0=    0 NMtDT0=    0
 Petite list used in FoFCou.
 Requested convergence on RMS density matrix=1.00D-08 within 128 cycles.
 Requested convergence on MAX density matrix=1.00D-06.
 Requested convergence on             energy=1.00D-06.
 No special actions if energy rises.
 Inv3:  Mode=1 IEnd=     6885675.
 Iteration    1 A*A^-1 deviation from unit magnitude is 3.55D-15 for   1287.
 Iteration    1 A*A^-1 deviation from orthogonality  is 1.68D-15 for    820    458.
 Iteration    1 A^-1*A deviation from unit magnitude is 3.33D-15 for   1287.
 Iteration    1 A^-1*A deviation from orthogonality  is 1.26D-15 for   1101    196.
 Error on total polarization charges =  0.00525
 SCF Done:  E(RwB97XD) =  -383.414475702     A.U. after   12 cycles
            NFock= 12  Conv=0.83D-08     -V/T= 2.0097
   1 Symmetry operations used in ECPInt.
 ECPInt:  NShTT=    2628 NPrTT=    9444 LenC2=    2568 LenP2D=    7124.
 LDataN:  DoStor=T MaxTD1= 5 Len=  102
 D1PCM: PCM CHGder 1st derivatives, ID1Alg=3 FixD1E=F DoIter=F DoCFld=F I1PDM=0.
 Calling FoFJK, ICntrl=      2127 FMM=F ISym2X=0 I1Cent= 0 IOpClX= 0 NMat=1 NMatS=1 NMatT=0.
 ***** Axes restored to original set *****
 -------------------------------------------------------------------
 Center     Atomic                   Forces (Hartrees/Bohr)
 Number     Number              X              Y              Z
 -------------------------------------------------------------------
      1        8           0.000094060   -0.000049380    0.000007515
      2        6          -0.000028003    0.000051959    0.000030068
      3        6           0.000014047   -0.000012476   -0.000017408
      4        6           0.000053097    0.000016779    0.000241614
      5        6           0.000030440   -0.000037324   -0.000008912
      6        6           0.000006496   -0.000000550    0.000010991
      7        1          -0.000010750    0.000006415   -0.000003275
      8        1           0.000048838   -0.000003661    0.000110618
      9        1           0.000007096    0.000001626   -0.000001107
     10        1          -0.000018416    0.000017919   -0.000017491
     11        1          -0.000016224    0.000001676   -0.000012523
     12        1          -0.000198024    0.000017150   -0.000345993
     13        6           0.000023766   -0.000002449    0.000015524
     14        8          -0.000006451   -0.000002133   -0.000013237
     15        1          -0.000000199   -0.000002958   -0.000001322
     16        1           0.000000229   -0.000002592    0.000004936
 -------------------------------------------------------------------
 Cartesian Forces:  Max     0.000345993 RMS     0.000073167

 GradGradGradGradGradGradGradGradGradGradGradGradGradGradGradGradGradGrad
 Berny optimization.
 FormGI is forming the generalized inverse of G from B-inverse, IUseBI=4.
 Internal  Forces:  Max     0.000310871 RMS     0.000091976
 Search for a saddle point.
 Step number   2 out of a maximum of   50
 All quantities printed in internal units (Hartrees-Bohrs-Radians)
 Swapping is turned off.
 Update second derivatives using D2CorX and points    1    2
 ITU=  0  0
     Eigenvalues ---    0.00001   0.00057   0.00136   0.00356   0.00683
     Eigenvalues ---    0.00695   0.01665   0.01790   0.02337   0.02536
     Eigenvalues ---    0.03301   0.03509   0.04682   0.07318   0.07946
     Eigenvalues ---    0.08739   0.10134   0.10308   0.10486   0.11272
     Eigenvalues ---    0.11811   0.14208   0.14469   0.15682   0.16812
     Eigenvalues ---    0.19489   0.22704   0.23056   0.30403   0.31299
     Eigenvalues ---    0.32668   0.33513   0.35994   0.36267   0.36591
     Eigenvalues ---    0.36798   0.36936   0.37243   0.64472   0.64777
     Eigenvalues ---    0.89659   0.91415
 Eigenvectors required to have negative eigenvalues:
                          D11       D12       D21       R13       A17
   1                    0.57800   0.57712  -0.56434   0.10267   0.05774
                          D19       D17       D20       D18       D10
   1                   -0.01076  -0.01052  -0.00949  -0.00925  -0.00468
 RFO step:  Lambda0=3.549902044D-05 Lambda=-8.40712497D-06.
 Linear search not attempted -- option 19 set.
 Iteration  1 RMS(Cart)=  0.03717395 RMS(Int)=  0.00425581
 Iteration  2 RMS(Cart)=  0.00232076 RMS(Int)=  0.00000375
 Iteration  3 RMS(Cart)=  0.00001486 RMS(Int)=  0.00000006
 Iteration  4 RMS(Cart)=  0.00000000 RMS(Int)=  0.00000006
 Variable       Old X    -DE/DX   Delta X   Delta X   Delta X     New X
                                 (Linear)    (Quad)   (Total)
    R1        2.28563  -0.00004   0.00000  -0.00005  -0.00005   2.28558
    R2        2.52564   0.00003   0.00000  -0.00000  -0.00000   2.52563
    R3        2.06435  -0.00003   0.00000  -0.00001  -0.00001   2.06434
    R4        2.07028   0.00001   0.00000  -0.00000  -0.00000   2.07028
    R5        2.52632   0.00002   0.00000   0.00007   0.00007   2.52639
    R6        2.06771   0.00006   0.00000   0.00001   0.00001   2.06771
    R7        2.06365   0.00000   0.00000   0.00002   0.00002   2.06367
    R8        2.06632   0.00010   0.00000  -0.00009  -0.00009   2.06624
    R9        2.78633  -0.00002   0.00000  -0.00015  -0.00015   2.78617
   R10        2.80303  -0.00005   0.00000   0.00012   0.00012   2.80315
   R11        2.10886  -0.00000   0.00000  -0.00001  -0.00001   2.10885
   R12        2.06708  -0.00000   0.00000   0.00001   0.00001   2.06709
   R13        4.75351   0.00017   0.00000   0.00879   0.00879   4.76230
   R14        2.28150   0.00001   0.00000   0.00004   0.00004   2.28154
   R15        2.11750  -0.00000   0.00000  -0.00001  -0.00001   2.11749
    A1        2.11018   0.00002   0.00000  -0.00039  -0.00039   2.10979
    A2        2.11490  -0.00003   0.00000   0.00006   0.00006   2.11496
    A3        2.05811   0.00001   0.00000   0.00033   0.00033   2.05844
    A4        2.10063   0.00014   0.00000   0.00042   0.00042   2.10105
    A5        2.12594  -0.00007   0.00000  -0.00030  -0.00030   2.12563
    A6        2.05661  -0.00007   0.00000  -0.00011  -0.00011   2.05649
    A7        2.11629   0.00019   0.00000  -0.00071  -0.00071   2.11558
    A8        2.11886  -0.00008   0.00000   0.00021   0.00021   2.11907
    A9        2.04804  -0.00011   0.00000   0.00050   0.00050   2.04854
   A10        2.16859  -0.00000   0.00000   0.00001   0.00001   2.16860
   A11        2.10170  -0.00000   0.00000   0.00004   0.00004   2.10174
   A12        2.01289   0.00001   0.00000  -0.00005  -0.00005   2.01284
   A13        2.12103   0.00006   0.00000   0.00041   0.00041   2.12144
   A14        2.11904  -0.00003   0.00000  -0.00018  -0.00018   2.11886
   A15        2.04307  -0.00003   0.00000  -0.00022  -0.00022   2.04285
   A16        1.76677   0.00021   0.00000  -0.00226  -0.00226   1.76451
   A17        3.05198  -0.00010   0.00000  -0.06837  -0.06837   2.98361
   A18        2.17119   0.00001   0.00000   0.00016   0.00016   2.17135
   A19        2.00071  -0.00001   0.00000  -0.00013  -0.00013   2.00058
   A20        2.11128  -0.00000   0.00000  -0.00003  -0.00003   2.11125
    D1       -0.00063   0.00000   0.00000   0.00027   0.00027  -0.00036
    D2        3.13867   0.00002   0.00000   0.00114   0.00114   3.13981
    D3        3.14129  -0.00001   0.00000  -0.00019  -0.00019   3.14110
    D4       -0.00260   0.00001   0.00000   0.00068   0.00068  -0.00192
    D5        0.00701  -0.00015   0.00000  -0.00025  -0.00025   0.00676
    D6       -3.12551  -0.00007   0.00000   0.00001   0.00001  -3.12550
    D7       -3.13948  -0.00018   0.00000  -0.00022  -0.00022  -3.13970
    D8        0.01119  -0.00010   0.00000   0.00004   0.00004   0.01123
    D9       -1.10501  -0.00031   0.00000   0.00239   0.00239  -1.10262
   D10        2.04128  -0.00028   0.00000   0.00237   0.00237   2.04365
   D11       -1.44758   0.00005   0.00000  -0.03530  -0.03530  -1.48288
   D12        1.69622   0.00004   0.00000  -0.03613  -0.03613   1.66009
   D13       -3.13751  -0.00001   0.00000  -0.00142  -0.00142  -3.13893
   D14        0.00304  -0.00001   0.00000  -0.00101  -0.00101   0.00203
   D15        0.00188   0.00001   0.00000  -0.00058  -0.00058   0.00129
   D16       -3.14076   0.00001   0.00000  -0.00018  -0.00018  -3.14094
   D17        0.09159  -0.00006   0.00000   0.00003   0.00003   0.09162
   D18       -3.05870  -0.00013   0.00000  -0.00022  -0.00022  -3.05892
   D19       -3.05301   0.00002   0.00000   0.00024   0.00024  -3.05277
   D20        0.07989  -0.00005   0.00000  -0.00001  -0.00001   0.07988
   D21       -3.09201   0.00007   0.00000   0.03962   0.03962  -3.05239
         Item               Value     Threshold  Converged?
 Maximum Force            0.000311     0.000450     YES
 RMS     Force            0.000092     0.000300     YES
 Maximum Displacement     0.118091     0.001800     NO 
 RMS     Displacement     0.036871     0.001200     NO 
 Predicted change in Energy=-2.367065D-06
 GradGradGradGradGradGradGradGradGradGradGradGradGradGradGradGradGradGrad

                          Input orientation:                          
 ---------------------------------------------------------------------
 Center     Atomic      Atomic             Coordinates (Angstroms)
 Number     Number       Type             X           Y           Z
 ---------------------------------------------------------------------
      1          8           0        1.477371   -0.295187    1.497843
      2          6           0       -1.267415    1.468907    1.212955
      3          6           0        1.798353   -1.549068   -1.062247
      4          6           0       -1.100785    1.022224   -0.035627
      5          6           0        1.354311   -1.490346    1.358983
      6          6           0        1.455653   -2.194427    0.057305
      7          1           0        1.147839   -2.143291    2.240114
      8          1           0        2.019244   -0.477688   -1.037869
      9          1           0        1.245863   -3.267973    0.054839
     10          1           0       -0.512669    1.282773    1.980452
     11          1           0       -2.162523    2.032016    1.499148
     12          1           0       -0.207446    0.460556   -0.322009
     13          6           0       -2.112787    1.264796   -1.080044
     14          8           0       -2.019237    0.884609   -2.222137
     15          1           0        1.872455   -2.063133   -2.022879
     16          1           0       -3.008127    1.844635   -0.736928
 ---------------------------------------------------------------------
                    Distance matrix (angstroms):
                    1          2          3          4          5
     1  O    0.000000
     2  C    3.275216   0.000000
     3  C    2.868677   4.866586   0.000000
     4  C    3.276277   1.336507   4.008802   0.000000
     5  C    1.209475   3.956255   2.462310   3.779609   0.000000
     6  C    2.383848   4.708571   1.336910   4.109848   1.483362
     7  H    2.018674   4.465029   3.417873   4.500644   1.115957
     8  H    2.599378   4.433686   1.094186   3.603998   2.685612
     9  H    3.312599   5.485967   2.123149   4.890883   2.207376
    10  H    2.585175   1.092401   4.755856   2.116210   3.400299
    11  H    4.320266   1.095543   5.922284   2.121910   4.979438
    12  H    2.592609   2.120477   2.934242   1.093407   3.011783
    13  C    4.687033   2.452378   4.818212   1.474379   5.055732
    14  O    5.239889   3.564618   4.673556   2.375567   5.463118
    15  H    3.959445   5.727540   1.092048   4.723214   3.468940
    16  H    5.449104   2.640700   5.892818   2.192290   5.877568
                    6          7          8          9         10
     6  C    0.000000
     7  H    2.204999   0.000000
     8  H    2.112874   3.778724   0.000000
     9  H    1.093855   2.459663   3.094806   0.000000
    10  H    4.434378   3.816101   4.315098   5.244970   0.000000
    11  H    5.747428   5.379657   5.497476   6.464751   1.874843
    12  H    3.155743   3.896318   2.520101   4.019459   2.463845
    13  C    5.098387   5.768031   4.484608   5.754519   3.453598
    14  O    5.172154   6.253818   4.423536   5.752342   4.482192
    15  H    2.125589   4.324882   1.872279   2.482171   5.736773
    16  H    6.072080   6.483702   5.546008   6.697917   3.731910
                   11         12         13         14         15
    11  H    0.000000
    12  H    3.099746   0.000000
    13  C    2.691344   2.202667   0.000000
    14  O    3.896799   2.659491   1.207341   0.000000
    15  H    6.742104   3.686184   5.276949   4.886118   0.000000
    16  H    2.397957   3.151451   1.120525   2.026179   6.383134
                   16
    16  H    0.000000
 Stoichiometry    C6H8O2
 Framework group  C1[X(C6H8O2)]
 Deg. of freedom    42
 Full point group                 C1      NOp   1
 Largest Abelian subgroup         C1      NOp   1
 Largest concise Abelian subgroup C1      NOp   1
                         Standard orientation:                         
 ---------------------------------------------------------------------
 Center     Atomic      Atomic             Coordinates (Angstroms)
 Number     Number       Type             X           Y           Z
 ---------------------------------------------------------------------
      1          8           0       -1.690954    1.253969    0.510561
      2          6           0        1.498040    1.802050    0.003643
      3          6           0       -1.948153   -1.602816    0.466571
      4          6           0        1.464186    0.469845    0.105307
      5          6           0       -2.277788    0.685350   -0.381139
      6          6           0       -2.402441   -0.788634   -0.491583
      7          1           0       -2.769673    1.268410   -1.195664
      8          1           0       -1.475767   -1.191892    1.363921
      9          1           0       -2.890705   -1.180696   -1.388469
     10          1           0        0.602759    2.401149    0.185000
     11          1           0        2.421706    2.327201   -0.263325
     12          1           0        0.542759   -0.054844    0.372165
     13          6           0        2.664816   -0.350258   -0.139054
     14          8           0        2.694817   -1.554958   -0.065097
     15          1           0       -2.036300   -2.688498    0.388522
     16          1           0        3.582351    0.233861   -0.408333
 ---------------------------------------------------------------------
 Rotational constants (GHZ):           2.6470769           0.9409620           0.7294863
 Standard basis: def2SVP (5D, 7F)
 There are   160 symmetry adapted cartesian basis functions of A   symmetry.
 There are   152 symmetry adapted basis functions of A   symmetry.
   152 basis functions,   256 primitive gaussians,   160 cartesian basis functions
    30 alpha electrons       30 beta electrons
       nuclear repulsion energy       315.1969364970 Hartrees.
 NAtoms=   16 NActive=   16 NUniq=   16 SFac= 1.00D+00 NAtFMM=   60 NAOKFM=F Big=F
 Integral buffers will be    131072 words long.
 Raffenetti 2 integral format.
 Two-electron integral symmetry is turned on.
 Nuclear repulsion after empirical dispersion term =      315.1905437018 Hartrees.
 ------------------------------------------------------------------------------
 Polarizable Continuum Model (PCM)
 =================================
 Model                : PCM.
 Atomic radii         : UFF (Universal Force Field).
 Polarization charges : Total charges.
 Charge compensation  : None.
 Solution method      : Matrix inversion.
 Cavity type          : Scaled VdW (van der Waals Surface) (Alpha=1.100).
 Cavity algorithm     : GePol (No added spheres)
                        Default sphere list used, NSphG=   16.
                        Lebedev-Laikov grids with approx.  5.0 points / Ang**2.
                        Smoothing algorithm: York/Karplus (Gamma=1.0000).
                        Polarization charges: spherical gaussians, with
                                              point-specific exponents (IZeta= 3).
                        Self-potential: point-specific (ISelfS= 7).
                        Self-field    : sphere-specific E.n sum rule (ISelfD= 2).
 1st derivatives      : Analytical E(r).r(x)/FMM algorithm (CHGder, D1EAlg=3).
                        Cavity 1st derivative terms included.
 Solvent              : Toluene, Eps=   2.374100 Eps(inf)=   2.238315
 ------------------------------------------------------------------------------
 Spheres list:
 ISph  on   Nord     Re0    Alpha      Xe            Ye            Ze
    1   O      1    1.7500  1.100     -1.690954      1.253969      0.510561
    2   C      2    1.9255  1.100      1.498040      1.802050      0.003643
    3   C      3    1.9255  1.100     -1.948153     -1.602816      0.466571
    4   C      4    1.9255  1.100      1.464186      0.469845      0.105307
    5   C      5    1.9255  1.100     -2.277788      0.685350     -0.381139
    6   C      6    1.9255  1.100     -2.402441     -0.788634     -0.491583
    7   H      7    1.4430  1.100     -2.769673      1.268410     -1.195664
    8   H      8    1.4430  1.100     -1.475767     -1.191892      1.363921
    9   H      9    1.4430  1.100     -2.890705     -1.180696     -1.388469
   10   H     10    1.4430  1.100      0.602759      2.401149      0.185000
   11   H     11    1.4430  1.100      2.421706      2.327201     -0.263325
   12   H     12    1.4430  1.100      0.542759     -0.054844      0.372165
   13   C     13    1.9255  1.100      2.664816     -0.350258     -0.139054
   14   O     14    1.7500  1.100      2.694817     -1.554958     -0.065097
   15   H     15    1.4430  1.100     -2.036300     -2.688498      0.388522
   16   H     16    1.4430  1.100      3.582351      0.233861     -0.408333
 ------------------------------------------------------------------------------
 One-electron integrals computed using PRISM.
   1 Symmetry operations used in ECPInt.
 ECPInt:  NShTT=    2628 NPrTT=    9444 LenC2=    2566 LenP2D=    7110.
 LDataN:  DoStor=T MaxTD1= 4 Len=   56
 NBasis=   152 RedAO= T EigKep=  2.27D-03  NBF=   152
 NBsUse=   152 1.00D-06 EigRej= -1.00D+00 NBFU=   152
 Initial guess from the checkpoint file:  "da-1_1_opt_dft_re.chk"
 B after Tr=    -0.000000    0.000000    0.000000
         Rot=    0.999997    0.001081   -0.000640    0.002094 Ang=   0.28 deg.
 ExpMin= 1.22D-01 ExpMax= 2.27D+03 ExpMxC= 3.41D+02 IAcc=3 IRadAn=         5 AccDes= 0.00D+00
 Harris functional with IExCor= 4639 and IRadAn=       5 diagonalized for initial guess.
 HarFok:  IExCor= 4639 AccDes= 0.00D+00 IRadAn=         5 IDoV= 1 UseB2=F ITyADJ=14
 ICtDFT=  3500011 ScaDFX=  1.000000  1.000000  1.000000  1.000000
 FoFCou: FMM=F IPFlag=           0 FMFlag=      100000 FMFlg1=           0
         NFxFlg=           0 DoJE=T BraDBF=F KetDBF=T FulRan=T
         wScrn=  0.000000 ICntrl=       500 IOpCl=  0 I1Cent=   200000004 NGrid=           0
         NMat0=    1 NMatS0=      1 NMatT0=    0 NMatD0=    1 NMtDS0=    0 NMtDT0=    0
 Petite list used in FoFCou.
 Requested convergence on RMS density matrix=1.00D-08 within 128 cycles.
 Requested convergence on MAX density matrix=1.00D-06.
 Requested convergence on             energy=1.00D-06.
 No special actions if energy rises.
 Inv3:  Mode=1 IEnd=     6894768.
 Iteration    1 A*A^-1 deviation from unit magnitude is 2.66D-15 for    382.
 Iteration    1 A*A^-1 deviation from orthogonality  is 1.78D-15 for   1267    330.
 Iteration    1 A^-1*A deviation from unit magnitude is 2.66D-15 for    382.
 Iteration    1 A^-1*A deviation from orthogonality  is 1.84D-15 for    977    629.
 Error on total polarization charges =  0.00528
 SCF Done:  E(RwB97XD) =  -383.414477678     A.U. after   12 cycles
            NFock= 12  Conv=0.66D-08     -V/T= 2.0097
   1 Symmetry operations used in ECPInt.
 ECPInt:  NShTT=    2628 NPrTT=    9444 LenC2=    2566 LenP2D=    7110.
 LDataN:  DoStor=T MaxTD1= 5 Len=  102
 D1PCM: PCM CHGder 1st derivatives, ID1Alg=3 FixD1E=F DoIter=F DoCFld=F I1PDM=0.
 Calling FoFJK, ICntrl=      2127 FMM=F ISym2X=0 I1Cent= 0 IOpClX= 0 NMat=1 NMatS=1 NMatT=0.
 ***** Axes restored to original set *****
 -------------------------------------------------------------------
 Center     Atomic                   Forces (Hartrees/Bohr)
 Number     Number              X              Y              Z
 -------------------------------------------------------------------
      1        8           0.000024151   -0.000021878    0.000008101
      2        6          -0.000003611    0.000029515   -0.000008387
      3        6           0.000006969   -0.000001129   -0.000003715
      4        6           0.000083260   -0.000004726    0.000326487
      5        6           0.000022890   -0.000010110   -0.000016046
      6        6           0.000008367   -0.000001218    0.000006903
      7        1          -0.000003669    0.000000792   -0.000001451
      8        1           0.000030946    0.000001074    0.000137618
      9        1           0.000004273   -0.000000769   -0.000002242
     10        1          -0.000007255    0.000013464   -0.000001586
     11        1          -0.000010976   -0.000002655    0.000004829
     12        1          -0.000155636    0.000007387   -0.000453444
     13        6           0.000008613    0.000005169   -0.000002655
     14        8          -0.000001689   -0.000007282    0.000004274
     15        1          -0.000001291    0.000001086   -0.000002331
     16        1          -0.000005343   -0.000008720    0.000003644
 -------------------------------------------------------------------
 Cartesian Forces:  Max     0.000453444 RMS     0.000087466

 GradGradGradGradGradGradGradGradGradGradGradGradGradGradGradGradGradGrad
 Berny optimization.
 FormGI is forming the generalized inverse of G from B-inverse, IUseBI=4.
 Internal  Forces:  Max     0.000121939 RMS     0.000039121
 Search for a saddle point.
 Step number   3 out of a maximum of   50
 All quantities printed in internal units (Hartrees-Bohrs-Radians)
 Swapping is turned off.
 Update second derivatives using D2CorX and points    1    2    3
 ITU=  0  0  0
     Eigenvalues ---    0.00018   0.00048   0.00144   0.00355   0.00683
     Eigenvalues ---    0.00695   0.01665   0.01790   0.02336   0.02529
     Eigenvalues ---    0.03301   0.03507   0.04682   0.07312   0.07946
     Eigenvalues ---    0.08737   0.10133   0.10308   0.10486   0.11271
     Eigenvalues ---    0.11809   0.14208   0.14469   0.15678   0.16808
     Eigenvalues ---    0.19475   0.22704   0.23056   0.30403   0.31299
     Eigenvalues ---    0.32668   0.33513   0.35994   0.36267   0.36591
     Eigenvalues ---    0.36798   0.36936   0.37241   0.64472   0.64777
     Eigenvalues ---    0.89659   0.91415
 Eigenvectors required to have negative eigenvalues:
                          D11       D12       D21       A17       R13
   1                    0.54703   0.54312  -0.50936  -0.38180  -0.01695
                          D13       D14       A16       D2        D15
   1                   -0.00834  -0.00638  -0.00581   0.00539  -0.00442
 RFO step:  Lambda0=1.913754600D-04 Lambda=-9.73394354D-07.
 Linear search not attempted -- option 19 set.
 Iteration  1 RMS(Cart)=  0.01047411 RMS(Int)=  0.00018987
 Iteration  2 RMS(Cart)=  0.00034787 RMS(Int)=  0.00000047
 Iteration  3 RMS(Cart)=  0.00000126 RMS(Int)=  0.00000000
 Iteration  4 RMS(Cart)=  0.00000000 RMS(Int)=  0.00000000
 Variable       Old X    -DE/DX   Delta X   Delta X   Delta X     New X
                                 (Linear)    (Quad)   (Total)
    R1        2.28558  -0.00002   0.00000   0.00000   0.00000   2.28558
    R2        2.52563   0.00001   0.00000  -0.00002  -0.00002   2.52561
    R3        2.06434  -0.00001   0.00000  -0.00001  -0.00001   2.06433
    R4        2.07028   0.00001   0.00000   0.00002   0.00002   2.07029
    R5        2.52639   0.00001   0.00000  -0.00003  -0.00003   2.52636
    R6        2.06771   0.00003   0.00000  -0.00002  -0.00002   2.06769
    R7        2.06367   0.00000   0.00000  -0.00001  -0.00001   2.06366
    R8        2.06624   0.00004   0.00000   0.00004   0.00004   2.06628
    R9        2.78617  -0.00001   0.00000   0.00006   0.00006   2.78623
   R10        2.80315  -0.00002   0.00000  -0.00004  -0.00004   2.80311
   R11        2.10885   0.00000   0.00000   0.00002   0.00002   2.10887
   R12        2.06709   0.00000   0.00000  -0.00000  -0.00000   2.06709
   R13        4.76230   0.00005   0.00000   0.00782   0.00782   4.77012
   R14        2.28154  -0.00000   0.00000  -0.00002  -0.00002   2.28152
   R15        2.11749  -0.00000   0.00000  -0.00000  -0.00000   2.11748
    A1        2.10979   0.00001   0.00000   0.00024   0.00024   2.11003
    A2        2.11496  -0.00001   0.00000  -0.00004  -0.00004   2.11492
    A3        2.05844  -0.00001   0.00000  -0.00020  -0.00020   2.05824
    A4        2.10105   0.00007   0.00000  -0.00037  -0.00037   2.10068
    A5        2.12563  -0.00004   0.00000   0.00017   0.00017   2.12580
    A6        2.05649  -0.00003   0.00000   0.00020   0.00020   2.05669
    A7        2.11558   0.00009   0.00000   0.00052   0.00052   2.11610
    A8        2.11907  -0.00003   0.00000  -0.00009  -0.00009   2.11897
    A9        2.04854  -0.00006   0.00000  -0.00042  -0.00042   2.04811
   A10        2.16860   0.00001   0.00000   0.00003   0.00003   2.16863
   A11        2.10174  -0.00001   0.00000  -0.00004  -0.00004   2.10170
   A12        2.01284  -0.00000   0.00000   0.00001   0.00001   2.01286
   A13        2.12144   0.00003   0.00000  -0.00026  -0.00026   2.12118
   A14        2.11886  -0.00002   0.00000   0.00014   0.00014   2.11900
   A15        2.04285  -0.00002   0.00000   0.00012   0.00012   2.04297
   A16        1.76451   0.00012   0.00000   0.00268   0.00268   1.76718
   A17        2.98361  -0.00002   0.00000   0.02352   0.02352   3.00712
   A18        2.17135  -0.00001   0.00000  -0.00008  -0.00008   2.17127
   A19        2.00058   0.00000   0.00000   0.00006   0.00006   2.00064
   A20        2.11125   0.00000   0.00000   0.00002   0.00002   2.11127
    D1       -0.00036   0.00001   0.00000  -0.00024  -0.00024  -0.00060
    D2        3.13981   0.00001   0.00000  -0.00031  -0.00031   3.13950
    D3        3.14110   0.00000   0.00000   0.00005   0.00005   3.14115
    D4       -0.00192   0.00001   0.00000  -0.00001  -0.00001  -0.00194
    D5        0.00676  -0.00004   0.00000   0.00019   0.00019   0.00695
    D6       -3.12550  -0.00002   0.00000   0.00002   0.00002  -3.12547
    D7       -3.13970  -0.00006   0.00000   0.00012   0.00012  -3.13958
    D8        0.01123  -0.00003   0.00000  -0.00005  -0.00005   0.01118
    D9       -1.10262  -0.00012   0.00000  -0.00086  -0.00086  -1.10349
   D10        2.04365  -0.00010   0.00000  -0.00080  -0.00080   2.04285
   D11       -1.48288   0.00006   0.00000  -0.00630  -0.00630  -1.48917
   D12        1.66009   0.00005   0.00000  -0.00623  -0.00623   1.65385
   D13       -3.13893   0.00000   0.00000   0.00034   0.00034  -3.13859
[...]
 ! A4    A(6,3,8)              120.3067         -DE/DX =    0.0                 !
 ! A5    A(6,3,15)             121.8289         -DE/DX =    0.0                 !
 ! A6    A(8,3,15)             117.8638         -DE/DX =    0.0                 !
 ! A7    A(2,4,12)             121.3259         -DE/DX =    0.0                 !
 ! A8    A(2,4,13)             121.3739         -DE/DX =    0.0                 !
 ! A9    A(12,4,13)            117.3001         -DE/DX =    0.0                 !
 ! A10   A(1,5,6)              124.2498         -DE/DX =    0.0                 !
 ! A11   A(1,5,7)              120.4119         -DE/DX =    0.0                 !
 ! A12   A(6,5,7)              115.3381         -DE/DX =    0.0                 !
 ! A13   A(3,6,5)              121.4826         -DE/DX =    0.0                 !
 ! A14   A(3,6,9)              121.4328         -DE/DX =    0.0                 !
 ! A15   A(5,6,9)              117.0827         -DE/DX =    0.0                 !
 ! A16   A(3,8,12)             101.509          -DE/DX =    0.0                 !
 ! A17   A(4,12,8)             178.3194         -DE/DX =    0.0                 !
 ! A18   A(4,13,14)            124.3946         -DE/DX =    0.0                 !
 ! A19   A(4,13,16)            114.6338         -DE/DX =    0.0                 !
 ! A20   A(14,13,16)           120.9716         -DE/DX =    0.0                 !
 ! D1    D(10,2,4,12)           -0.051          -DE/DX =    0.0                 !
 ! D2    D(10,2,4,13)          179.8216         -DE/DX =    0.0                 !
 ! D3    D(11,2,4,12)          179.9763         -DE/DX =    0.0                 !
 ! D4    D(11,2,4,13)           -0.1511         -DE/DX =    0.0                 !
 ! D5    D(8,3,6,5)              0.4005         -DE/DX =    0.0                 !
 ! D6    D(8,3,6,9)           -179.0901         -DE/DX =    0.0                 !
 ! D7    D(15,3,6,5)          -179.8809         -DE/DX =    0.0                 !
 ! D8    D(15,3,6,9)             0.6285         -DE/DX =    0.0                 !
 ! D9    D(6,3,8,12)           -63.0953         -DE/DX =    0.0                 !
 ! D10   D(15,3,8,12)          117.1751         -DE/DX =    0.0                 !
 ! D11   D(2,4,12,8)           -96.5312         -DE/DX =    0.0                 !
 ! D12   D(13,4,12,8)           83.5913         -DE/DX =    0.0                 !
 ! D13   D(2,4,13,14)         -179.724          -DE/DX =    0.0                 !
 ! D14   D(2,4,13,16)            0.2049         -DE/DX =    0.0                 !
 ! D15   D(12,4,13,14)           0.1535         -DE/DX =    0.0                 !
 ! D16   D(12,4,13,16)        -179.9176         -DE/DX =    0.0                 !
 ! D17   D(1,5,6,3)              5.1163         -DE/DX =    0.0                 !
 ! D18   D(1,5,6,9)           -175.3719         -DE/DX =    0.0                 !
 ! D19   D(7,5,6,3)           -175.0693         -DE/DX =    0.0                 !
 ! D20   D(7,5,6,9)              4.4425         -DE/DX =    0.0                 !
 ! D21   D(3,8,12,4)          -164.0913         -DE/DX =    0.0                 !
 --------------------------------------------------------------------------------
 GradGradGradGradGradGradGradGradGradGradGradGradGradGradGradGradGradGrad

                          Input orientation:                          
 ---------------------------------------------------------------------
 Center     Atomic      Atomic             Coordinates (Angstroms)
 Number     Number       Type             X           Y           Z
 ---------------------------------------------------------------------
      1          8           0        1.532528   -0.267179    1.474164
      2          6           0       -1.274308    1.437236    1.225596
      3          6           0        1.785885   -1.566341   -1.069158
      4          6           0       -1.069055    1.048017   -0.036390
      5          6           0        1.354764   -1.457282    1.351682
      6          6           0        1.419966   -2.182422    0.059413
      7          1           0        1.121054   -2.088155    2.242075
      8          1           0        2.052971   -0.505337   -1.057404
      9          1           0        1.163416   -3.245683    0.071506
     10          1           0       -0.514138    1.277537    1.993689
     11          1           0       -2.208711    1.925567    1.523393
     12          1           0       -0.137335    0.560742   -0.336639
     13          6           0       -2.090385    1.255560   -1.079522
     14          8           0       -1.964715    0.921964   -2.232973
     15          1           0        1.833988   -2.094210   -2.023922
     16          1           0       -3.025824    1.759385   -0.723609
 ---------------------------------------------------------------------
                    Distance matrix (angstroms):
                    1          2          3          4          5
     1  O    0.000000
     2  C    3.293196   0.000000
     3  C    2.867142   4.863348   0.000000
     4  C    3.283253   1.336499   4.006515   0.000000
     5  C    1.209523   3.912307   2.461346   3.752088   0.000000
     6  C    2.383768   4.660581   1.336834   4.079233   1.483252
     7  H    2.018651   4.381708   3.417390   4.452365   1.115985
     8  H    2.595461   4.478444   1.094167   3.633514   2.682794
     9  H    3.312881   5.404087   2.123387   4.840602   2.207678
    10  H    2.616274   1.092395   4.770616   2.117033   3.374048
    11  H    4.336753   1.095564   5.905213   2.121751   4.916452
    12  H    2.598635   2.121681   2.959703   1.093477   3.024765
    13  C    4.686741   2.452052   4.794654   1.474556   5.013912
    14  O    5.233320   3.564249   4.648993   2.375516   5.434105
    15  H    3.957971   5.717691   1.092032   4.717154   3.468434
    16  H    5.451214   2.640264   5.859386   2.192546   5.817502
                    6          7          8          9         10
     6  C    0.000000
     7  H    2.205051   0.000000
     8  H    2.112011   3.776287   0.000000
     9  H    1.093841   2.460292   3.094389   0.000000
    10  H    4.410611   3.750124   4.367820   5.193120   0.000000
    11  H    5.673280   5.264390   5.543621   6.342006   1.874220
    12  H    3.179149   3.905120   2.540367   4.043192   2.467024
    13  C    5.043754   5.703226   4.502071   5.672149   3.453935
    14  O    5.133061   6.213602   4.422777   5.697816   4.482776
    15  H    2.125907   4.325164   1.872600   2.483219   5.746614
    16  H    5.992997   6.387131   5.570866   6.575154   3.731548
                   11         12         13         14         15
    11  H    0.000000
    12  H    3.100495   0.000000
    13  C    2.690367   2.202057   0.000000
    14  O    3.895772   2.658173   1.207282   0.000000
    15  H    6.714571   3.712385   5.245337   4.855014   0.000000
    16  H    2.396728   3.151168   1.120518   2.026180   6.337096
                   16
    16  H    0.000000
 Stoichiometry    C6H8O2
 Framework group  C1[X(C6H8O2)]
 Deg. of freedom    42
 Full point group                 C1      NOp   1
 Largest Abelian subgroup         C1      NOp   1
 Largest concise Abelian subgroup C1      NOp   1
                         Standard orientation:                         
 ---------------------------------------------------------------------
 Center     Atomic      Atomic             Coordinates (Angstroms)
 Number     Number       Type             X           Y           Z
 ---------------------------------------------------------------------
      1          8           0       -1.707301    1.234891    0.563751
      2          6           0        1.480179    1.806457   -0.034934
      3          6           0       -1.940757   -1.619422    0.426272
      4          6           0        1.458563    0.480399    0.130396
      5          6           0       -2.254558    0.689428   -0.366801
      6          6           0       -2.364921   -0.781242   -0.524867
      7          1           0       -2.717194    1.293566   -1.183139
      8          1           0       -1.505587   -1.229889    1.351525
      9          1           0       -2.816199   -1.150154   -1.450470
     10          1           0        0.595544    2.413096    0.171797
     11          1           0        2.383659    2.319833   -0.381962
     12          1           0        0.558426   -0.034697    0.476980
     13          6           0        2.646128   -0.347602   -0.149635
     14          8           0        2.685824   -1.547671   -0.023993
     15          1           0       -2.017506   -2.703057    0.315020
     16          1           0        3.542871    0.225435   -0.500405
 ---------------------------------------------------------------------
 Rotational constants (GHZ):           2.6324717           0.9510900           0.7368334

 **********************************************************************

            Population analysis using the SCF Density.

 **********************************************************************

 Orbital symmetries:
       Occupied  (A) (A) (A) (A) (A) (A) (A) (A) (A) (A) (A) (A)
                 (A) (A) (A) (A) (A) (A) (A) (A) (A) (A) (A) (A)
                 (A) (A) (A) (A) (A) (A)
       Virtual   (A) (A) (A) (A) (A) (A) (A) (A) (A) (A) (A) (A)
                 (A) (A) (A) (A) (A) (A) (A) (A) (A) (A) (A) (A)
                 (A) (A) (A) (A) (A) (A) (A) (A) (A) (A) (A) (A)
                 (A) (A) (A) (A) (A) (A) (A) (A) (A) (A) (A) (A)
                 (A) (A) (A) (A) (A) (A) (A) (A) (A) (A) (A) (A)
                 (A) (A) (A) (A) (A) (A) (A) (A) (A) (A) (A) (A)
                 (A) (A) (A) (A) (A) (A) (A) (A) (A) (A) (A) (A)
                 (A) (A) (A) (A) (A) (A) (A) (A) (A) (A) (A) (A)
                 (A) (A) (A) (A) (A) (A) (A) (A) (A) (A) (A) (A)
                 (A) (A) (A) (A) (A) (A) (A) (A) (A) (A) (A) (A)
                 (A) (A)
 The electronic state is 1-A.
 Alpha  occ. eigenvalues --  -19.26568 -19.25444 -10.39755 -10.38765 -10.33009
 Alpha  occ. eigenvalues --  -10.32408 -10.31866 -10.31011  -1.14771  -1.13774
 Alpha  occ. eigenvalues --   -0.89009  -0.88879  -0.75119  -0.72923  -0.65515
 Alpha  occ. eigenvalues --   -0.63454  -0.60571  -0.56481  -0.55878  -0.54379
 Alpha  occ. eigenvalues --   -0.51869  -0.50772  -0.49474  -0.49147  -0.47178
 Alpha  occ. eigenvalues --   -0.46633  -0.37519  -0.36949  -0.35396  -0.34199
 Alpha virt. eigenvalues --   -0.00603   0.00890   0.13332   0.13614   0.15157
 Alpha virt. eigenvalues --    0.16032   0.17094   0.19318   0.21098   0.22012
 Alpha virt. eigenvalues --    0.23668   0.26633   0.30847   0.31111   0.37323
 Alpha virt. eigenvalues --    0.38664   0.39612   0.41946   0.45915   0.47593
 Alpha virt. eigenvalues --    0.49682   0.52046   0.53993   0.55879   0.57380
 Alpha virt. eigenvalues --    0.58312   0.59711   0.60564   0.63380   0.64635
 Alpha virt. eigenvalues --    0.67736   0.69116   0.69960   0.70494   0.73076
 Alpha virt. eigenvalues --    0.73915   0.74658   0.74772   0.75685   0.76369
 Alpha virt. eigenvalues --    0.78223   0.79069   0.80771   0.86532   0.89286
 Alpha virt. eigenvalues --    0.90998   0.94007   0.98522   1.07215   1.09793
 Alpha virt. eigenvalues --    1.10840   1.18407   1.19983   1.21627   1.23688
 Alpha virt. eigenvalues --    1.26206   1.27640   1.29443   1.32872   1.32984
 Alpha virt. eigenvalues --    1.34096   1.36541   1.50689   1.51458   1.52709
 Alpha virt. eigenvalues --    1.52939   1.65217   1.66139   1.70192   1.70859
 Alpha virt. eigenvalues --    1.75106   1.77580   1.78490   1.79287   1.79838
 Alpha virt. eigenvalues --    1.83024   1.84946   1.87469   1.89567   1.91145
 Alpha virt. eigenvalues --    1.92135   1.94726   1.96284   1.98816   2.02995
 Alpha virt. eigenvalues --    2.10688   2.11286   2.15377   2.16321   2.18643
 Alpha virt. eigenvalues --    2.21295   2.22615   2.30970   2.36683   2.43204
 Alpha virt. eigenvalues --    2.43273   2.52109   2.53769   2.54538   2.55820
 Alpha virt. eigenvalues --    2.58474   2.59169   2.66618   2.67605   2.79285
 Alpha virt. eigenvalues --    2.79943   2.80839   2.81959   2.87974   2.88218
 Alpha virt. eigenvalues --    2.93297   2.97457   3.07137   3.14629   3.22272
 Alpha virt. eigenvalues --    3.23234   3.24009   3.39789   3.53562   3.57998
 Alpha virt. eigenvalues --    3.69779   3.70502
          Condensed to atoms (all electrons):
               1          2          3          4          5          6
     1  O    7.721121  -0.004862   0.010468  -0.001490   0.643178  -0.119124
     2  C   -0.004862   4.774748  -0.000046   0.515487   0.000213   0.000109
     3  C    0.010468  -0.000046   4.673200  -0.001563  -0.023278   0.581540
     4  C   -0.001490   0.515487  -0.001563   5.263269   0.000411   0.000281
     5  C    0.643178   0.000213  -0.023278   0.000411   4.575307   0.231745
     6  C   -0.119124   0.000109   0.581540   0.000281   0.231745   5.241916
     7  H   -0.039717   0.000036   0.011710  -0.000067   0.419471  -0.121499
     8  H    0.012626  -0.000031   0.398769  -0.001499  -0.015690  -0.029826
     9  H    0.003065  -0.000001  -0.031274  -0.000066  -0.025348   0.386282
    10  H    0.013146   0.379152  -0.000070  -0.004858   0.000042   0.000654
    11  H    0.000076   0.397561  -0.000003  -0.030559   0.000013   0.000000
    12  H    0.008786  -0.023312   0.005254   0.363684   0.000593  -0.003656
    13  C    0.000243  -0.014930  -0.000080   0.244595   0.000058  -0.000247
    14  O   -0.000000   0.005933  -0.000001  -0.095899  -0.000007   0.000006
    15  H    0.000276  -0.000001   0.392968   0.000051   0.007194  -0.017185
    16  H   -0.000002   0.013906  -0.000001  -0.136169  -0.000007   0.000002
               7          8          9         10         11         12
     1  O   -0.039717   0.012626   0.003065   0.013146   0.000076   0.008786
     2  C    0.000036  -0.000031  -0.000001   0.379152   0.397561  -0.023312
     3  C    0.011710   0.398769  -0.031274  -0.000070  -0.000003   0.005254
     4  C   -0.000067  -0.001499  -0.000066  -0.004858  -0.030559   0.363684
     5  C    0.419471  -0.015690  -0.025348   0.000042   0.000013   0.000593
     6  C   -0.121499  -0.029826   0.386282   0.000654   0.000000  -0.003656
     7  H    0.697668   0.001030  -0.000044  -0.000583  -0.000003   0.000671
     8  H    0.001030   0.568721   0.006778  -0.000043  -0.000002   0.003959
     9  H   -0.000044   0.006778   0.614633  -0.000023  -0.000000   0.000228
    10  H   -0.000583  -0.000043  -0.000023   0.572949  -0.035672  -0.014547
    11  H   -0.000003  -0.000002  -0.000000  -0.035672   0.600584   0.007245
    12  H    0.000671   0.003959   0.000228  -0.014547   0.007245   0.620983
    13  C    0.000014   0.000075   0.000003   0.005673  -0.013908  -0.026580
    14  O   -0.000000  -0.000031   0.000000  -0.000126   0.000129   0.008522
    15  H   -0.000161  -0.033630  -0.010563  -0.000000   0.000000  -0.000162
    16  H   -0.000000  -0.000003   0.000000  -0.000459   0.007972   0.008651
              13         14         15         16
     1  O    0.000243  -0.000000   0.000276  -0.000002
     2  C   -0.014930   0.005933  -0.000001   0.013906
     3  C   -0.000080  -0.000001   0.392968  -0.000001
     4  C    0.244595  -0.095899   0.000051  -0.136169
     5  C    0.000058  -0.000007   0.007194  -0.000007
     6  C   -0.000247   0.000006  -0.017185   0.000002
     7  H    0.000014  -0.000000  -0.000161  -0.000000
     8  H    0.000075  -0.000031  -0.033630  -0.000003
     9  H    0.000003   0.000000  -0.010563   0.000000
    10  H    0.005673  -0.000126  -0.000000  -0.000459
    11  H   -0.013908   0.000129   0.000000   0.007972
    12  H   -0.026580   0.008522  -0.000162   0.008651
    13  C    4.555101   0.656875   0.000002   0.414222
    14  O    0.656875   7.717535   0.000001  -0.040456
    15  H    0.000002   0.000001   0.577837   0.000000
    16  H    0.414222  -0.040456   0.000000   0.719888
 Mulliken charges:
               1
     1  O   -0.247789
     2  C   -0.043961
     3  C   -0.017593
     4  C   -0.115608
     5  C    0.186104
     6  C   -0.150998
     7  H    0.031474
     8  H    0.088797
     9  H    0.056330
    10  H    0.084766
    11  H    0.066567
    12  H    0.039681
    13  C    0.178884
    14  O   -0.252480
    15  H    0.083372
    16  H    0.012455
 Sum of Mulliken charges =  -0.00000
 Mulliken charges with hydrogens summed into heavy atoms:
               1
     1  O   -0.247789
     2  C    0.107371
     3  C    0.154576
     4  C   -0.075927
     5  C    0.217578
     6  C   -0.094668
    13  C    0.191340
    14  O   -0.252480
 Electronic spatial extent (au):  <R**2>=           1485.9017
 Charge=             -0.0000 electrons
 Dipole moment (field-independent basis, Debye):
    X=             -2.1441    Y=              1.1532    Z=             -1.7058  Tot=              2.9727
 Quadrupole moment (field-independent basis, Debye-Ang):
   XX=            -45.1170   YY=            -48.2157   ZZ=            -46.6430
   XY=             11.6983   XZ=              2.8273   YZ=             -2.9253
 Traceless Quadrupole moment (field-independent basis, Debye-Ang):
   XX=              1.5416   YY=             -1.5571   ZZ=              0.0155
   XY=             11.6983   XZ=              2.8273   YZ=             -2.9253
 Octapole moment (field-independent basis, Debye-Ang**2):
  XXX=            -10.1620  YYY=              2.6514  ZZZ=              0.7295  XYY=            -12.0981
  XXY=             19.7742  XXZ=            -13.1676  XZZ=             -2.7013  YZZ=             -3.6236
  YYZ=             -1.8010  XYZ=              2.1669
 Hexadecapole moment (field-independent basis, Debye-Ang**3):
 XXXX=          -1319.3029 YYYY=           -468.7925 ZZZZ=            -97.8600 XXXY=             37.9645
 XXXZ=             14.3609 YYYX=             32.7959 YYYZ=             -4.9918 ZZZX=              0.7254
 ZZZY=              1.1443 XXYY=           -323.2298 XXZZ=           -229.1217 YYZZ=            -99.4336
 XXYZ=             -8.4558 YYXZ=              1.4416 ZZXY=             -7.2299
 N-N= 3.155639123019D+02 E-N=-1.525025417644D+03  KE= 3.797370757969D+02
 Unable to Open any file for archive entry.
 1\1\GINC-NODE-005\FTS\RwB97XD\def2SVP\C6H8O2\JP2658\23-Dec-2023\0\\# w
 b97xd def2svp geom=allchk scrf=(iefpcm,solvent=toluene) opt=(calcfc,ts
 ,noeigen,maxcycles=50,maxstep=10)\\1c_2m_endo_adj_1_reopt2.out\\0,1\O,
 1.5325275484,-0.2671785702,1.4741644629\C,-1.2743075707,1.4372362268,1
 .2255963855\C,1.7858852208,-1.5663410409,-1.0691583107\C,-1.0690553911
 ,1.0480172173,-0.0363896548\C,1.3547638683,-1.4572815061,1.3516816164\
 C,1.419965663,-2.1824218241,0.0594130411\H,1.1210541166,-2.088154787,2
 .242075258\H,2.0529708536,-0.5053370427,-1.057403702\H,1.1634159258,-3
 .24568295,0.0715060557\H,-0.5141377675,1.2775369171,1.9936886623\H,-2.
 208711294,1.9255665648,1.5233925795\H,-0.137334546,0.5607418948,-0.336
 6394799\C,-2.0903850917,1.2555602444,-1.079522216\O,-1.9647154916,0.92
 19637738,-2.2329733547\H,1.8339880728,-2.0942101188,-2.0239220971\H,-3
 .0258241167,1.7593850008,-0.7236092462\\Version=ES64L-G16RevC.01\State
 =1-A\HF=-383.4144717\RMSD=3.699e-09\RMSF=4.286e-05\Dipole=0.1555805,-0
 .8129856,0.8262658\Quadrupole=-0.495417,4.7899829,-4.2945659,-3.919153
 3,-6.9389599,1.3398345\PG=C01 [X(C6H8O2)]\\@
 The archive entry for this job was punched.


 Some scientists claim that hydrogen, because it is so
 plentiful, is the basic building block of the universe. 
 I dispute that. I say that stupidity is far more
 abundant than hydrogen, and THAT is the basic building 
 block of the universe.
                   --Frank Zappa
 Job cpu time:       0 days  0 hours 30 minutes 46.1 seconds.
 Elapsed time:       0 days  0 hours  2 minutes 37.8 seconds.
 File lengths (MBytes):  RWF=     89 Int=      0 D2E=      0 Chk=     12 Scr=      1
 Normal termination of Gaussian 16 at Sat Dec 23 14:14:24 2023.
