Unloading slurm/anatra/current
  ERROR: No such file or directory on
    '/cm/local/modulefiles/slurm/anatra/current'
environment: line 0: unalias: gv: not found
environment: line 0: unalias: sl: not found
 Entering Gaussian System, Link 0=g16
 Initial command:
 /apps/gaussian/g16/C.01/g16/l1.exe "/local/jobs/1152793/Gau-3969684.inp" -scrdir="/local/jobs/1152793/"
 Entering Link 1 = /apps/gaussian/g16/C.01/g16/l1.exe PID=   3969685.
  
 Copyright (c) 1988-2019, Gaussian, Inc.  All Rights Reserved.
  
 This is part of the Gaussian(R) 16 program.  It is based on
 the Gaussian(R) 09 system (copyright 2009, Gaussian, Inc.),
 the Gaussian(R) 03 system (copyright 2003, Gaussian, Inc.),
 the Gaussian(R) 98 system (copyright 1998, Gaussian, Inc.),
 the Gaussian(R) 94 system (copyright 1995, Gaussian, Inc.),
 the Gaussian 92(TM) system (copyright 1992, Gaussian, Inc.),
 the Gaussian 90(TM) system (copyright 1990, Gaussian, Inc.),
 the Gaussian 88(TM) system (copyright 1988, Gaussian, Inc.),
 the Gaussian 86(TM) system (copyright 1986, Carnegie Mellon
 University), and the Gaussian 82(TM) system (copyright 1983,
 Carnegie Mellon University). Gaussian is a federally registered
 trademark of Gaussian, Inc.
  
 This software contains proprietary and confidential information,
 including trade secrets, belonging to Gaussian, Inc.
  
 This software is provided under written license and may be
 used, copied, transmitted, or stored only in accord with that
 written license.
  
 The following legend is applicable only to US Government
 contracts under FAR:
  
                    RESTRICTED RIGHTS LEGEND
  
 Use, reproduction and disclosure by the US Government is
 subject to restrictions as set forth in subparagraphs (a)
 and (c) of the Commercial Computer Software - Restricted
 Rights clause in FAR 52.227-19.
  
 Gaussian, Inc.
 340 Quinnipiac St., Bldg. 40, Wallingford CT 06492
  
  
 ---------------------------------------------------------------
 Warning -- This program may not be used in any manner that
 competes with the business of Gaussian, Inc. or will provide
 assistance to any competitor of Gaussian, Inc.  The licensee
 of this program is prohibited from giving any competitor of
 Gaussian, Inc. access to this program.  By using this program,
 the user acknowledges that Gaussian, Inc. is engaged in the
 business of creating and licensing software in the field of
 computational chemistry and represents and warrants to the
 licensee that it is not a competitor of Gaussian, Inc. and that
 it will not use this program in any manner prohibited above.
 ---------------------------------------------------------------
  

 Cite this work as:
 Gaussian 16, Revision C.01,
 M. J. Frisch, G. W. Trucks, H. B. Schlegel, G. E. Scuseria, 
 M. A. Robb, J. R. Cheeseman, G. Scalmani, V. Barone, 
 G. A. Petersson, H. Nakatsuji, X. Li, M. Caricato, A. V. Marenich, 
 J. Bloino, B. G. Janesko, R. Gomperts, B. Mennucci, H. P. Hratchian, 
 J. V. Ortiz, A. F. Izmaylov, J. L. Sonnenberg, D. Williams-Young, 
 F. Ding, F. Lipparini, F. Egidi, J. Goings, B. Peng, A. Petrone, 
 T. Henderson, D. Ranasinghe, V. G. Zakrzewski, J. Gao, N. Rega, 
 G. Zheng, W. Liang, M. Hada, M. Ehara, K. Toyota, R. Fukuda, 
 J. Hasegawa, M. Ishida, T. Nakajima, Y. Honda, O. Kitao, H. Nakai, 
 T. Vreven, K. Throssell, J. A. Montgomery, Jr., J. E. Peralta, 
 F. Ogliaro, M. J. Bearpark, J. J. Heyd, E. N. Brothers, K. N. Kudin, 
 V. N. Staroverov, T. A. Keith, R. Kobayashi, J. Normand, 
 K. Raghavachari, A. P. Rendell, J. C. Burant, S. S. Iyengar, 
 J. Tomasi, M. Cossi, J. M. Millam, M. Klene, C. Adamo, R. Cammi, 
 J. W. Ochterski, R. L. Martin, K. Morokuma, O. Farkas, 
 J. B. Foresman, and D. J. Fox, Gaussian, Inc., Wallingford CT, 2019.
 
 ******************************************
 Gaussian 16:  ES64L-G16RevC.01  3-Jul-2019
                22-Dec-2023 
 ******************************************
 %chk=da-1_1_opt_dft.chk
 %nprocshared=12
 Will use up to   12 processors via shared memory.
 %mem=48GB
 ----------------------------------------------------------------------
 # wb97xd chkbasis guess=read geom=allchk scrf=(iefpcm,solvent=toluene)
  opt=(readfc,ts,noeigen,maxcycles=50,maxstep=10)
 ----------------------------------------------------------------------
 1/5=1,6=50,8=10,10=3,11=1,18=20,26=3,29=7,38=1/1,3;
 2/9=110,12=2,40=1/2;
 3/5=7,6=2,11=2,14=-4,25=1,30=1,67=1,70=2201,71=1,72=13,74=-58,116=-2/1,2,3;
 4/5=1/1;
 5/5=2,38=6,53=13/2;
 6/7=2,8=2,9=2,10=2,28=1/1;
 7//1,2,3,16;
 1/5=1,6=50,8=10,11=1,18=20,26=3/3(2);
 2/9=110/2;
 99//99;
 2/9=110/2;
 3/5=7,6=1,11=2,14=-2,25=1,30=1,70=2205,71=1,72=13,74=-58,82=7/1,2,3;
 4/5=5,16=3,69=1/1;
 5/5=2,38=5,53=13/2;
 7//1,2,3,16;
 1/5=1,6=50,8=10,11=1,18=20,26=3/3(-5);
 2/9=110/2;
 6/7=2,8=2,9=2,10=2,19=2,28=1/1;
 99/9=1/99;
 Structure from the checkpoint file:  "da-1_1_opt_dft.chk"
 ---------------------------
 1c_2m_endo_adj_1_reopt2.out
 ---------------------------
 Charge =  0 Multiplicity = 1
 Redundant internal coordinates found in file.  (old form).
 O,0,1.9188260152,-0.8242278912,1.7346958084
 C,0,-1.0199808282,1.5691139109,1.2430904843
 C,0,1.8816784522,-1.3989050084,-1.0717641393
 C,0,-0.8171683137,1.1905127497,-0.0225176149
 C,0,0.9839307081,-1.3884889772,1.2181949275
 C,0,0.8929320051,-1.7095718598,-0.2285851525
 H,0,0.1051507054,-1.7062138448,1.8304068409
 H,0,2.7834011005,-0.9043178016,-0.6986197206
 H,0,-0.0203507358,-2.1998524382,-0.5776353658
 H,0,-0.2401473551,2.0582849503,1.8308198514
 H,0,-1.9812499361,1.391750154,1.7375743987
 H,0,0.1362856837,1.3509764478,-0.5339142883
 C,0,-1.8758082941,0.5039189269,-0.7888559627
 O,0,-1.7405340326,0.0840892009,-1.9120867907
 H,0,1.8181786965,-1.6212643895,-2.1390078433
 H,0,-2.8450438712,0.3835958701,-0.2398954331
 Recover connectivity data from disk.

 GradGradGradGradGradGradGradGradGradGradGradGradGradGradGradGradGradGrad
 Berny optimization.
 Initialization pass.
 Force constant matrix read from checkpoint file:
 "da-1_1_opt_dft.chk"
                           ----------------------------
                           !    Initial Parameters    !
                           ! (Angstroms and Degrees)  !
 --------------------------                            --------------------------
 ! Name  Definition              Value          Derivative Info.                !
 --------------------------------------------------------------------------------
 ! R1    R(1,5)                  1.208          D2E/DX2 =    0.7693             !
 ! R2    R(2,4)                  1.3365         D2E/DX2 =    0.6032             !
 ! R3    R(2,10)                 1.0922         D2E/DX2 =    0.3922             !
 ! R4    R(2,11)                 1.0954         D2E/DX2 =    0.3888             !
 ! R5    R(3,6)                  1.3361         D2E/DX2 =    0.6036             !
 ! R6    R(3,8)                  1.0941         D2E/DX2 =    0.3929             !
 ! R7    R(3,15)                 1.092          D2E/DX2 =    0.3917             !
 ! R8    R(4,12)                 1.0938         D2E/DX2 =    0.3938             !
 ! R9    R(4,13)                 1.4763         D2E/DX2 =    0.3762             !
 ! R10   R(5,6)                  1.4848         D2E/DX2 =    0.3683             !
 ! R11   R(5,7)                  1.1171         D2E/DX2 =    0.3631             !
 ! R12   R(6,9)                  1.0938         D2E/DX2 =    0.3912             !
 ! R13   R(8,12)                 3.4815         D2E/DX2 =    0.0085             !
 ! R14   R(13,14)                1.2067         D2E/DX2 =    0.7984             !
 ! R15   R(13,16)                1.1204         D2E/DX2 =    0.3609             !
 ! A1    A(4,2,10)             121.8776         D2E/DX2 =    0.0787             !
 ! A2    A(4,2,11)             120.9807         D2E/DX2 =    0.0778             !
 ! A3    A(10,2,11)            117.1399         D2E/DX2 =    0.0707             !
 ! A4    A(6,3,8)              119.9879         D2E/DX2 =    0.1039             !
 ! A5    A(6,3,15)             121.7623         D2E/DX2 =    0.0857             !
 ! A6    A(8,3,15)             118.2493         D2E/DX2 =    0.0772             !
 ! A7    A(2,4,12)             122.2404         D2E/DX2 =    0.0922             !
 ! A8    A(2,4,13)             120.9637         D2E/DX2 =    0.1083             !
 ! A9    A(12,4,13)            116.7838         D2E/DX2 =    0.0839             !
 ! A10   A(1,5,6)              124.4081         D2E/DX2 =    0.1679             !
 ! A11   A(1,5,7)              120.4866         D2E/DX2 =    0.1263             !
 ! A12   A(6,5,7)              115.105          D2E/DX2 =    0.1086             !
 ! A13   A(3,6,5)              121.2854         D2E/DX2 =    0.1371             !
 ! A14   A(3,6,9)              121.3834         D2E/DX2 =    0.096              !
 ! A15   A(5,6,9)              117.3275         D2E/DX2 =    0.0956             !
 ! A16   A(3,8,12)              71.4766         D2E/DX2 =    0.0646             !
 ! A17   A(4,12,8)             126.1484         D2E/DX2 =    0.0914             !
 ! A18   A(4,13,14)            124.3745         D2E/DX2 =    0.1552             !
 ! A19   A(4,13,16)            114.5797         D2E/DX2 =    0.1022             !
 ! A20   A(14,13,16)           121.0433         D2E/DX2 =    0.1227             !
 ! D1    D(10,2,4,12)           -0.0549         D2E/DX2 =    0.0207             !
 ! D2    D(10,2,4,13)          178.6358         D2E/DX2 =    0.023              !
 ! D3    D(11,2,4,12)         -179.5616         D2E/DX2 =    0.0236             !
 ! D4    D(11,2,4,13)           -0.871          D2E/DX2 =    0.0202             !
 ! D5    D(8,3,6,5)              0.4236         D2E/DX2 =    0.0264             !
 ! D6    D(8,3,6,9)            179.7096         D2E/DX2 =    0.0207             !
 ! D7    D(15,3,6,5)          -179.2999         D2E/DX2 =    0.0338             !
 ! D8    D(15,3,6,9)            -0.0139         D2E/DX2 =    0.02               !
 ! D9    D(6,3,8,12)           -69.8338         D2E/DX2 =    0.0451             !
 ! D10   D(15,3,8,12)          109.8993         D2E/DX2 =    0.0297             !
 ! D11   D(2,4,12,8)            92.4338         D2E/DX2 =    0.026              !
 ! D12   D(13,4,12,8)          -86.3085         D2E/DX2 =    0.0195             !
 ! D13   D(2,4,13,14)         -176.6168         D2E/DX2 =    0.0232             !
 ! D14   D(2,4,13,16)            2.8143         D2E/DX2 =    0.0246             !
 ! D15   D(12,4,13,14)           2.1427         D2E/DX2 =    0.0267             !
 ! D16   D(12,4,13,16)        -178.4263         D2E/DX2 =    0.0248             !
 ! D17   D(1,5,6,3)              0.9424         D2E/DX2 =    0.0264             !
 ! D18   D(1,5,6,9)           -178.3715         D2E/DX2 =    0.0278             !
 ! D19   D(7,5,6,3)           -179.2302         D2E/DX2 =    0.0269             !
 ! D20   D(7,5,6,9)              1.4558         D2E/DX2 =    0.0252             !
 ! D21   D(3,8,12,4)            55.1136         D2E/DX2 =    0.0199             !
 --------------------------------------------------------------------------------
 Trust Radius=1.00D-01 FncErr=1.00D-07 GrdErr=1.00D-06 EigMax=2.50D+02 EigMin=1.00D-04
 Number of steps in this run=     50 maximum allowed number of steps=    100.
 Search for a saddle point of order  1.
 GradGradGradGradGradGradGradGradGradGradGradGradGradGradGradGradGradGrad

                          Input orientation:                          
 ---------------------------------------------------------------------
 Center     Atomic      Atomic             Coordinates (Angstroms)
 Number     Number       Type             X           Y           Z
 ---------------------------------------------------------------------
      1          8           0        1.918826   -0.824228    1.734696
      2          6           0       -1.019981    1.569114    1.243090
      3          6           0        1.881678   -1.398905   -1.071764
      4          6           0       -0.817168    1.190513   -0.022518
      5          6           0        0.983931   -1.388489    1.218195
      6          6           0        0.892932   -1.709572   -0.228585
      7          1           0        0.105151   -1.706214    1.830407
      8          1           0        2.783401   -0.904318   -0.698620
      9          1           0       -0.020351   -2.199852   -0.577635
     10          1           0       -0.240147    2.058285    1.830820
     11          1           0       -1.981250    1.391750    1.737574
     12          1           0        0.136286    1.350976   -0.533914
     13          6           0       -1.875808    0.503919   -0.788856
     14          8           0       -1.740534    0.084089   -1.912087
     15          1           0        1.818179   -1.621264   -2.139008
     16          1           0       -2.845044    0.383596   -0.239895
 ---------------------------------------------------------------------
                    Distance matrix (angstroms):
                    1          2          3          4          5
     1  O    0.000000
     2  C    3.821825   0.000000
     3  C    2.864935   4.752611   0.000000
     4  C    3.825264   1.336501   3.884556   0.000000
     5  C    1.207971   3.572632   2.459669   3.381505   0.000000
     6  C    2.385532   4.071222   1.336070   3.373040   1.484772
     7  H    2.019029   3.512639   3.416590   3.560200   1.117142
     8  H    2.583588   4.934959   1.094055   4.220134   2.673330
     9  H    3.316568   4.303418   2.122120   3.526705   2.211764
    10  H    3.602678   1.092179   4.987915   2.126227   3.708629
    11  H    4.485662   1.095450   5.531940   2.119789   4.097778
    12  H    3.613247   2.131263   3.301140   1.093778   3.360515
    13  C    4.746740   2.448650   4.221313   1.476281   3.973357
    14  O    5.245472   3.560848   4.003228   2.376394   4.403392
    15  H    3.956132   5.447224   1.092010   4.396666   3.467126
    16  H    5.296443   2.633544   5.119689   2.193319   4.464007
                    6          7          8          9         10
     6  C    0.000000
     7  H    2.204554   0.000000
     8  H    2.107899   3.769886   0.000000
     9  H    1.093753   2.461320   3.090966   0.000000
    10  H    4.440919   3.780302   4.931219   4.897009   0.000000
    11  H    4.663143   3.736183   5.823132   4.701588   1.866655
    12  H    3.167443   3.864893   3.481480   3.554551   2.496789
    13  C    3.588784   3.958462   4.868214   3.285988   3.457476
    14  O    3.603684   4.540704   4.787007   3.155342   4.489762
    15  H    2.124522   4.324111   1.876269   2.480492   5.790969
    16  H    4.284150   4.166186   5.792110   3.842807   3.725310
                   11         12         13         14         15
    11  H    0.000000
    12  H    3.105685   0.000000
    13  C    2.679965   2.197959   0.000000
    14  O    3.884321   2.650814   1.206733   0.000000
    15  H    6.208205   3.773500   4.470442   3.952741   0.000000
    16  H    2.381785   3.148110   1.120381   2.026295   5.419570
                   16
    16  H    0.000000
 Stoichiometry    C6H8O2
 Framework group  C1[X(C6H8O2)]
 Deg. of freedom    42
 Full point group                 C1      NOp   1
 Largest Abelian subgroup         C1      NOp   1
 Largest concise Abelian subgroup C1      NOp   1
                         Standard orientation:                         
 ---------------------------------------------------------------------
 Center     Atomic      Atomic             Coordinates (Angstroms)
 Number     Number       Type             X           Y           Z
 ---------------------------------------------------------------------
      1          8           0       -2.299653    1.237817    0.088278
      2          6           0        1.458708    1.909110    0.262734
      3          6           0       -1.801958   -1.526432    0.653145
      4          6           0        1.443447    0.606300    0.560541
      5          6           0       -1.698549    0.533298   -0.687299
      6          6           0       -1.396955   -0.902078   -0.456467
      7          1           0       -1.322794    0.946982   -1.654605
      8          1           0       -2.373470   -0.980901    1.409932
      9          1           0       -0.820453   -1.424025   -1.225567
     10          1           0        0.924031    2.645204    0.867002
     11          1           0        2.006665    2.281762   -0.609553
     12          1           0        0.897593    0.211030    1.422025
     13          6           0        2.148875   -0.374960   -0.287342
     14          8           0        2.127612   -1.568417   -0.110110
     15          1           0       -1.574832   -2.578783    0.836056
     16          1           0        2.718174    0.072095   -1.142498
 ---------------------------------------------------------------------
 Rotational constants (GHZ):           2.4353462           1.2170459           0.8998957
 Basis read from chk: "da-1_1_opt_dft.chk" (5D, 7F)
 Pseudo-potential data read from chk file.
 There are   160 symmetry adapted cartesian basis functions of A   symmetry.
 There are   152 symmetry adapted basis functions of A   symmetry.
   152 basis functions,   256 primitive gaussians,   160 cartesian basis functions
    30 alpha electrons       30 beta electrons
       nuclear repulsion energy       325.3013037556 Hartrees.
 NAtoms=   16 NActive=   16 NUniq=   16 SFac= 1.00D+00 NAtFMM=   60 NAOKFM=F Big=F
 Integral buffers will be    131072 words long.
 Raffenetti 2 integral format.
 Two-electron integral symmetry is turned on.
 Nuclear repulsion after empirical dispersion term =      325.2939889023 Hartrees.
 ------------------------------------------------------------------------------
 Polarizable Continuum Model (PCM)
 =================================
 Model                : PCM.
 Atomic radii         : UFF (Universal Force Field).
 Polarization charges : Total charges.
 Charge compensation  : None.
 Solution method      : On-the-fly selection.
 Cavity type          : Scaled VdW (van der Waals Surface) (Alpha=1.100).
 Cavity algorithm     : GePol (No added spheres)
                        Default sphere list used, NSphG=   16.
                        Lebedev-Laikov grids with approx.  5.0 points / Ang**2.
                        Smoothing algorithm: York/Karplus (Gamma=1.0000).
                        Polarization charges: spherical gaussians, with
                                              point-specific exponents (IZeta= 3).
                        Self-potential: point-specific (ISelfS= 7).
                        Self-field    : sphere-specific E.n sum rule (ISelfD= 2).
 1st derivatives      : Analytical E(r).r(x)/FMM algorithm (CHGder, D1EAlg=3).
                        Cavity 1st derivative terms included.
 Solvent              : Toluene, Eps=   2.374100 Eps(inf)=   2.238315
 ------------------------------------------------------------------------------
 Spheres list:
 ISph  on   Nord     Re0    Alpha      Xe            Ye            Ze
    1   O      1    1.7500  1.100     -2.299653      1.237817      0.088278
    2   C      2    1.9255  1.100      1.458708      1.909110      0.262734
    3   C      3    1.9255  1.100     -1.801958     -1.526432      0.653145
    4   C      4    1.9255  1.100      1.443447      0.606300      0.560541
    5   C      5    1.9255  1.100     -1.698549      0.533298     -0.687299
    6   C      6    1.9255  1.100     -1.396955     -0.902078     -0.456467
    7   H      7    1.4430  1.100     -1.322794      0.946982     -1.654605
    8   H      8    1.4430  1.100     -2.373470     -0.980901      1.409932
    9   H      9    1.4430  1.100     -0.820453     -1.424025     -1.225567
   10   H     10    1.4430  1.100      0.924031      2.645204      0.867002
   11   H     11    1.4430  1.100      2.006665      2.281762     -0.609553
   12   H     12    1.4430  1.100      0.897593      0.211030      1.422025
   13   C     13    1.9255  1.100      2.148875     -0.374960     -0.287342
   14   O     14    1.7500  1.100      2.127612     -1.568417     -0.110110
   15   H     15    1.4430  1.100     -1.574832     -2.578783      0.836056
   16   H     16    1.4430  1.100      2.718174      0.072095     -1.142498
 ------------------------------------------------------------------------------
 One-electron integrals computed using PRISM.
   1 Symmetry operations used in ECPInt.
 ECPInt:  NShTT=    2628 NPrTT=    9444 LenC2=    2594 LenP2D=    7347.
 LDataN:  DoStor=T MaxTD1= 4 Len=   56
 NBasis=   152 RedAO= T EigKep=  2.18D-03  NBF=   152
 NBsUse=   152 1.00D-06 EigRej= -1.00D+00 NBFU=   152
 Initial guess from the checkpoint file:  "da-1_1_opt_dft.chk"
 B after Tr=    -0.000000   -0.000000    0.000000
         Rot=    1.000000    0.000000    0.000000   -0.000000 Ang=   0.00 deg.
 Requested convergence on RMS density matrix=1.00D-08 within 128 cycles.
 Requested convergence on MAX density matrix=1.00D-06.
 Requested convergence on             energy=1.00D-06.
 No special actions if energy rises.
 Inv3:  Mode=1 IEnd=     6995187.
 Iteration    1 A*A^-1 deviation from unit magnitude is 3.00D-15 for    577.
 Iteration    1 A*A^-1 deviation from orthogonality  is 1.89D-15 for   1263   1087.
 Iteration    1 A^-1*A deviation from unit magnitude is 3.00D-15 for    577.
 Iteration    1 A^-1*A deviation from orthogonality  is 1.18D-15 for    979    768.
 Error on total polarization charges =  0.00497
 SCF Done:  E(RwB97XD) =  -383.414115340     A.U. after    1 cycles
            NFock=  1  Conv=0.26D-08     -V/T= 2.0097

 **********************************************************************

            Population analysis using the SCF Density.

 **********************************************************************

 Orbital symmetries:
       Occupied  (A) (A) (A) (A) (A) (A) (A) (A) (A) (A) (A) (A)
                 (A) (A) (A) (A) (A) (A) (A) (A) (A) (A) (A) (A)
                 (A) (A) (A) (A) (A) (A)
       Virtual   (A) (A) (A) (A) (A) (A) (A) (A) (A) (A) (A) (A)
                 (A) (A) (A) (A) (A) (A) (A) (A) (A) (A) (A) (A)
                 (A) (A) (A) (A) (A) (A) (A) (A) (A) (A) (A) (A)
                 (A) (A) (A) (A) (A) (A) (A) (A) (A) (A) (A) (A)
                 (A) (A) (A) (A) (A) (A) (A) (A) (A) (A) (A) (A)
                 (A) (A) (A) (A) (A) (A) (A) (A) (A) (A) (A) (A)
                 (A) (A) (A) (A) (A) (A) (A) (A) (A) (A) (A) (A)
                 (A) (A) (A) (A) (A) (A) (A) (A) (A) (A) (A) (A)
                 (A) (A) (A) (A) (A) (A) (A) (A) (A) (A) (A) (A)
                 (A) (A) (A) (A) (A) (A) (A) (A) (A) (A) (A) (A)
                 (A) (A)
 The electronic state is 1-A.
 Alpha  occ. eigenvalues --  -19.26111 -19.25859 -10.39438 -10.39226 -10.33305
 Alpha  occ. eigenvalues --  -10.32439 -10.31971 -10.31370  -1.14444  -1.14158
 Alpha  occ. eigenvalues --   -0.89763  -0.88474  -0.74581  -0.73677  -0.66262
 Alpha  occ. eigenvalues --   -0.62906  -0.60062  -0.57016  -0.56474  -0.53984
 Alpha  occ. eigenvalues --   -0.51311  -0.51228  -0.50296  -0.49089  -0.47555
 Alpha  occ. eigenvalues --   -0.46535  -0.37829  -0.36869  -0.34866  -0.34705
 Alpha virt. eigenvalues --   -0.00291   0.00484   0.12552   0.13927   0.15187
 Alpha virt. eigenvalues --    0.15961   0.16385   0.18498   0.20827   0.21320
 Alpha virt. eigenvalues --    0.23352   0.24036   0.30324   0.31085   0.36941
 Alpha virt. eigenvalues --    0.37820   0.38964   0.40801   0.41745   0.48324
 Alpha virt. eigenvalues --    0.49945   0.52285   0.52626   0.55099   0.56466
 Alpha virt. eigenvalues --    0.58551   0.59567   0.60939   0.63311   0.67346
 Alpha virt. eigenvalues --    0.69329   0.69818   0.70984   0.72745   0.73426
 Alpha virt. eigenvalues --    0.74087   0.75225   0.76395   0.76575   0.77504
 Alpha virt. eigenvalues --    0.77973   0.81462   0.85085   0.87358   0.89393
 Alpha virt. eigenvalues --    0.92281   0.95779   0.97394   1.08130   1.09113
 Alpha virt. eigenvalues --    1.11112   1.11439   1.17733   1.21790   1.22958
 Alpha virt. eigenvalues --    1.24730   1.25489   1.27673   1.32071   1.33108
 Alpha virt. eigenvalues --    1.33983   1.35282   1.50943   1.51972   1.54312
 Alpha virt. eigenvalues --    1.55166   1.64748   1.66240   1.70116   1.71779
 Alpha virt. eigenvalues --    1.75161   1.76772   1.79428   1.80348   1.82225
 Alpha virt. eigenvalues --    1.82512   1.85849   1.86054   1.89032   1.91274
 Alpha virt. eigenvalues --    1.92784   1.95373   1.97300   2.01046   2.05075
 Alpha virt. eigenvalues --    2.10375   2.12449   2.14331   2.16549   2.18295
 Alpha virt. eigenvalues --    2.21042   2.24076   2.31956   2.36842   2.42071
 Alpha virt. eigenvalues --    2.43919   2.53011   2.53299   2.53828   2.55716
 Alpha virt. eigenvalues --    2.57420   2.59511   2.67044   2.67147   2.79100
 Alpha virt. eigenvalues --    2.79294   2.81257   2.81740   2.84852   2.88479
 Alpha virt. eigenvalues --    2.94104   2.96577   3.05457   3.15095   3.22680
 Alpha virt. eigenvalues --    3.23191   3.24756   3.39215   3.52970   3.58669
 Alpha virt. eigenvalues --    3.69837   3.70277
          Condensed to atoms (all electrons):
               1          2          3          4          5          6
     1  O    7.707104  -0.000135   0.012821  -0.001031   0.674039  -0.123511
     2  C   -0.000135   4.775283  -0.000070   0.491622   0.002191  -0.001014
     3  C    0.012821  -0.000070   4.683833  -0.000240  -0.018386   0.563414
     4  C   -0.001031   0.491622  -0.000240   5.273111   0.000864  -0.005446
     5  C    0.674039   0.002191  -0.018386   0.000864   4.566224   0.210274
     6  C   -0.123511  -0.001014   0.563414  -0.005446   0.210274   5.303462
     7  H   -0.041882   0.000528   0.013374   0.000846   0.419522  -0.129979
     8  H    0.015942  -0.000028   0.400913  -0.000175  -0.015033  -0.035235
     9  H    0.003057  -0.000390  -0.030019  -0.001346  -0.026216   0.384559
    10  H    0.000634   0.385437  -0.000007  -0.005007   0.000533  -0.000055
    11  H    0.000004   0.401696  -0.000005  -0.030076  -0.000072   0.000002
    12  H    0.000138  -0.023995   0.000976   0.379958   0.000018   0.002192
    13  C    0.000036  -0.009500  -0.000281   0.245181  -0.000332   0.000309
    14  O    0.000000   0.006389  -0.000513  -0.094489  -0.000111   0.000455
    15  H    0.000267   0.000005   0.391193  -0.000077   0.007369  -0.016021
    16  H    0.000000   0.016159  -0.000016  -0.139469  -0.000053   0.000129
               7          8          9         10         11         12
     1  O   -0.041882   0.015942   0.003057   0.000634   0.000004   0.000138
     2  C    0.000528  -0.000028  -0.000390   0.385437   0.401696  -0.023995
     3  C    0.013374   0.400913  -0.030019  -0.000007  -0.000005   0.000976
     4  C    0.000846  -0.000175  -0.001346  -0.005007  -0.030076   0.379958
     5  C    0.419522  -0.015033  -0.026216   0.000533  -0.000072   0.000018
     6  C   -0.129979  -0.035235   0.384559  -0.000055   0.000002   0.002192
     7  H    0.715737   0.001357  -0.000051  -0.000106   0.000091   0.000127
     8  H    0.001357   0.584028   0.007098  -0.000003   0.000000   0.000290
     9  H   -0.000051   0.007098   0.612413  -0.000003  -0.000000   0.000051
    10  H   -0.000106  -0.000003  -0.000003   0.571659  -0.035384  -0.010945
    11  H    0.000091   0.000000  -0.000000  -0.035384   0.589819   0.006406
    12  H    0.000127   0.000290   0.000051  -0.010945   0.006406   0.595798
    13  C   -0.000029   0.000058   0.002863   0.005281  -0.013528  -0.026040
    14  O   -0.000024  -0.000004   0.001808  -0.000129   0.000147   0.006099
    15  H   -0.000176  -0.035256  -0.010753  -0.000000   0.000000   0.000047
    16  H    0.000008   0.000001  -0.000009  -0.000409   0.007666   0.007431
              13         14         15         16
     1  O    0.000036   0.000000   0.000267   0.000000
     2  C   -0.009500   0.006389   0.000005   0.016159
     3  C   -0.000281  -0.000513   0.391193  -0.000016
     4  C    0.245181  -0.094489  -0.000077  -0.139469
     5  C   -0.000332  -0.000111   0.007369  -0.000053
     6  C    0.000309   0.000455  -0.016021   0.000129
     7  H   -0.000029  -0.000024  -0.000176   0.000008
     8  H    0.000058  -0.000004  -0.035256   0.000001
     9  H    0.002863   0.001808  -0.010753  -0.000009
    10  H    0.005281  -0.000129  -0.000000  -0.000409
    11  H   -0.013528   0.000147   0.000000   0.007666
    12  H   -0.026040   0.006099   0.000047   0.007431
    13  C    4.559161   0.648244  -0.000013   0.419693
    14  O    0.648244   7.718882   0.000263  -0.038777
    15  H   -0.000013   0.000263   0.581874   0.000006
    16  H    0.419693  -0.038777   0.000006   0.709168
 Mulliken charges:
               1
     1  O   -0.247482
     2  C   -0.044176
     3  C   -0.016985
     4  C   -0.114224
     5  C    0.179168
     6  C   -0.153536
     7  H    0.020657
     8  H    0.076047
     9  H    0.056940
    10  H    0.088504
    11  H    0.073234
    12  H    0.061449
    13  C    0.168897
    14  O   -0.248241
    15  H    0.081274
    16  H    0.018474
 Sum of Mulliken charges =   0.00000
 Mulliken charges with hydrogens summed into heavy atoms:
               1
     1  O   -0.247482
     2  C    0.117563
     3  C    0.140336
     4  C   -0.052776
     5  C    0.199824
     6  C   -0.096596
    13  C    0.187371
    14  O   -0.248241
 Electronic spatial extent (au):  <R**2>=           1268.3533
 Charge=              0.0000 electrons
 Dipole moment (field-independent basis, Debye):
    X=              0.9192    Y=              1.0514    Z=             -0.9279  Tot=              1.6767
 Quadrupole moment (field-independent basis, Debye-Ang):
   XX=            -53.5172   YY=            -48.8290   ZZ=            -43.5663
   XY=             12.1422   XZ=             -0.7838   YZ=             -2.0304
 Traceless Quadrupole moment (field-independent basis, Debye-Ang):
   XX=             -4.8797   YY=             -0.1915   ZZ=              5.0712
   XY=             12.1422   XZ=             -0.7838   YZ=             -2.0304
 Octapole moment (field-independent basis, Debye-Ang**2):
  XXX=             12.7932  YYY=              5.9070  ZZZ=             -0.7369  XYY=             -2.7447
  XXY=              0.6663  XXZ=             -4.7009  XZZ=             -2.9404  YZZ=             -0.2207
  YYZ=              2.7151  XYZ=              2.0340
 Hexadecapole moment (field-independent basis, Debye-Ang**3):
 XXXX=          -1024.0963 YYYY=           -477.0981 ZZZZ=           -136.9171 XXXY=             25.3133
 XXXZ=            -16.0904 YYYX=             25.3305 YYYZ=             -3.3683 ZZZX=             -6.1337
 ZZZY=             -1.3054 XXYY=           -281.9416 XXZZ=           -178.6042 YYZZ=           -101.5747
 XXYZ=            -17.8823 YYXZ=             -5.8893 ZZXY=             -6.5184
 N-N= 3.252939889023D+02 E-N=-1.544355576013D+03  KE= 3.797265884966D+02
   1 Symmetry operations used in ECPInt.
 ECPInt:  NShTT=    2628 NPrTT=    9444 LenC2=    2594 LenP2D=    7347.
 LDataN:  DoStor=T MaxTD1= 5 Len=  102
 D1PCM: PCM CHGder 1st derivatives, ID1Alg=3 FixD1E=F DoIter=F DoCFld=F I1PDM=0.
 Calling FoFJK, ICntrl=      2127 FMM=F ISym2X=0 I1Cent= 0 IOpClX= 0 NMat=1 NMatS=1 NMatT=0.
 ***** Axes restored to original set *****
 -------------------------------------------------------------------
 Center     Atomic                   Forces (Hartrees/Bohr)
 Number     Number              X              Y              Z
 -------------------------------------------------------------------
      1        8          -0.000008753   -0.000021271    0.000012637
      2        6           0.000001349    0.000009148   -0.000005110
      3        6          -0.000017238    0.000017351    0.000021670
      4        6          -0.000007866   -0.000000287   -0.000014795
      5        6           0.000008251   -0.000006193   -0.000001014
      6        6          -0.000004509    0.000009443    0.000000581
      7        1          -0.000000915    0.000003297    0.000000120
      8        1           0.000033532   -0.000001677   -0.000036640
      9        1           0.000002243   -0.000003509    0.000002346
     10        1          -0.000006163    0.000003869   -0.000003980
     11        1           0.000001212    0.000004960   -0.000002186
     12        1          -0.000014376    0.000000982    0.000020029
     13        6           0.000010724   -0.000000999    0.000008940
     14        8          -0.000001725   -0.000004176   -0.000004316
     15        1           0.000005525   -0.000012263    0.000002575
     16        1          -0.000001292    0.000001323   -0.000000859
 -------------------------------------------------------------------
 Cartesian Forces:  Max     0.000036640 RMS     0.000011186

 GradGradGradGradGradGradGradGradGradGradGradGradGradGradGradGradGradGrad
 Berny optimization.
 FormGI is forming the generalized inverse of G from B-inverse, IUseBI=4.
 Internal  Forces:  Max     0.000062706 RMS     0.000020181
 Search for a saddle point.
 Step number   1 out of a maximum of   50
 All quantities printed in internal units (Hartrees-Bohrs-Radians)
 Swapping is turned off.
 Second derivative matrix not updated -- first step.
 ITU=  0
     Eigenvalues ---   -0.00073   0.00103   0.00350   0.00514   0.00805
     Eigenvalues ---    0.01689   0.02037   0.02377   0.02899   0.03213
     Eigenvalues ---    0.03498   0.04484   0.06219   0.08153   0.08236
     Eigenvalues ---    0.10253   0.10677   0.10835   0.11104   0.11364
     Eigenvalues ---    0.13137   0.14199   0.14370   0.16339   0.17053
     Eigenvalues ---    0.23153   0.23873   0.31332   0.36097   0.36256
     Eigenvalues ---    0.36993   0.37558   0.38960   0.39171   0.39255
     Eigenvalues ---    0.39308   0.39583   0.39989   0.60908   0.61694
     Eigenvalues ---    0.78671   0.81559
 Eigenvectors required to have negative eigenvalues:
                          D21       R13       D11       D12       A16
   1                    0.66468   0.52145  -0.35514  -0.34732  -0.13478
                          D10       D9        A17       D18       D20
   1                    0.09002   0.08779   0.02902  -0.02807  -0.02579
 RFO step:  Lambda0=2.863409012D-08 Lambda=-2.94850731D-07.
 Linear search not attempted -- option 19 set.
 Iteration  1 RMS(Cart)=  0.00457024 RMS(Int)=  0.00000582
 Iteration  2 RMS(Cart)=  0.00001318 RMS(Int)=  0.00000000
 Iteration  3 RMS(Cart)=  0.00000000 RMS(Int)=  0.00000000
 Variable       Old X    -DE/DX   Delta X   Delta X   Delta X     New X
                                 (Linear)    (Quad)   (Total)
    R1        2.28273  -0.00001   0.00000  -0.00001  -0.00001   2.28272
    R2        2.52562  -0.00000   0.00000   0.00000   0.00000   2.52562
    R3        2.06392  -0.00000   0.00000   0.00000   0.00000   2.06392
    R4        2.07010  -0.00000   0.00000  -0.00000  -0.00000   2.07010
    R5        2.52481   0.00001   0.00000   0.00000   0.00000   2.52481
    R6        2.06746   0.00001   0.00000   0.00001   0.00001   2.06747
    R7        2.06360   0.00000   0.00000   0.00000   0.00000   2.06360
    R8        2.06694  -0.00001   0.00000  -0.00002  -0.00002   2.06692
    R9        2.78977  -0.00001   0.00000   0.00001   0.00001   2.78978
   R10        2.80581   0.00000   0.00000  -0.00003  -0.00003   2.80578
   R11        2.11109  -0.00000   0.00000   0.00001   0.00001   2.11110
   R12        2.06689  -0.00000   0.00000   0.00001   0.00001   2.06690
   R13        6.57904   0.00002   0.00000   0.00337   0.00337   6.58241
   R14        2.28039   0.00000   0.00000  -0.00001  -0.00001   2.28038
   R15        2.11721   0.00000   0.00000   0.00000   0.00000   2.11722
    A1        2.12717   0.00000   0.00000   0.00001   0.00001   2.12717
    A2        2.11151   0.00000   0.00000   0.00001   0.00001   2.11152
    A3        2.04448  -0.00000   0.00000  -0.00001  -0.00001   2.04447
    A4        2.09418   0.00005   0.00000   0.00026   0.00026   2.09444
    A5        2.12515  -0.00002   0.00000  -0.00014  -0.00014   2.12502
    A6        2.06384  -0.00003   0.00000  -0.00012  -0.00012   2.06372
    A7        2.13350  -0.00000   0.00000  -0.00006  -0.00006   2.13343
    A8        2.11121   0.00000   0.00000   0.00001   0.00001   2.11123
    A9        2.03826   0.00000   0.00000   0.00006   0.00006   2.03832
   A10        2.17133   0.00002   0.00000   0.00006   0.00006   2.17139
   A11        2.10289  -0.00001   0.00000  -0.00001  -0.00001   2.10288
   A12        2.00896  -0.00001   0.00000  -0.00005  -0.00005   2.00891
   A13        2.11683   0.00005   0.00000   0.00022   0.00022   2.11705
   A14        2.11854  -0.00002   0.00000  -0.00015  -0.00015   2.11839
   A15        2.04775  -0.00002   0.00000  -0.00008  -0.00008   2.04767
   A16        1.24750  -0.00001   0.00000   0.00022   0.00022   1.24772
   A17        2.20171   0.00006   0.00000  -0.00133  -0.00133   2.20037
   A18        2.17074   0.00000   0.00000   0.00002   0.00002   2.17077
   A19        1.99979  -0.00000   0.00000  -0.00002  -0.00002   1.99977
   A20        2.11260  -0.00000   0.00000   0.00000   0.00000   2.11261
    D1       -0.00096   0.00000   0.00000   0.00008   0.00008  -0.00088
    D2        3.11778   0.00001   0.00000   0.00043   0.00043   3.11822
    D3       -3.13394  -0.00001   0.00000  -0.00010  -0.00010  -3.13404
    D4       -0.01520   0.00000   0.00000   0.00026   0.00026  -0.01494
    D5        0.00739  -0.00003   0.00000   0.00029   0.00029   0.00768
    D6        3.13652  -0.00001   0.00000   0.00019   0.00019   3.13671
    D7       -3.12937  -0.00004   0.00000   0.00016   0.00016  -3.12921
    D8       -0.00024  -0.00002   0.00000   0.00007   0.00007  -0.00018
    D9       -1.21883  -0.00004   0.00000  -0.00049  -0.00049  -1.21932
   D10        1.91810  -0.00003   0.00000  -0.00037  -0.00037   1.91774
   D11        1.61327   0.00004   0.00000   0.00498   0.00498   1.61825
   D12       -1.50637   0.00003   0.00000   0.00463   0.00463  -1.50173
   D13       -3.08254  -0.00000   0.00000  -0.00092  -0.00092  -3.08346
   D14        0.04912  -0.00000   0.00000  -0.00080  -0.00080   0.04832
   D15        0.03740   0.00000   0.00000  -0.00059  -0.00059   0.03681
   D16       -3.11413   0.00001   0.00000  -0.00047  -0.00047  -3.11459
   D17        0.01645  -0.00001   0.00000  -0.00228  -0.00228   0.01417
   D18       -3.11317  -0.00003   0.00000  -0.00218  -0.00218  -3.11535
   D19       -3.12816   0.00001   0.00000  -0.00237  -0.00237  -3.13053
   D20        0.02541  -0.00001   0.00000  -0.00228  -0.00228   0.02313
   D21        0.96191   0.00003   0.00000  -0.00702  -0.00702   0.95490
         Item               Value     Threshold  Converged?
 Maximum Force            0.000063     0.000450     YES
 RMS     Force            0.000020     0.000300     YES
 Maximum Displacement     0.011658     0.001800     NO 
 RMS     Displacement     0.004575     0.001200     NO 
 Predicted change in Energy=-1.331077D-07
 GradGradGradGradGradGradGradGradGradGradGradGradGradGradGradGradGradGrad

                          Input orientation:                          
 ---------------------------------------------------------------------
 Center     Atomic      Atomic             Coordinates (Angstroms)
 Number     Number       Type             X           Y           Z
 ---------------------------------------------------------------------
      1          8           0        1.924579   -0.826687    1.734027
      2          6           0       -1.022584    1.568533    1.243742
      3          6           0        1.878794   -1.399824   -1.072904
      4          6           0       -0.816800    1.191534   -0.021866
      5          6           0        0.986987   -1.388279    1.219523
      6          6           0        0.892090   -1.709485   -0.226963
      7          1           0        0.108432   -1.703135    1.833545
      8          1           0        2.782156   -0.906128   -0.702545
      9          1           0       -0.022523   -2.199020   -0.573579
     10          1           0       -0.244683    2.058485    1.833382
     11          1           0       -1.984493    1.389154    1.736248
     12          1           0        0.137346    1.354130   -0.531276
     13          6           0       -1.873019    0.504333   -0.791007
     14          8           0       -1.735287    0.086672   -1.914741
     15          1           0        1.812010   -1.622305   -2.139923
     16          1           0       -2.842904    0.381424   -0.243763
 ---------------------------------------------------------------------
                    Distance matrix (angstroms):
                    1          2          3          4          5
     1  O    0.000000
     2  C    3.829260   0.000000
     3  C    2.865212   4.753523   0.000000
     4  C    3.830344   1.336502   3.884076   0.000000
     5  C    1.207964   3.575150   2.459811   3.383804   0.000000
     6  C    2.385550   4.071161   1.336072   3.373171   1.484756
     7  H    2.019023   3.511535   3.416668   3.560578   1.117147
     8  H    2.584305   4.938423   1.094060   4.220900   2.673845
     9  H    3.316557   4.300841   2.122038   3.525779   2.211702
    10  H    3.611064   1.092180   4.991548   2.126233   3.711335
    11  H    4.493417   1.095448   5.531248   2.119793   4.100101
    12  H    3.616872   2.131219   3.303069   1.093769   3.362735
    13  C    4.750701   2.448666   4.216797   1.476287   3.975405
    14  O    5.248081   3.560881   3.997491   2.376408   4.405663
    15  H    3.956409   5.446610   1.092011   4.394827   3.467176
    16  H    5.300951   2.633527   5.114171   2.193312   4.465548
                    6          7          8          9         10
     6  C    0.000000
     7  H    2.204508   0.000000
     8  H    2.108059   3.770381   0.000000
     9  H    1.093756   2.461158   3.091024   0.000000
    10  H    4.442395   3.778157   4.937773   4.895831   0.000000
    11  H    4.661597   3.735244   5.825544   4.696766   1.866649
    12  H    3.169855   3.865240   3.483262   3.556996   2.496731
    13  C    3.586776   3.960724   4.864965   3.283249   3.457497
    14  O    3.602482   4.544487   4.781460   3.155418   4.489808
    15  H    2.124445   4.324021   1.876207   2.480231   5.793561
    16  H    4.280463   4.167851   5.788746   3.836928   3.725295
                   11         12         13         14         15
    11  H    0.000000
    12  H    3.105654   0.000000
    13  C    2.679990   2.197995   0.000000
    14  O    3.884364   2.650883   1.206727   0.000000
    15  H    6.205402   3.775104   4.463362   3.943934   0.000000
    16  H    2.381771   3.148128   1.120383   2.026293   5.410968
                   16
    16  H    0.000000
 Stoichiometry    C6H8O2
 Framework group  C1[X(C6H8O2)]
 Deg. of freedom    42
 Full point group                 C1      NOp   1
 Largest Abelian subgroup         C1      NOp   1
 Largest concise Abelian subgroup C1      NOp   1
                         Standard orientation:                         
 ---------------------------------------------------------------------
 Center     Atomic      Atomic             Coordinates (Angstroms)
 Number     Number       Type             X           Y           Z
 ---------------------------------------------------------------------
      1          8           0       -2.305126    1.234900    0.092028
      2          6           0        1.460335    1.910363    0.260206
      3          6           0       -1.797494   -1.529163    0.650331
      4          6           0        1.444496    0.607973    0.559821
      5          6           0       -1.701168    0.534414   -0.684974
      6          6           0       -1.395564   -0.900728   -0.458097
      7          1           0       -1.325555    0.952052   -1.650640
      8          1           0       -2.369782   -0.987523    1.409329
      9          1           0       -0.818539   -1.419153   -1.229187
     10          1           0        0.927123    2.647707    0.864248
     11          1           0        2.007427    2.281417   -0.613302
     12          1           0        0.899528    0.214370    1.422617
     13          6           0        2.148360   -0.374953   -0.287442
     14          8           0        2.127214   -1.568079   -0.108017
     15          1           0       -1.567094   -2.581352    0.830061
     16          1           0        2.716402    0.070479   -1.144284
 ---------------------------------------------------------------------
 Rotational constants (GHZ):           2.4356277           1.2165291           0.8993441
 Basis read from rwf:  (5D, 7F)
 Pseudo-potential data read from rwf file.
 There are   160 symmetry adapted cartesian basis functions of A   symmetry.
 There are   152 symmetry adapted basis functions of A   symmetry.
   152 basis functions,   256 primitive gaussians,   160 cartesian basis functions
    30 alpha electrons       30 beta electrons
       nuclear repulsion energy       325.2725570599 Hartrees.
 NAtoms=   16 NActive=   16 NUniq=   16 SFac= 1.00D+00 NAtFMM=   60 NAOKFM=F Big=F
 Integral buffers will be    131072 words long.
 Raffenetti 2 integral format.
 Two-electron integral symmetry is turned on.
 Nuclear repulsion after empirical dispersion term =      325.2652442665 Hartrees.
 ------------------------------------------------------------------------------
 Polarizable Continuum Model (PCM)
 =================================
 Model                : PCM.
 Atomic radii         : UFF (Universal Force Field).
 Polarization charges : Total charges.
 Charge compensation  : None.
 Solution method      : On-the-fly selection.
 Cavity type          : Scaled VdW (van der Waals Surface) (Alpha=1.100).
 Cavity algorithm     : GePol (No added spheres)
                        Default sphere list used, NSphG=   16.
                        Lebedev-Laikov grids with approx.  5.0 points / Ang**2.
                        Smoothing algorithm: York/Karplus (Gamma=1.0000).
                        Polarization charges: spherical gaussians, with
                                              point-specific exponents (IZeta= 3).
                        Self-potential: point-specific (ISelfS= 7).
                        Self-field    : sphere-specific E.n sum rule (ISelfD= 2).
 1st derivatives      : Analytical E(r).r(x)/FMM algorithm (CHGder, D1EAlg=3).
                        Cavity 1st derivative terms included.
 Solvent              : Toluene, Eps=   2.374100 Eps(inf)=   2.238315
 ------------------------------------------------------------------------------
 Spheres list:
 ISph  on   Nord     Re0    Alpha      Xe            Ye            Ze
    1   O      1    1.7500  1.100     -2.305126      1.234900      0.092028
    2   C      2    1.9255  1.100      1.460335      1.910363      0.260206
    3   C      3    1.9255  1.100     -1.797494     -1.529163      0.650331
    4   C      4    1.9255  1.100      1.444496      0.607973      0.559821
    5   C      5    1.9255  1.100     -1.701168      0.534414     -0.684974
    6   C      6    1.9255  1.100     -1.395564     -0.900728     -0.458097
    7   H      7    1.4430  1.100     -1.325555      0.952052     -1.650640
    8   H      8    1.4430  1.100     -2.369782     -0.987523      1.409329
    9   H      9    1.4430  1.100     -0.818539     -1.419153     -1.229187
   10   H     10    1.4430  1.100      0.927123      2.647707      0.864248
   11   H     11    1.4430  1.100      2.007427      2.281417     -0.613302
   12   H     12    1.4430  1.100      0.899528      0.214370      1.422617
   13   C     13    1.9255  1.100      2.148360     -0.374953     -0.287442
   14   O     14    1.7500  1.100      2.127214     -1.568079     -0.108017
   15   H     15    1.4430  1.100     -1.567094     -2.581352      0.830061
   16   H     16    1.4430  1.100      2.716402      0.070479     -1.144284
 ------------------------------------------------------------------------------
 One-electron integrals computed using PRISM.
   1 Symmetry operations used in ECPInt.
 ECPInt:  NShTT=    2628 NPrTT=    9444 LenC2=    2594 LenP2D=    7347.
 LDataN:  DoStor=T MaxTD1= 4 Len=   56
 NBasis=   152 RedAO= T EigKep=  2.18D-03  NBF=   152
 NBsUse=   152 1.00D-06 EigRej= -1.00D+00 NBFU=   152
 Initial guess from the checkpoint file:  "da-1_1_opt_dft.chk"
 B after Tr=     0.000000    0.000000   -0.000000
         Rot=    1.000000   -0.000253   -0.000217   -0.000333 Ang=  -0.05 deg.
 Requested convergence on RMS density matrix=1.00D-08 within 128 cycles.
 Requested convergence on MAX density matrix=1.00D-06.
 Requested convergence on             energy=1.00D-06.
 No special actions if energy rises.
 Inv3:  Mode=1 IEnd=     7013523.
 Iteration    1 A*A^-1 deviation from unit magnitude is 3.00D-15 for   1377.
 Iteration    1 A*A^-1 deviation from orthogonality  is 1.82D-15 for    990    281.
 Iteration    1 A^-1*A deviation from unit magnitude is 3.00D-15 for   1377.
 Iteration    1 A^-1*A deviation from orthogonality  is 1.89D-15 for   1289    322.
 Error on total polarization charges =  0.00497
 SCF Done:  E(RwB97XD) =  -383.414115486     A.U. after   11 cycles
            NFock= 11  Conv=0.37D-08     -V/T= 2.0097
   1 Symmetry operations used in ECPInt.
 ECPInt:  NShTT=    2628 NPrTT=    9444 LenC2=    2594 LenP2D=    7347.
 LDataN:  DoStor=T MaxTD1= 5 Len=  102
 D1PCM: PCM CHGder 1st derivatives, ID1Alg=3 FixD1E=F DoIter=F DoCFld=F I1PDM=0.
 Calling FoFJK, ICntrl=      2127 FMM=F ISym2X=0 I1Cent= 0 IOpClX= 0 NMat=1 NMatS=1 NMatT=0.
 ***** Axes restored to original set *****
 -------------------------------------------------------------------
 Center     Atomic                   Forces (Hartrees/Bohr)
 Number     Number              X              Y              Z
 -------------------------------------------------------------------
      1        8          -0.000008613   -0.000005163    0.000007171
      2        6           0.000000086    0.000004089   -0.000002667
      3        6          -0.000004588    0.000002031    0.000012976
      4        6          -0.000004326    0.000002191   -0.000006964
      5        6           0.000006484   -0.000008410   -0.000001368
      6        6          -0.000006489    0.000008375    0.000001450
      7        1           0.000004470   -0.000005922    0.000002018
      8        1           0.000018488    0.000004855   -0.000022682
      9        1          -0.000001169    0.000005601    0.000000678
     10        1          -0.000003600    0.000001786   -0.000002406
     11        1           0.000000776    0.000004152   -0.000002021
     12        1          -0.000009139   -0.000001838    0.000009667
     13        6           0.000006696    0.000000237    0.000006387
     14        8          -0.000001364   -0.000006025   -0.000002639
     15        1           0.000004197   -0.000008874    0.000001767
     16        1          -0.000001910    0.000002914   -0.000001369
 -------------------------------------------------------------------
 Cartesian Forces:  Max     0.000022682 RMS     0.000006632

 GradGradGradGradGradGradGradGradGradGradGradGradGradGradGradGradGradGrad
 Berny optimization.
 FormGI is forming the generalized inverse of G from B-inverse, IUseBI=4.
 Internal  Forces:  Max     0.000054533 RMS     0.000014502
 Search for a saddle point.
 Step number   2 out of a maximum of   50
 All quantities printed in internal units (Hartrees-Bohrs-Radians)
 Swapping is turned off.
 Update second derivatives using D2CorX and points    1    2
 ITU=  0  0
     Eigenvalues ---   -0.00048   0.00097   0.00358   0.00512   0.00805
     Eigenvalues ---    0.01688   0.02037   0.02376   0.02899   0.03212
     Eigenvalues ---    0.03497   0.04484   0.06216   0.08153   0.08236
     Eigenvalues ---    0.10253   0.10677   0.10836   0.11104   0.11364
     Eigenvalues ---    0.13138   0.14199   0.14370   0.16338   0.17052
     Eigenvalues ---    0.23151   0.23873   0.31279   0.36097   0.36256
     Eigenvalues ---    0.36993   0.37554   0.38960   0.39171   0.39255
     Eigenvalues ---    0.39308   0.39583   0.39984   0.60908   0.61691
     Eigenvalues ---    0.78670   0.81558
 Eigenvectors required to have negative eigenvalues:
                          D21       R13       D11       D12       A16
   1                   -0.62316  -0.59821   0.32697   0.32241   0.13246
                          D10       D9        D17       D18       D19
   1                   -0.09797  -0.09751   0.03503   0.03474   0.03409
 RFO step:  Lambda0=4.183422804D-09 Lambda=-4.68388135D-08.
 Linear search not attempted -- option 19 set.
 Iteration  1 RMS(Cart)=  0.00198408 RMS(Int)=  0.00000095
 Iteration  2 RMS(Cart)=  0.00000237 RMS(Int)=  0.00000000
 Iteration  3 RMS(Cart)=  0.00000000 RMS(Int)=  0.00000000
 Variable       Old X    -DE/DX   Delta X   Delta X   Delta X     New X
                                 (Linear)    (Quad)   (Total)
    R1        2.28272  -0.00001   0.00000  -0.00001  -0.00001   2.28271
    R2        2.52562  -0.00000   0.00000  -0.00000  -0.00000   2.52562
    R3        2.06392  -0.00000   0.00000   0.00000   0.00000   2.06392
    R4        2.07010  -0.00000   0.00000  -0.00000  -0.00000   2.07010
    R5        2.52481   0.00001   0.00000  -0.00000  -0.00000   2.52481
    R6        2.06747   0.00001   0.00000   0.00000   0.00000   2.06748
    R7        2.06360   0.00000   0.00000   0.00000   0.00000   2.06360
    R8        2.06692  -0.00000   0.00000  -0.00001  -0.00001   2.06691
    R9        2.78978  -0.00000   0.00000   0.00000   0.00000   2.78978
   R10        2.80578   0.00000   0.00000  -0.00000  -0.00000   2.80578
   R11        2.11110  -0.00000   0.00000   0.00000   0.00000   2.11110
   R12        2.06690  -0.00000   0.00000   0.00000   0.00000   2.06690
   R13        6.58241   0.00001   0.00000   0.00021   0.00021   6.58262
   R14        2.28038   0.00000   0.00000  -0.00000  -0.00000   2.28038
   R15        2.11722   0.00000   0.00000   0.00000   0.00000   2.11722
    A1        2.12717   0.00000   0.00000  -0.00001  -0.00001   2.12717
    A2        2.11152   0.00000   0.00000   0.00000   0.00000   2.11152
    A3        2.04447  -0.00000   0.00000   0.00000   0.00000   2.04447
    A4        2.09444   0.00003   0.00000   0.00012   0.00012   2.09456
    A5        2.12502  -0.00002   0.00000  -0.00006  -0.00006   2.12496
    A6        2.06372  -0.00002   0.00000  -0.00006  -0.00006   2.06366
    A7        2.13343  -0.00000   0.00000  -0.00004  -0.00004   2.13340
    A8        2.11123  -0.00000   0.00000   0.00001   0.00001   2.11124
    A9        2.03832   0.00000   0.00000   0.00002   0.00002   2.03834
   A10        2.17139   0.00002   0.00000   0.00004   0.00004   2.17143
   A11        2.10288  -0.00001   0.00000  -0.00001  -0.00001   2.10287
   A12        2.00891  -0.00001   0.00000  -0.00003  -0.00003   2.00888
   A13        2.11705   0.00003   0.00000   0.00010   0.00010   2.11716
   A14        2.11839  -0.00002   0.00000  -0.00005  -0.00005   2.11834
   A15        2.04767  -0.00002   0.00000  -0.00005  -0.00005   2.04763
   A16        1.24772   0.00001   0.00000   0.00017   0.00017   1.24789
   A17        2.20037   0.00005   0.00000   0.00038   0.00038   2.20075
   A18        2.17077   0.00000   0.00000   0.00001   0.00001   2.17077
   A19        1.99977  -0.00000   0.00000  -0.00001  -0.00001   1.99977
   A20        2.11261  -0.00000   0.00000  -0.00000  -0.00000   2.11260
    D1       -0.00088  -0.00000   0.00000   0.00007   0.00007  -0.00081
    D2        3.11822   0.00001   0.00000   0.00008   0.00008   3.11830
    D3       -3.13404  -0.00001   0.00000   0.00001   0.00001  -3.13403
    D4       -0.01494  -0.00000   0.00000   0.00002   0.00002  -0.01493
    D5        0.00768  -0.00002   0.00000  -0.00007  -0.00007   0.00761
    D6        3.13671  -0.00000   0.00000   0.00012   0.00012   3.13683
    D7       -3.12921  -0.00003   0.00000  -0.00019  -0.00019  -3.12940
    D8       -0.00018  -0.00001   0.00000  -0.00001  -0.00001  -0.00018
    D9       -1.21932  -0.00003   0.00000   0.00004   0.00004  -1.21927
   D10        1.91774  -0.00003   0.00000   0.00016   0.00016   1.91790
   D11        1.61825   0.00002   0.00000   0.00172   0.00172   1.61997
   D12       -1.50173   0.00002   0.00000   0.00171   0.00171  -1.50002
   D13       -3.08346   0.00000   0.00000  -0.00010  -0.00010  -3.08356
   D14        0.04832   0.00000   0.00000  -0.00006  -0.00006   0.04825
   D15        0.03681   0.00001   0.00000  -0.00009  -0.00009   0.03672
   D16       -3.11459   0.00001   0.00000  -0.00005  -0.00005  -3.11465
   D17        0.01417   0.00000   0.00000   0.00013   0.00013   0.01430
   D18       -3.11535  -0.00001   0.00000  -0.00005  -0.00005  -3.11541
   D19       -3.13053   0.00001   0.00000   0.00016   0.00016  -3.13037
   D20        0.02313   0.00000   0.00000  -0.00002  -0.00002   0.02311
   D21        0.95490   0.00002   0.00000  -0.00314  -0.00314   0.95176
         Item               Value     Threshold  Converged?
 Maximum Force            0.000055     0.000450     YES
 RMS     Force            0.000015     0.000300     YES
 Maximum Displacement     0.004600     0.001800     NO 
 RMS     Displacement     0.001984     0.001200     NO 
 Predicted change in Energy=-2.132768D-08
 GradGradGradGradGradGradGradGradGradGradGradGradGradGradGradGradGradGrad

                          Input orientation:                          
 ---------------------------------------------------------------------
 Center     Atomic      Atomic             Coordinates (Angstroms)
 Number     Number       Type             X           Y           Z
 ---------------------------------------------------------------------
      1          8           0        1.926845   -0.826651    1.733513
      2          6           0       -1.023836    1.568157    1.244057
      3          6           0        1.877717   -1.400314   -1.073405
      4          6           0       -0.816800    1.191807   -0.021538
      5          6           0        0.988613   -1.388196    1.220142
      6          6           0        0.891982   -1.709575   -0.226191
      7          1           0        0.110741   -1.702918    1.835213
      8          1           0        2.781684   -0.906721   -0.704380
      9          1           0       -0.023089   -2.199097   -0.571616
     10          1           0       -0.246521    2.057820    1.834709
     11          1           0       -1.986247    1.388572    1.735507
     12          1           0        0.137878    1.354630   -0.529868
     13          6           0       -1.872277    0.505074   -0.792116
     14          8           0       -1.733462    0.088079   -1.915964
     15          1           0        1.809575   -1.623153   -2.140264
     16          1           0       -2.842705    0.381885   -0.245899
 ---------------------------------------------------------------------
                    Distance matrix (angstroms):
                    1          2          3          4          5
     1  O    0.000000
     2  C    3.831605   0.000000
     3  C    2.865360   4.754100   0.000000
     4  C    3.831705   1.336501   3.884062   0.000000
     5  C    1.207958   3.576388   2.459880   3.384922   0.000000
     6  C    2.385568   4.071305   1.336071   3.373402   1.484756
     7  H    2.019014   3.512359   3.416699   3.561922   1.117149
     8  H    2.584663   4.939982   1.094061   4.221277   2.674081
     9  H    3.316545   4.300043   2.122006   3.525733   2.211672
    10  H    3.613022   1.092181   4.992815   2.126229   3.711909
    11  H    4.496610   1.095448   5.531554   2.119794   4.101930
    12  H    3.616806   2.131193   3.303361   1.093764   3.362942
    13  C    4.752433   2.448673   4.215695   1.476288   3.977228
    14  O    5.249120   3.560889   3.995727   2.376412   4.407294
    15  H    3.956554   5.446680   1.092012   4.394411   3.467205
    16  H    5.303512   2.633533   5.113060   2.193309   4.467825
                    6          7          8          9         10
     6  C    0.000000
     7  H    2.204488   0.000000
     8  H    2.108130   3.770596   0.000000
     9  H    1.093757   2.461083   3.091054   0.000000
    10  H    4.442607   3.777669   4.940192   4.895065   0.000000
    11  H    4.661650   3.736926   5.827056   4.695548   1.866649
    12  H    3.170213   3.865611   3.483371   3.557616   2.496690
    13  C    3.586931   3.963641   4.864177   3.283391   3.457501
    14  O    3.602756   4.547536   4.779551   3.156552   4.489813
    15  H    2.124411   4.323982   1.876176   2.480127   5.794610
    16  H    4.280477   4.171364   5.788304   3.836377   3.725300
                   11         12         13         14         15
    11  H    0.000000
    12  H    3.105636   0.000000
    13  C    2.680007   2.198009   0.000000
    14  O    3.884382   2.650911   1.206726   0.000000
    15  H    6.204865   3.775599   4.461265   3.941033   0.000000
    16  H    2.381787   3.148134   1.120384   2.026292   5.408558
                   16
    16  H    0.000000
 Stoichiometry    C6H8O2
 Framework group  C1[X(C6H8O2)]
 Deg. of freedom    42
 Full point group                 C1      NOp   1
 Largest Abelian subgroup         C1      NOp   1
 Largest concise Abelian subgroup C1      NOp   1
                         Standard orientation:                         
 ---------------------------------------------------------------------
 Center     Atomic      Atomic             Coordinates (Angstroms)
 Number     Number       Type             X           Y           Z
 ---------------------------------------------------------------------
      1          8           0       -2.306833    1.233911    0.094065
      2          6           0        1.460898    1.910833    0.258919
      3          6           0       -1.795979   -1.530401    0.648953
      4          6           0        1.444772    0.608626    0.559301
      5          6           0       -1.702656    0.534876   -0.684063
      6          6           0       -1.395385   -0.900188   -0.458947
      7          1           0       -1.328141    0.953920   -1.649548
      8          1           0       -2.368397   -0.990404    1.409025
      9          1           0       -0.818364   -1.417135   -1.231034
     10          1           0        0.927691    2.648624    0.862419
     11          1           0        2.008282    2.281287   -0.614661
     12          1           0        0.899495    0.215658    1.422186
     13          6           0        2.148718   -0.374925   -0.287170
     14          8           0        2.127411   -1.567932   -0.106983
     15          1           0       -1.564416   -2.582596    0.827153
     16          1           0        2.717024    0.069900   -1.144152
 ---------------------------------------------------------------------
 Rotational constants (GHZ):           2.4357372           1.2161614           0.8990007
 Basis read from rwf:  (5D, 7F)
 Pseudo-potential data read from rwf file.
 There are   160 symmetry adapted cartesian basis functions of A   symmetry.
 There are   152 symmetry adapted basis functions of A   symmetry.
   152 basis functions,   256 primitive gaussians,   160 cartesian basis functions
    30 alpha electrons       30 beta electrons
       nuclear repulsion energy       325.2522625477 Hartrees.
 NAtoms=   16 NActive=   16 NUniq=   16 SFac= 1.00D+00 NAtFMM=   60 NAOKFM=F Big=F
 Integral buffers will be    131072 words long.
 Raffenetti 2 integral format.
 Two-electron integral symmetry is turned on.
 Nuclear repulsion after empirical dispersion term =      325.2449518177 Hartrees.
 ------------------------------------------------------------------------------
 Polarizable Continuum Model (PCM)
 =================================
 Model                : PCM.
 Atomic radii         : UFF (Universal Force Field).
 Polarization charges : Total charges.
 Charge compensation  : None.
 Solution method      : On-the-fly selection.
 Cavity type          : Scaled VdW (van der Waals Surface) (Alpha=1.100).
 Cavity algorithm     : GePol (No added spheres)
                        Default sphere list used, NSphG=   16.
                        Lebedev-Laikov grids with approx.  5.0 points / Ang**2.
                        Smoothing algorithm: York/Karplus (Gamma=1.0000).
                        Polarization charges: spherical gaussians, with
                                              point-specific exponents (IZeta= 3).
                        Self-potential: point-specific (ISelfS= 7).
                        Self-field    : sphere-specific E.n sum rule (ISelfD= 2).
 1st derivatives      : Analytical E(r).r(x)/FMM algorithm (CHGder, D1EAlg=3).
                        Cavity 1st derivative terms included.
 Solvent              : Toluene, Eps=   2.374100 Eps(inf)=   2.238315
 ------------------------------------------------------------------------------
 Spheres list:
 ISph  on   Nord     Re0    Alpha      Xe            Ye            Ze
    1   O      1    1.7500  1.100     -2.306833      1.233911      0.094065
    2   C      2    1.9255  1.100      1.460898      1.910833      0.258919
    3   C      3    1.9255  1.100     -1.795979     -1.530401      0.648953
    4   C      4    1.9255  1.100      1.444772      0.608626      0.559301
    5   C      5    1.9255  1.100     -1.702656      0.534876     -0.684063
    6   C      6    1.9255  1.100     -1.395385     -0.900188     -0.458947
    7   H      7    1.4430  1.100     -1.328141      0.953920     -1.649548
    8   H      8    1.4430  1.100     -2.368397     -0.990404      1.409025
    9   H      9    1.4430  1.100     -0.818364     -1.417135     -1.231034
   10   H     10    1.4430  1.100      0.927691      2.648624      0.862419
   11   H     11    1.4430  1.100      2.008282      2.281287     -0.614661
   12   H     12    1.4430  1.100      0.899495      0.215658      1.422186
   13   C     13    1.9255  1.100      2.148718     -0.374925     -0.287170
   14   O     14    1.7500  1.100      2.127411     -1.567932     -0.106983
   15   H     15    1.4430  1.100     -1.564416     -2.582596      0.827153
   16   H     16    1.4430  1.100      2.717024      0.069900     -1.144152
 ------------------------------------------------------------------------------
 One-electron integrals computed using PRISM.
   1 Symmetry operations used in ECPInt.
 ECPInt:  NShTT=    2628 NPrTT=    9444 LenC2=    2594 LenP2D=    7347.
 LDataN:  DoStor=T MaxTD1= 4 Len=   56
 NBasis=   152 RedAO= T EigKep=  2.18D-03  NBF=   152
 NBsUse=   152 1.00D-06 EigRej= -1.00D+00 NBFU=   152
 Initial guess from the checkpoint file:  "da-1_1_opt_dft.chk"
 B after Tr=     0.000000   -0.000000   -0.000000
         Rot=    1.000000   -0.000111   -0.000083   -0.000131 Ang=  -0.02 deg.
 Requested convergence on RMS density matrix=1.00D-08 within 128 cycles.
 Requested convergence on MAX density matrix=1.00D-06.
 Requested convergence on             energy=1.00D-06.
 No special actions if energy rises.
 Inv3:  Mode=1 IEnd=     7022700.
 Iteration    1 A*A^-1 deviation from unit magnitude is 3.33D-15 for   1104.
 Iteration    1 A*A^-1 deviation from orthogonality  is 2.89D-15 for   1274    921.
 Iteration    1 A^-1*A deviation from unit magnitude is 3.33D-15 for   1104.
 Iteration    1 A^-1*A deviation from orthogonality  is 1.44D-15 for   1369    415.
 Error on total polarization charges =  0.00497
 SCF Done:  E(RwB97XD) =  -383.414115523     A.U. after    9 cycles
            NFock=  9  Conv=0.99D-08     -V/T= 2.0097
   1 Symmetry operations used in ECPInt.
 ECPInt:  NShTT=    2628 NPrTT=    9444 LenC2=    2594 LenP2D=    7347.
 LDataN:  DoStor=T MaxTD1= 5 Len=  102
 D1PCM: PCM CHGder 1st derivatives, ID1Alg=3 FixD1E=F DoIter=F DoCFld=F I1PDM=0.
 Calling FoFJK, ICntrl=      2127 FMM=F ISym2X=0 I1Cent= 0 IOpClX= 0 NMat=1 NMatS=1 NMatT=0.
 ***** Axes restored to original set *****
 -------------------------------------------------------------------
 Center     Atomic                   Forces (Hartrees/Bohr)
 Number     Number              X              Y              Z
 -------------------------------------------------------------------
      1        8          -0.000000399    0.000002015    0.000005868
      2        6          -0.000002480    0.000004940   -0.000000535
      3        6           0.000001022   -0.000002868    0.000006995
      4        6           0.000000302   -0.000002156   -0.000003441
      5        6          -0.000003918   -0.000009688   -0.000007189
      6        6          -0.000004827    0.000002994    0.000007951
      7        1           0.000004524   -0.000005472    0.000002250
      8        1           0.000013255    0.000006223   -0.000015801
      9        1          -0.000003256    0.000007857   -0.000000593
     10        1          -0.000002412    0.000000902   -0.000001582
     11        1           0.000000578    0.000004062   -0.000001897
     12        1          -0.000007142   -0.000001385    0.000005220
     13        6           0.000004761   -0.000000473    0.000004364
     14        8          -0.000000093   -0.000006342   -0.000001295
     15        1           0.000001695   -0.000002922    0.000000886
     16        1          -0.000001613    0.000002315   -0.000001203
 -------------------------------------------------------------------
 Cartesian Forces:  Max     0.000015801 RMS     0.000005017

 GradGradGradGradGradGradGradGradGradGradGradGradGradGradGradGradGradGrad
 Berny optimization.
 FormGI is forming the generalized inverse of G from B-inverse, IUseBI=4.
 Internal  Forces:  Max     0.000039072 RMS     0.000010763
 Search for a saddle point.
 Step number   3 out of a maximum of   50
 All quantities printed in internal units (Hartrees-Bohrs-Radians)
 Swapping is turned off.
 Update second derivatives using D2CorX and points    1    2    3
 ITU=  0  0  0
     Eigenvalues ---   -0.00037   0.00103   0.00362   0.00516   0.00808
     Eigenvalues ---    0.01686   0.02037   0.02379   0.02902   0.03212
     Eigenvalues ---    0.03515   0.04484   0.06212   0.08153   0.08235
     Eigenvalues ---    0.10254   0.10677   0.10837   0.11104   0.11364
     Eigenvalues ---    0.13137   0.14199   0.14370   0.16337   0.17046
     Eigenvalues ---    0.23142   0.23872   0.31153   0.36097   0.36256
     Eigenvalues ---    0.36992   0.37547   0.38959   0.39171   0.39255
     Eigenvalues ---    0.39308   0.39583   0.39975   0.60908   0.61685
     Eigenvalues ---    0.78671   0.81558
 Eigenvectors required to have negative eigenvalues:
                          R13       D21       D11       D12       D10
   1                    0.64389   0.56402  -0.33435  -0.32986   0.10932
                          D9        A16       A17       D18       D20
   1                    0.10463  -0.09960  -0.05751  -0.05290  -0.05269
 RFO step:  Lambda0=4.355149938D-08 Lambda=-4.62256110D-08.
 Linear search not attempted -- option 19 set.
 Iteration  1 RMS(Cart)=  0.00353620 RMS(Int)=  0.00000261
 Iteration  2 RMS(Cart)=  0.00000580 RMS(Int)=  0.00000000
 Iteration  3 RMS(Cart)=  0.00000000 RMS(Int)=  0.00000000
 Variable       Old X    -DE/DX   Delta X   Delta X   Delta X     New X
                                 (Linear)    (Quad)   (Total)
    R1        2.28271   0.00000   0.00000  -0.00001  -0.00001   2.28270
    R2        2.52562   0.00000   0.00000   0.00001   0.00001   2.52563
    R3        2.06392  -0.00000   0.00000  -0.00000  -0.00000   2.06392
    R4        2.07010  -0.00000   0.00000   0.00000   0.00000   2.07010
    R5        2.52481   0.00001   0.00000  -0.00000  -0.00000   2.52481
    R6        2.06748   0.00001   0.00000  -0.00001  -0.00001   2.06747
    R7        2.06360  -0.00000   0.00000   0.00001   0.00001   2.06361
    R8        2.06691  -0.00000   0.00000   0.00000   0.00000   2.06692
    R9        2.78978  -0.00000   0.00000  -0.00001  -0.00001   2.78977
   R10        2.80578  -0.00000   0.00000   0.00003   0.00003   2.80581
   R11        2.11110  -0.00000   0.00000  -0.00000  -0.00000   2.11110
   R12        2.06690  -0.00000   0.00000  -0.00001  -0.00001   2.06690
   R13        6.58262   0.00001   0.00000   0.01006   0.01006   6.59268
   R14        2.28038   0.00000   0.00000  -0.00000  -0.00000   2.28038
   R15        2.11722   0.00000   0.00000  -0.00000  -0.00000   2.11722
    A1        2.12717   0.00000   0.00000   0.00001   0.00001   2.12717
    A2        2.11152   0.00000   0.00000   0.00000   0.00000   2.11152
    A3        2.04447  -0.00000   0.00000  -0.00001  -0.00001   2.04446
    A4        2.09456   0.00002   0.00000   0.00007   0.00007   2.09463
    A5        2.12496  -0.00001   0.00000  -0.00002  -0.00002   2.12494
    A6        2.06366  -0.00001   0.00000  -0.00005  -0.00005   2.06361
    A7        2.13340   0.00000   0.00000  -0.00005  -0.00005   2.13335
    A8        2.11124  -0.00000   0.00000  -0.00003  -0.00003   2.11121
    A9        2.03834  -0.00000   0.00000   0.00008   0.00008   2.03842
   A10        2.17143   0.00001   0.00000   0.00001   0.00001   2.17144
   A11        2.10287  -0.00000   0.00000   0.00002   0.00002   2.10289
   A12        2.00888  -0.00000   0.00000  -0.00003  -0.00003   2.00885
   A13        2.11716   0.00002   0.00000   0.00002   0.00002   2.11718
   A14        2.11834  -0.00001   0.00000  -0.00001  -0.00001   2.11833
   A15        2.04763  -0.00001   0.00000  -0.00002  -0.00002   2.04761
   A16        1.24789  -0.00000   0.00000  -0.00158  -0.00158   1.24631
   A17        2.20075   0.00004   0.00000  -0.00013  -0.00013   2.20062
   A18        2.17077   0.00000   0.00000   0.00000   0.00000   2.17077
   A19        1.99977  -0.00000   0.00000  -0.00001  -0.00001   1.99976
   A20        2.11260  -0.00000   0.00000   0.00000   0.00000   2.11261
    D1       -0.00081  -0.00000   0.00000  -0.00003  -0.00003  -0.00084
    D2        3.11830   0.00000   0.00000  -0.00006  -0.00006   3.11824
    D3       -3.13403  -0.00001   0.00000   0.00001   0.00001  -3.13402
    D4       -0.01493  -0.00000   0.00000  -0.00002  -0.00002  -0.01494
    D5        0.00761  -0.00001   0.00000  -0.00008  -0.00008   0.00753
    D6        3.13683  -0.00001   0.00000   0.00008   0.00008   3.13691
    D7       -3.12940  -0.00002   0.00000  -0.00019  -0.00019  -3.12960
    D8       -0.00018  -0.00001   0.00000  -0.00004  -0.00004  -0.00022
    D9       -1.21927  -0.00002   0.00000   0.00183   0.00183  -1.21744
   D10        1.91790  -0.00002   0.00000   0.00194   0.00194   1.91984
   D11        1.61997   0.00002   0.00000  -0.00207  -0.00207   1.61790
   D12       -1.50002   0.00002   0.00000  -0.00204  -0.00204  -1.50206
   D13       -3.08356   0.00000   0.00000   0.00019   0.00019  -3.08337
   D14        0.04825   0.00000   0.00000   0.00016   0.00016   0.04841
   D15        0.03672   0.00001   0.00000   0.00016   0.00016   0.03688
   D16       -3.11465   0.00001   0.00000   0.00013   0.00013  -3.11452
   D17        0.01430   0.00000   0.00000  -0.00027  -0.00027   0.01403
   D18       -3.11541  -0.00000   0.00000  -0.00041  -0.00041  -3.11582
   D19       -3.13037   0.00001   0.00000  -0.00023  -0.00023  -3.13060
   D20        0.02311   0.00000   0.00000  -0.00038  -0.00038   0.02273
   D21        0.95176   0.00002   0.00000   0.00409   0.00409   0.95585
         Item               Value     Threshold  Converged?
 Maximum Force            0.000039     0.000450     YES
 RMS     Force            0.000011     0.000300     YES
 Maximum Displacement     0.010640     0.001800     NO 
 RMS     Displacement     0.003536     0.001200     NO 
 Predicted change in Energy=-1.334519D-09
 GradGradGradGradGradGradGradGradGradGradGradGradGradGradGradGradGradGrad

                          Input orientation:                          
 ---------------------------------------------------------------------
 Center     Atomic      Atomic             Coordinates (Angstroms)
 Number     Number       Type             X           Y           Z
 ---------------------------------------------------------------------
      1          8           0        1.925197   -0.827313    1.733825
      2          6           0       -1.023476    1.568783    1.244357
      3          6           0        1.881293   -1.401733   -1.073074
      4          6           0       -0.818051    1.191689   -0.021283
      5          6           0        0.987082   -1.387255    1.218502
      6          6           0        0.893164   -1.709022   -0.227937
      7          1           0        0.107195   -1.700092    1.831650
      8          1           0        2.785255   -0.909440   -0.702315
      9          1           0       -0.021888   -2.197279   -0.575191
     10          1           0       -0.245338    2.058579    1.833813
     11          1           0       -1.985325    1.389663    1.737074
     12          1           0        0.136067    1.354050   -0.530815
     13          6           0       -1.874617    0.504727   -0.790155
     14          8           0       -1.737227    0.086903   -1.913870
     15          1           0        1.815205   -1.625042   -2.139969
     16          1           0       -2.844435    0.382181   -0.242712
 ---------------------------------------------------------------------
                    Distance matrix (angstroms):
                    1          2          3          4          5
     1  O    0.000000
     2  C    3.830866   0.000000
     3  C    2.865410   4.757325   0.000000
     4  C    3.831734   1.336504   3.888260   0.000000
     5  C    1.207954   3.575077   2.459907   3.383271   0.000000
     6  C    2.385585   4.072489   1.336070   3.374180   1.484770
     7  H    2.019021   3.508400   3.416704   3.556942   1.117148
     8  H    2.584806   4.943436   1.094058   4.226389   2.674186
     9  H    3.316550   4.300833   2.121999   3.525025   2.211672
    10  H    3.612422   1.092181   4.994629   2.126235   3.710962
    11  H    4.495239   1.095448   5.535302   2.119797   4.100658
    12  H    3.617724   2.131171   3.306691   1.093767   3.361412
    13  C    4.752199   2.448651   4.221551   1.476284   3.975376
    14  O    5.249269   3.560871   4.002083   2.376410   4.405310
    15  H    3.956609   5.450899   1.092016   4.399642   3.467226
    16  H    5.302733   2.633494   5.119020   2.193301   4.466159
                    6          7          8          9         10
     6  C    0.000000
     7  H    2.204479   0.000000
     8  H    2.108169   3.770692   0.000000
     9  H    1.093755   2.461045   3.091075   0.000000
    10  H    4.443177   3.775168   4.942224   4.895463   0.000000
    11  H    4.663563   3.732850   5.830517   4.697639   1.866645
    12  H    3.169755   3.861329   3.488696   3.555118   2.496657
    13  C    3.588507   3.957608   4.870523   3.283238   3.457487
    14  O    3.603703   4.541383   4.786796   3.154670   4.489807
    15  H    2.124401   4.323967   1.876148   2.480101   5.797055
    16  H    4.282873   4.165448   5.794216   3.838090   3.725262
                   11         12         13         14         15
    11  H    0.000000
    12  H    3.105623   0.000000
    13  C    2.679973   2.198058   0.000000
    14  O    3.884344   2.650987   1.206726   0.000000
    15  H    6.209987   3.779401   4.469083   3.949893   0.000000
    16  H    2.381732   3.148163   1.120383   2.026293   5.416713
                   16
    16  H    0.000000
 Stoichiometry    C6H8O2
 Framework group  C1[X(C6H8O2)]
 Deg. of freedom    42
 Full point group                 C1      NOp   1
 Largest Abelian subgroup         C1      NOp   1
 Largest concise Abelian subgroup C1      NOp   1
                         Standard orientation:                         
 ---------------------------------------------------------------------
 Center     Atomic      Atomic             Coordinates (Angstroms)
 Number     Number       Type             X           Y           Z
 ---------------------------------------------------------------------
      1          8           0       -2.304681    1.236933    0.090816
[...]
 ! A4    A(6,3,8)              120.025          -DE/DX =    0.0                 !
 ! A5    A(6,3,15)             121.7435         -DE/DX =    0.0                 !
 ! A6    A(8,3,15)             118.231          -DE/DX =    0.0                 !
 ! A7    A(2,4,12)             122.2272         -DE/DX =    0.0                 !
 ! A8    A(2,4,13)             120.9659         -DE/DX =    0.0                 !
 ! A9    A(12,4,13)            116.7952         -DE/DX =    0.0                 !
 ! A10   A(1,5,6)              124.4151         -DE/DX =    0.0                 !
 ! A11   A(1,5,7)              120.4848         -DE/DX =    0.0                 !
 ! A12   A(6,5,7)              115.0998         -DE/DX =    0.0                 !
 ! A13   A(3,6,5)              121.3151         -DE/DX =    0.0                 !
 ! A14   A(3,6,9)              121.3652         -DE/DX =    0.0                 !
 ! A15   A(5,6,9)              117.3162         -DE/DX =    0.0                 !
 ! A16   A(3,8,12)              71.5229         -DE/DX =    0.0                 !
 ! A17   A(4,12,8)             126.5676         -DE/DX =    0.0                 !
 ! A18   A(4,13,14)            124.3768         -DE/DX =    0.0                 !
 ! A19   A(4,13,16)            114.5787         -DE/DX =    0.0                 !
 ! A20   A(14,13,16)           121.0422         -DE/DX =    0.0                 !
 ! D1    D(10,2,4,12)           -0.0466         -DE/DX =    0.0                 !
 ! D2    D(10,2,4,13)          178.668          -DE/DX =    0.0                 !
 ! D3    D(11,2,4,12)         -179.5699         -DE/DX =    0.0                 !
 ! D4    D(11,2,4,13)           -0.8553         -DE/DX =    0.0                 !
 ! D5    D(8,3,6,5)              0.4328         -DE/DX =    0.0                 !
 ! D6    D(8,3,6,9)            179.7279         -DE/DX =    0.0                 !
 ! D7    D(15,3,6,5)          -179.3073         -DE/DX =    0.0                 !
 ! D8    D(15,3,6,9)            -0.0122         -DE/DX =    0.0                 !
 ! D9    D(6,3,8,12)           -69.6368         -DE/DX =    0.0                 !
 ! D10   D(15,3,8,12)          110.1124         -DE/DX =    0.0                 !
 ! D11   D(2,4,12,8)            93.2019         -DE/DX =    0.0                 !
 ! D12   D(13,4,12,8)          -85.5633         -DE/DX =    0.0                 !
 ! D13   D(2,4,13,14)         -176.6395         -DE/DX =    0.0                 !
 ! D14   D(2,4,13,16)            2.806          -DE/DX =    0.0                 !
 ! D15   D(12,4,13,14)           2.1423         -DE/DX =    0.0                 !
 ! D16   D(12,4,13,16)        -178.4121         -DE/DX =    0.0                 !
 ! D17   D(1,5,6,3)              0.9457         -DE/DX =    0.0                 !
 ! D18   D(1,5,6,9)           -178.3769         -DE/DX =    0.0                 !
 ! D19   D(7,5,6,3)           -179.225          -DE/DX =    0.0                 !
 ! D20   D(7,5,6,9)              1.4524         -DE/DX =    0.0                 !
 ! D21   D(3,8,12,4)            54.0207         -DE/DX =    0.0                 !
 --------------------------------------------------------------------------------
 GradGradGradGradGradGradGradGradGradGradGradGradGradGradGradGradGradGrad

                          Input orientation:                          
 ---------------------------------------------------------------------
 Center     Atomic      Atomic             Coordinates (Angstroms)
 Number     Number       Type             X           Y           Z
 ---------------------------------------------------------------------
      1          8           0        1.931906   -0.822923    1.729544
      2          6           0       -1.029356    1.568777    1.246335
      3          6           0        1.877140   -1.403279   -1.076140
      4          6           0       -0.817136    1.190414   -0.017805
      5          6           0        0.993192   -1.386716    1.219502
      6          6           0        0.893210   -1.710446   -0.226058
      7          1           0        0.117502   -1.701956    1.837398
      8          1           0        2.782376   -0.909550   -0.710398
      9          1           0       -0.022904   -2.200057   -0.568576
     10          1           0       -0.253150    2.055794    1.840630
     11          1           0       -1.995095    1.393639    1.732821
     12          1           0        0.140929    1.348922   -0.521073
     13          6           0       -1.871322    0.507345   -0.793412
     14          8           0       -1.728059    0.088208   -1.915905
     15          1           0        1.806250   -1.628081   -2.142409
     16          1           0       -2.845385    0.389309   -0.252553
 ---------------------------------------------------------------------
                    Distance matrix (angstroms):
                    1          2          3          4          5
     1  O    0.000000
     2  C    3.837029   0.000000
     3  C    2.865602   4.761799   0.000000
     4  C    3.829359   1.336506   3.886700   0.000000
     5  C    1.207969   3.581391   2.460002   3.383758   0.000000
     6  C    2.385575   4.076457   1.336080   3.373965   1.484737
     7  H    2.019009   3.516011   3.416758   3.561057   1.117142
     8  H    2.585366   4.949769   1.094069   4.224455   2.674580
     9  H    3.316495   4.302437   2.121943   3.525543   2.211605
    10  H    3.615774   1.092185   5.001087   2.126204   3.713495
    11  H    4.509379   1.095442   5.541410   2.119807   4.113847
    12  H    3.604135   2.131111   3.301081   1.093751   3.352562
    13  C    4.753889   2.448696   4.216798   1.476298   3.980544
    14  O    5.245455   3.560903   3.990889   2.376430   4.405835
    15  H    3.956778   5.453820   1.092013   4.397728   3.467242
    16  H    5.312318   2.633585   5.117999   2.193324   4.478380
                    6          7          8          9         10
     6  C    0.000000
     7  H    2.204460   0.000000
     8  H    2.108309   3.771037   0.000000
     9  H    1.093756   2.461001   3.091135   0.000000
    10  H    4.446336   3.775987   4.951306   4.895872   0.000000
    11  H    4.670638   3.749229   5.839369   4.701130   1.866667
    12  H    3.164284   3.856266   3.480486   3.553076   2.496519
    13  C    3.589307   3.969583   4.865325   3.285914   3.457506
    14  O    3.600248   4.549512   4.774179   3.155789   4.489800
    15  H    2.124342   4.323909   1.876104   2.479902   5.803160
    16  H    4.287979   4.185688   5.793820   3.843318   3.725355
                   11         12         13         14         15
    11  H    0.000000
    12  H    3.105582   0.000000
    13  C    2.680054   2.198084   0.000000
    14  O    3.884412   2.651051   1.206727   0.000000
    15  H    6.212763   3.776847   4.461432   3.935516   0.000000
    16  H    2.381886   3.148179   1.120384   2.026282   5.411019
                   16
    16  H    0.000000
 Stoichiometry    C6H8O2
 Framework group  C1[X(C6H8O2)]
 Deg. of freedom    42
 Full point group                 C1      NOp   1
 Largest Abelian subgroup         C1      NOp   1
 Largest concise Abelian subgroup C1      NOp   1
                         Standard orientation:                         
 ---------------------------------------------------------------------
 Center     Atomic      Atomic             Coordinates (Angstroms)
 Number     Number       Type             X           Y           Z
 ---------------------------------------------------------------------
      1          8           0       -2.304205    1.237728    0.098848
      2          6           0        1.470274    1.909739    0.255354
      3          6           0       -1.799720   -1.529745    0.644982
      4          6           0        1.445158    0.607869    0.556602
      5          6           0       -1.702963    0.539319   -0.682127
      6          6           0       -1.398064   -0.896852   -0.461014
      7          1           0       -1.329647    0.959871   -1.647413
      8          1           0       -2.371335   -0.991362    1.406813
      9          1           0       -0.821839   -1.412512   -1.234552
     10          1           0        0.937023    2.650815    0.854784
     11          1           0        2.025455    2.276588   -0.614813
     12          1           0        0.892032    0.218649    1.416166
     13          6           0        2.149459   -0.380127   -0.284397
     14          8           0        2.120053   -1.572905   -0.103824
     15          1           0       -1.569802   -2.582852    0.819899
     16          1           0        2.726457    0.061006   -1.137472
 ---------------------------------------------------------------------
 Rotational constants (GHZ):           2.4342487           1.2163979           0.8982700

 **********************************************************************

            Population analysis using the SCF Density.

 **********************************************************************

 Orbital symmetries:
       Occupied  (A) (A) (A) (A) (A) (A) (A) (A) (A) (A) (A) (A)
                 (A) (A) (A) (A) (A) (A) (A) (A) (A) (A) (A) (A)
                 (A) (A) (A) (A) (A) (A)
       Virtual   (A) (A) (A) (A) (A) (A) (A) (A) (A) (A) (A) (A)
                 (A) (A) (A) (A) (A) (A) (A) (A) (A) (A) (A) (A)
                 (A) (A) (A) (A) (A) (A) (A) (A) (A) (A) (A) (A)
                 (A) (A) (A) (A) (A) (A) (A) (A) (A) (A) (A) (A)
                 (A) (A) (A) (A) (A) (A) (A) (A) (A) (A) (A) (A)
                 (A) (A) (A) (A) (A) (A) (A) (A) (A) (A) (A) (A)
                 (A) (A) (A) (A) (A) (A) (A) (A) (A) (A) (A) (A)
                 (A) (A) (A) (A) (A) (A) (A) (A) (A) (A) (A) (A)
                 (A) (A) (A) (A) (A) (A) (A) (A) (A) (A) (A) (A)
                 (A) (A) (A) (A) (A) (A) (A) (A) (A) (A) (A) (A)
                 (A) (A)
 The electronic state is 1-A.
 Alpha  occ. eigenvalues --  -19.26112 -19.25857 -10.39439 -10.39223 -10.33308
 Alpha  occ. eigenvalues --  -10.32437 -10.31973 -10.31367  -1.14444  -1.14156
 Alpha  occ. eigenvalues --   -0.89764  -0.88470  -0.74580  -0.73678  -0.66263
 Alpha  occ. eigenvalues --   -0.62904  -0.60057  -0.57018  -0.56476  -0.53982
 Alpha  occ. eigenvalues --   -0.51310  -0.51228  -0.50290  -0.49092  -0.47556
 Alpha  occ. eigenvalues --   -0.46532  -0.37833  -0.36869  -0.34864  -0.34702
 Alpha virt. eigenvalues --   -0.00289   0.00483   0.12557   0.13928   0.15196
 Alpha virt. eigenvalues --    0.15955   0.16382   0.18492   0.20828   0.21315
 Alpha virt. eigenvalues --    0.23342   0.24050   0.30339   0.31082   0.36943
 Alpha virt. eigenvalues --    0.37821   0.38983   0.40789   0.41746   0.48330
 Alpha virt. eigenvalues --    0.49914   0.52293   0.52642   0.55141   0.56442
 Alpha virt. eigenvalues --    0.58552   0.59545   0.60923   0.63320   0.67265
 Alpha virt. eigenvalues --    0.69340   0.69819   0.70978   0.72737   0.73430
 Alpha virt. eigenvalues --    0.74062   0.75215   0.76400   0.76571   0.77468
 Alpha virt. eigenvalues --    0.77998   0.81447   0.85063   0.87386   0.89351
 Alpha virt. eigenvalues --    0.92284   0.95766   0.97363   1.08090   1.09145
 Alpha virt. eigenvalues --    1.11113   1.11427   1.17714   1.21809   1.22975
 Alpha virt. eigenvalues --    1.24727   1.25488   1.27688   1.32054   1.33115
 Alpha virt. eigenvalues --    1.33986   1.35271   1.50943   1.51975   1.54288
 Alpha virt. eigenvalues --    1.55115   1.64742   1.66264   1.70108   1.71792
 Alpha virt. eigenvalues --    1.75190   1.76779   1.79425   1.80362   1.82204
 Alpha virt. eigenvalues --    1.82476   1.85818   1.86068   1.89034   1.91278
 Alpha virt. eigenvalues --    1.92777   1.95328   1.97317   2.01048   2.05079
 Alpha virt. eigenvalues --    2.10368   2.12424   2.14327   2.16522   2.18293
 Alpha virt. eigenvalues --    2.21035   2.24039   2.31958   2.36830   2.42068
 Alpha virt. eigenvalues --    2.43922   2.53009   2.53297   2.53823   2.55713
 Alpha virt. eigenvalues --    2.57421   2.59509   2.67044   2.67148   2.79103
 Alpha virt. eigenvalues --    2.79295   2.81264   2.81738   2.84851   2.88492
 Alpha virt. eigenvalues --    2.94093   2.96575   3.05459   3.15102   3.22682
 Alpha virt. eigenvalues --    3.23192   3.24743   3.39207   3.52969   3.58671
 Alpha virt. eigenvalues --    3.69831   3.70279
          Condensed to atoms (all electrons):
               1          2          3          4          5          6
     1  O    7.707079  -0.000151   0.012822  -0.001007   0.674081  -0.123504
     2  C   -0.000151   4.775280  -0.000055   0.491980   0.002080  -0.000973
     3  C    0.012822  -0.000055   4.683652  -0.000289  -0.018462   0.563530
     4  C   -0.001007   0.491980  -0.000289   5.272509   0.000879  -0.005348
     5  C    0.674081   0.002080  -0.018462   0.000879   4.566197   0.210438
     6  C   -0.123504  -0.000973   0.563530  -0.005348   0.210438   5.303174
     7  H   -0.041891   0.000554   0.013373   0.000848   0.419496  -0.129974
     8  H    0.015876  -0.000027   0.400963  -0.000178  -0.015000  -0.035247
     9  H    0.003059  -0.000391  -0.029992  -0.001325  -0.026208   0.384476
    10  H    0.000618   0.385435  -0.000008  -0.005025   0.000526  -0.000049
    11  H    0.000004   0.401678  -0.000005  -0.030060  -0.000067   0.000001
    12  H    0.000157  -0.024039   0.000980   0.380091   0.000078   0.002109
    13  C    0.000036  -0.009510  -0.000281   0.245115  -0.000319   0.000295
    14  O    0.000000   0.006382  -0.000498  -0.094458  -0.000111   0.000454
    15  H    0.000266   0.000005   0.391140  -0.000079   0.007367  -0.015944
    16  H    0.000000   0.016149  -0.000014  -0.139463  -0.000053   0.000127
               7          8          9         10         11         12
     1  O   -0.041891   0.015876   0.003059   0.000618   0.000004   0.000157
     2  C    0.000554  -0.000027  -0.000391   0.385435   0.401678  -0.024039
     3  C    0.013373   0.400963  -0.029992  -0.000008  -0.000005   0.000980
     4  C    0.000848  -0.000178  -0.001325  -0.005025  -0.030060   0.380091
     5  C    0.419496  -0.015000  -0.026208   0.000526  -0.000067   0.000078
     6  C   -0.129974  -0.035247   0.384476  -0.000049   0.000001   0.002109
     7  H    0.715766   0.001352  -0.000045  -0.000112   0.000085   0.000133
     8  H    0.001352   0.584030   0.007099  -0.000003   0.000000   0.000295
     9  H   -0.000045   0.007099   0.612602  -0.000003  -0.000001   0.000051
    10  H   -0.000112  -0.000003  -0.000003   0.571703  -0.035391  -0.010948
    11  H    0.000085   0.000000  -0.000001  -0.035391   0.589825   0.006406
    12  H    0.000133   0.000295   0.000051  -0.010948   0.006406   0.595650
    13  C   -0.000034   0.000058   0.002849   0.005282  -0.013523  -0.026037
    14  O   -0.000023  -0.000004   0.001774  -0.000129   0.000147   0.006057
    15  H   -0.000176  -0.035262  -0.010771  -0.000000   0.000000   0.000047
    16  H    0.000006   0.000001  -0.000013  -0.000408   0.007662   0.007417
              13         14         15         16
     1  O    0.000036   0.000000   0.000266   0.000000
     2  C   -0.009510   0.006382   0.000005   0.016149
     3  C   -0.000281  -0.000498   0.391140  -0.000014
     4  C    0.245115  -0.094458  -0.000079  -0.139463
     5  C   -0.000319  -0.000111   0.007367  -0.000053
     6  C    0.000295   0.000454  -0.015944   0.000127
     7  H   -0.000034  -0.000023  -0.000176   0.000006
     8  H    0.000058  -0.000004  -0.035262   0.000001
     9  H    0.002849   0.001774  -0.010771  -0.000013
    10  H    0.005282  -0.000129  -0.000000  -0.000408
    11  H   -0.013523   0.000147   0.000000   0.007662
    12  H   -0.026037   0.006057   0.000047   0.007417
    13  C    4.559096   0.648283  -0.000013   0.419730
    14  O    0.648283   7.718811   0.000278  -0.038770
    15  H   -0.000013   0.000278   0.581845   0.000006
    16  H    0.419730  -0.038770   0.000006   0.709141
 Mulliken charges:
               1
     1  O   -0.247446
     2  C   -0.044397
     3  C   -0.016858
     4  C   -0.114191
     5  C    0.179079
     6  C   -0.153566
     7  H    0.020641
     8  H    0.076047
     9  H    0.056838
    10  H    0.088511
    11  H    0.073237
    12  H    0.061553
    13  C    0.168972
    14  O   -0.248192
    15  H    0.081291
    16  H    0.018480
 Sum of Mulliken charges =  -0.00000
 Mulliken charges with hydrogens summed into heavy atoms:
               1
     1  O   -0.247446
     2  C    0.117352
     3  C    0.140480
     4  C   -0.052638
     5  C    0.199720
     6  C   -0.096728
    13  C    0.187452
    14  O   -0.248192
 Electronic spatial extent (au):  <R**2>=           1269.6770
 Charge=             -0.0000 electrons
 Dipole moment (field-independent basis, Debye):
    X=              0.9456    Y=              1.0591    Z=             -0.9568  Tot=              1.7121
 Quadrupole moment (field-independent basis, Debye-Ang):
   XX=            -53.4433   YY=            -48.8267   ZZ=            -43.6060
   XY=             12.1349   XZ=             -0.7626   YZ=             -2.0379
 Traceless Quadrupole moment (field-independent basis, Debye-Ang):
   XX=             -4.8180   YY=             -0.2013   ZZ=              5.0193
   XY=             12.1349   XZ=             -0.7626   YZ=             -2.0379
 Octapole moment (field-independent basis, Debye-Ang**2):
  XXX=             13.1584  YYY=              5.9674  ZZZ=             -0.6982  XYY=             -2.7342
  XXY=              0.5904  XXZ=             -4.8875  XZZ=             -2.9040  YZZ=             -0.2408
  YYZ=              2.6265  XYZ=              2.1524
 Hexadecapole moment (field-independent basis, Debye-Ang**3):
 XXXX=          -1025.3767 YYYY=           -478.1224 ZZZZ=           -135.9555 XXXY=             25.2698
 XXXZ=            -16.0878 YYYX=             25.5880 YYYZ=             -3.3223 ZZZX=             -6.1972
 ZZZY=             -1.2733 XXYY=           -282.1701 XXZZ=           -178.7890 YYZZ=           -101.7012
 XXYZ=            -17.9986 YYXZ=             -5.8027 ZZXY=             -6.5627
 N-N= 3.252129599845D+02 E-N=-1.544194440920D+03  KE= 3.797266430258D+02
 Unable to Open any file for archive entry.
 1\1\GINC-NODE-003\FTS\RwB97XD\Gen\C6H8O2\JP2658\22-Dec-2023\0\\# wb97x
 d chkbasis guess=read geom=allchk scrf=(iefpcm,solvent=toluene) opt=(r
 eadfc,ts,noeigen,maxcycles=50,maxstep=10)\\1c_2m_endo_adj_1_reopt2.out
 \\0,1\O,1.9319064031,-0.8229227814,1.7295438555\C,-1.0293557764,1.5687
 768727,1.2463353051\C,1.8771399839,-1.4032789474,-1.0761402176\C,-0.81
 71358498,1.1904140112,-0.0178053598\C,0.9931924441,-1.3867159358,1.219
 5019411\C,0.8932097325,-1.7104459739,-0.2260584401\H,0.1175019145,-1.7
 019561104,1.8373975015\H,2.782376062,-0.9095504343,-0.7103976654\H,-0.
 0229035796,-2.2000574616,-0.5685759747\H,-0.2531499471,2.0557939167,1.
 8406301727\H,-1.9950954225,1.3936394951,1.7328207434\H,0.1409291995,1.
 3489219312,-0.5210731678\C,-1.8713215011,0.5073453724,-0.7934117358\O,
 -1.7280585957,0.0882077546,-1.915904659\H,1.8062500166,-1.6280807604,-
 2.1424094841\H,-2.8453850842,0.3893090513,-0.2525528151\\Version=ES64L
 -G16RevC.01\State=1-A\HF=-383.4141157\RMSD=8.832e-09\RMSF=1.148e-06\Di
 pole=-0.5270041,0.1089145,0.4051416\Quadrupole=-0.3154002,3.7672163,-3
 .4518161,-0.4363116,-8.9298309,2.0900677\PG=C01 [X(C6H8O2)]\\@
 The archive entry for this job was punched.


 THEREFORE SHALL EVIL COME UPON THEE...
 THOU SHALT NOT KNOW FROM WHENCE IT RISETH...
 AND MISCHIEF SHALL FALL UPON THEE...
 THOU SHALT NOT BE ABLE TO PUT IT OFF...
 AND DESOLATION SHALL COME UPON THEE SUDDENLY...
 WHICH THOU SHALT NOT KNOW...

                                         ISAIAH 47.11
 Job cpu time:       0 days  0 hours 16 minutes 51.5 seconds.
 Elapsed time:       0 days  0 hours  1 minutes 27.0 seconds.
 File lengths (MBytes):  RWF=     56 Int=      0 D2E=      0 Chk=      7 Scr=      1
 Normal termination of Gaussian 16 at Fri Dec 22 23:56:24 2023.
