Unloading slurm/anatra/current
  ERROR: No such file or directory on
    '/cm/local/modulefiles/slurm/anatra/current'
environment: line 0: unalias: gv: not found
environment: line 0: unalias: sl: not found
 Entering Gaussian System, Link 0=g16
 Initial command:
 /apps/gaussian/g16/C.01/g16/l1.exe "/local/jobs/1153194/Gau-1523418.inp" -scrdir="/local/jobs/1153194/"
 Entering Link 1 = /apps/gaussian/g16/C.01/g16/l1.exe PID=   1523430.
  
 Copyright (c) 1988-2019, Gaussian, Inc.  All Rights Reserved.
  
 This is part of the Gaussian(R) 16 program.  It is based on
 the Gaussian(R) 09 system (copyright 2009, Gaussian, Inc.),
 the Gaussian(R) 03 system (copyright 2003, Gaussian, Inc.),
 the Gaussian(R) 98 system (copyright 1998, Gaussian, Inc.),
 the Gaussian(R) 94 system (copyright 1995, Gaussian, Inc.),
 the Gaussian 92(TM) system (copyright 1992, Gaussian, Inc.),
 the Gaussian 90(TM) system (copyright 1990, Gaussian, Inc.),
 the Gaussian 88(TM) system (copyright 1988, Gaussian, Inc.),
 the Gaussian 86(TM) system (copyright 1986, Carnegie Mellon
 University), and the Gaussian 82(TM) system (copyright 1983,
 Carnegie Mellon University). Gaussian is a federally registered
 trademark of Gaussian, Inc.
  
 This software contains proprietary and confidential information,
 including trade secrets, belonging to Gaussian, Inc.
  
 This software is provided under written license and may be
 used, copied, transmitted, or stored only in accord with that
 written license.
  
 The following legend is applicable only to US Government
 contracts under FAR:
  
                    RESTRICTED RIGHTS LEGEND
  
 Use, reproduction and disclosure by the US Government is
 subject to restrictions as set forth in subparagraphs (a)
 and (c) of the Commercial Computer Software - Restricted
 Rights clause in FAR 52.227-19.
  
 Gaussian, Inc.
 340 Quinnipiac St., Bldg. 40, Wallingford CT 06492
  
  
 ---------------------------------------------------------------
 Warning -- This program may not be used in any manner that
 competes with the business of Gaussian, Inc. or will provide
 assistance to any competitor of Gaussian, Inc.  The licensee
 of this program is prohibited from giving any competitor of
 Gaussian, Inc. access to this program.  By using this program,
 the user acknowledges that Gaussian, Inc. is engaged in the
 business of creating and licensing software in the field of
 computational chemistry and represents and warrants to the
 licensee that it is not a competitor of Gaussian, Inc. and that
 it will not use this program in any manner prohibited above.
 ---------------------------------------------------------------
  

 Cite this work as:
 Gaussian 16, Revision C.01,
 M. J. Frisch, G. W. Trucks, H. B. Schlegel, G. E. Scuseria, 
 M. A. Robb, J. R. Cheeseman, G. Scalmani, V. Barone, 
 G. A. Petersson, H. Nakatsuji, X. Li, M. Caricato, A. V. Marenich, 
 J. Bloino, B. G. Janesko, R. Gomperts, B. Mennucci, H. P. Hratchian, 
 J. V. Ortiz, A. F. Izmaylov, J. L. Sonnenberg, D. Williams-Young, 
 F. Ding, F. Lipparini, F. Egidi, J. Goings, B. Peng, A. Petrone, 
 T. Henderson, D. Ranasinghe, V. G. Zakrzewski, J. Gao, N. Rega, 
 G. Zheng, W. Liang, M. Hada, M. Ehara, K. Toyota, R. Fukuda, 
 J. Hasegawa, M. Ishida, T. Nakajima, Y. Honda, O. Kitao, H. Nakai, 
 T. Vreven, K. Throssell, J. A. Montgomery, Jr., J. E. Peralta, 
 F. Ogliaro, M. J. Bearpark, J. J. Heyd, E. N. Brothers, K. N. Kudin, 
 V. N. Staroverov, T. A. Keith, R. Kobayashi, J. Normand, 
 K. Raghavachari, A. P. Rendell, J. C. Burant, S. S. Iyengar, 
 J. Tomasi, M. Cossi, J. M. Millam, M. Klene, C. Adamo, R. Cammi, 
 J. W. Ochterski, R. L. Martin, K. Morokuma, O. Farkas, 
 J. B. Foresman, and D. J. Fox, Gaussian, Inc., Wallingford CT, 2019.
 
 ******************************************
 Gaussian 16:  ES64L-G16RevC.01  3-Jul-2019
                30-Dec-2023 
 ******************************************
 %chk=da-1_1_opt_dft_reopt2_freq.chk
 %nprocshared=12
 Will use up to   12 processors via shared memory.
 %mem=48GB
 -----------------------------------------------------------
 # wb97xd def2svp scrf=(iefpcm,solvent=toluene) freq=noraman
 -----------------------------------------------------------
 1/10=4,30=1,38=1/1,3;
 2/12=2,17=6,18=5,40=1/2;
 3/5=43,7=101,11=2,25=1,30=1,70=2201,71=2,72=13,74=-58,140=1/1,2,3;
 4//1;
 5/5=2,38=5,53=13,98=1/2;
 8/6=4,10=90,11=11/1;
 11/6=1,8=1,9=11,15=111,16=1/1,2,10;
 10/6=1/2;
 6/7=2,8=2,9=2,10=2,28=1/1;
 7/8=1,10=1,25=1/1,2,3,16;
 1/10=4,30=1/3;
 99//99;
 -------------------------
 da-1_1_opt_dft_reopt2.out
 -------------------------
 Symbolic Z-matrix:
 Charge =  0 Multiplicity = 1
 O                    -2.30421   1.23773   0.09885 
 C                     1.47027   1.90974   0.25535 
 C                    -1.79972  -1.52974   0.64498 
 C                     1.44516   0.60787   0.5566 
 C                    -1.70296   0.53932  -0.68213 
 C                    -1.39806  -0.89685  -0.46101 
 H                    -1.32965   0.95987  -1.64741 
 H                    -2.37134  -0.99136   1.40681 
 H                    -0.82184  -1.41251  -1.23455 
 H                     0.93702   2.65082   0.85478 
 H                     2.02546   2.27659  -0.61481 
 H                     0.89203   0.21865   1.41617 
 C                     2.14946  -0.38013  -0.2844 
 O                     2.12005  -1.5729   -0.10382 
 H                    -1.5698   -2.58285   0.8199 
 H                     2.72646   0.06101  -1.13747 
 

 GradGradGradGradGradGradGradGradGradGradGradGradGradGradGradGradGradGrad
 Berny optimization.
 Initialization pass.
 Trust Radius=3.00D-01 FncErr=1.00D-07 GrdErr=1.00D-07 EigMax=2.50D+02 EigMin=1.00D-04
 Number of steps in this run=      2 maximum allowed number of steps=      2.
 GradGradGradGradGradGradGradGradGradGradGradGradGradGradGradGradGradGrad

                          Input orientation:                          
 ---------------------------------------------------------------------
 Center     Atomic      Atomic             Coordinates (Angstroms)
 Number     Number       Type             X           Y           Z
 ---------------------------------------------------------------------
      1          8           0       -2.304210    1.237730    0.098850
      2          6           0        1.470270    1.909740    0.255350
      3          6           0       -1.799720   -1.529740    0.644980
      4          6           0        1.445160    0.607870    0.556600
      5          6           0       -1.702960    0.539320   -0.682130
      6          6           0       -1.398060   -0.896850   -0.461010
      7          1           0       -1.329650    0.959870   -1.647410
      8          1           0       -2.371340   -0.991360    1.406810
      9          1           0       -0.821840   -1.412510   -1.234550
     10          1           0        0.937020    2.650820    0.854780
     11          1           0        2.025460    2.276590   -0.614810
     12          1           0        0.892030    0.218650    1.416170
     13          6           0        2.149460   -0.380130   -0.284400
     14          8           0        2.120050   -1.572900   -0.103820
     15          1           0       -1.569800   -2.582850    0.819900
     16          1           0        2.726460    0.061010   -1.137470
 ---------------------------------------------------------------------
                    Distance matrix (angstroms):
                    1          2          3          4          5
     1  O    0.000000
     2  C    3.837029   0.000000
     3  C    2.865599   4.761793   0.000000
     4  C    3.829365   1.336506   3.886700   0.000000
     5  C    1.207977   3.581384   2.459999   3.383757   0.000000
     6  C    2.385578   4.076449   1.336074   3.373961   1.484736
     7  H    2.019009   3.516006   3.416749   3.561058   1.117134
     8  H    2.585364   4.949769   1.094069   4.224460   2.674581
     9  H    3.316496   4.302431   2.121939   3.525541   2.211601
    10  H    3.615775   1.092187   5.001084   2.126208   3.713491
    11  H    4.509388   1.095442   5.541410   2.119806   4.113849
    12  H    3.604137   2.131115   3.301079   1.093758   3.352561
    13  C    4.753896   2.448700   4.216797   1.476301   3.980542
    14  O    5.245454   3.560899   3.990885   2.376424   4.405828
    15  H    3.956779   5.453816   1.092017   4.397727   3.467243
    16  H    5.312325   2.633584   5.118000   2.193321   4.478379
                    6          7          8          9         10
     6  C    0.000000
     7  H    2.204458   0.000000
     8  H    2.108307   3.771031   0.000000
     9  H    1.093754   2.460998   3.091133   0.000000
    10  H    4.446332   3.775985   4.951309   4.895870   0.000000
    11  H    4.670639   3.749237   5.839375   4.701133   1.866667
    12  H    3.164278   3.856267   3.480488   3.553076   2.496524
    13  C    3.589302   3.969585   4.865329   3.285912   3.457514
    14  O    3.600240   4.549508   4.774178   3.155787   4.489798
    15  H    2.124340   4.323905   1.876105   2.479900   5.803160
    16  H    4.287978   4.185692   5.793825   3.843321   3.725355
                   11         12         13         14         15
    11  H    0.000000
    12  H    3.105585   0.000000
    13  C    2.680057   2.198091   0.000000
    14  O    3.884409   2.651048   1.206720   0.000000
    15  H    6.212765   3.776844   4.461429   3.935511   0.000000
    16  H    2.381884   3.148184   1.120385   2.026284   5.411021
                   16
    16  H    0.000000
 Stoichiometry    C6H8O2
 Framework group  C1[X(C6H8O2)]
 Deg. of freedom    42
 Full point group                 C1      NOp   1
 Largest Abelian subgroup         C1      NOp   1
 Largest concise Abelian subgroup C1      NOp   1
                         Standard orientation:                         
 ---------------------------------------------------------------------
 Center     Atomic      Atomic             Coordinates (Angstroms)
 Number     Number       Type             X           Y           Z
 ---------------------------------------------------------------------
      1          8           0        2.304211    1.237726   -0.098850
      2          6           0       -1.470269    1.909740   -0.255350
      3          6           0        1.799718   -1.529744   -0.644980
      4          6           0       -1.445160    0.607869   -0.556600
      5          6           0        1.702960    0.539316    0.682130
      6          6           0        1.398058   -0.896853    0.461010
      7          1           0        1.329650    0.959867    1.647410
      8          1           0        2.371338   -0.991364   -1.406810
      9          1           0        0.821838   -1.412513    1.234550
     10          1           0       -0.937018    2.650819   -0.854780
     11          1           0       -2.025458    2.276590    0.614810
     12          1           0       -0.892030    0.218649   -1.416170
     13          6           0       -2.149461   -0.380130    0.284400
     14          8           0       -2.120052   -1.572900    0.103820
     15          1           0        1.569797   -2.582854   -0.819900
     16          1           0       -2.726461    0.061011    1.137470
 ---------------------------------------------------------------------
 Rotational constants (GHZ):           2.4342537           1.2163986           0.8982708
 Standard basis: def2SVP (5D, 7F)
 There are   160 symmetry adapted cartesian basis functions of A   symmetry.
 There are   152 symmetry adapted basis functions of A   symmetry.
   152 basis functions,   256 primitive gaussians,   160 cartesian basis functions
    30 alpha electrons       30 beta electrons
       nuclear repulsion energy       325.2203762709 Hartrees.
 NAtoms=   16 NActive=   16 NUniq=   16 SFac= 1.00D+00 NAtFMM=   60 NAOKFM=F Big=F
 Integral buffers will be    131072 words long.
 Raffenetti 2 integral format.
 Two-electron integral symmetry is turned on.
 Nuclear repulsion after empirical dispersion term =      325.2130684410 Hartrees.
 Force inversion solution in PCM.
 ------------------------------------------------------------------------------
 Polarizable Continuum Model (PCM)
 =================================
 Model                : PCM.
 Atomic radii         : UFF (Universal Force Field).
 Polarization charges : Total charges.
 Charge compensation  : None.
 Solution method      : Matrix inversion.
 Cavity type          : Scaled VdW (van der Waals Surface) (Alpha=1.100).
 Cavity algorithm     : GePol (No added spheres)
                        Default sphere list used, NSphG=   16.
                        Lebedev-Laikov grids with approx.  5.0 points / Ang**2.
                        Smoothing algorithm: York/Karplus (Gamma=1.0000).
                        Polarization charges: spherical gaussians, with
                                              point-specific exponents (IZeta= 3).
                        Self-potential: point-specific (ISelfS= 7).
                        Self-field    : sphere-specific E.n sum rule (ISelfD= 2).
 1st derivatives      : Analytical E(r).r(x)/FMM algorithm (CHGder, D1EAlg=3).
                        Cavity 1st derivative terms included.
 2nd derivatives      : Analytical E(r).r(xy)/FMM algorithm (CHGder, D2EAlg=3).
                        Cavity 2nd derivative terms included.
 Solvent              : Toluene, Eps=   2.374100 Eps(inf)=   2.238315
 ------------------------------------------------------------------------------
 Spheres list:
 ISph  on   Nord     Re0    Alpha      Xe            Ye            Ze
    1   O      1    1.7500  1.100      2.304211      1.237726     -0.098850
    2   C      2    1.9255  1.100     -1.470269      1.909740     -0.255350
    3   C      3    1.9255  1.100      1.799718     -1.529744     -0.644980
    4   C      4    1.9255  1.100     -1.445160      0.607869     -0.556600
    5   C      5    1.9255  1.100      1.702960      0.539316      0.682130
    6   C      6    1.9255  1.100      1.398058     -0.896853      0.461010
    7   H      7    1.4430  1.100      1.329650      0.959867      1.647410
    8   H      8    1.4430  1.100      2.371338     -0.991364     -1.406810
    9   H      9    1.4430  1.100      0.821838     -1.412513      1.234550
   10   H     10    1.4430  1.100     -0.937018      2.650819     -0.854780
   11   H     11    1.4430  1.100     -2.025458      2.276590      0.614810
   12   H     12    1.4430  1.100     -0.892030      0.218649     -1.416170
   13   C     13    1.9255  1.100     -2.149461     -0.380130      0.284400
   14   O     14    1.7500  1.100     -2.120052     -1.572900      0.103820
   15   H     15    1.4430  1.100      1.569797     -2.582854     -0.819900
   16   H     16    1.4430  1.100     -2.726461      0.061011      1.137470
 ------------------------------------------------------------------------------
 One-electron integrals computed using PRISM.
   1 Symmetry operations used in ECPInt.
 ECPInt:  NShTT=    2628 NPrTT=    9444 LenC2=    2594 LenP2D=    7347.
 LDataN:  DoStor=T MaxTD1= 4 Len=   56
 NBasis=   152 RedAO= T EigKep=  2.18D-03  NBF=   152
 NBsUse=   152 1.00D-06 EigRej= -1.00D+00 NBFU=   152
 ExpMin= 1.22D-01 ExpMax= 2.27D+03 ExpMxC= 3.41D+02 IAcc=3 IRadAn=         5 AccDes= 0.00D+00
 Harris functional with IExCor= 4639 and IRadAn=       5 diagonalized for initial guess.
 HarFok:  IExCor= 4639 AccDes= 0.00D+00 IRadAn=         5 IDoV= 1 UseB2=F ITyADJ=14
 ICtDFT=  3500011 ScaDFX=  1.000000  1.000000  1.000000  1.000000
 FoFCou: FMM=F IPFlag=           0 FMFlag=      100000 FMFlg1=           0
         NFxFlg=           0 DoJE=T BraDBF=F KetDBF=T FulRan=T
         wScrn=  0.000000 ICntrl=       500 IOpCl=  0 I1Cent=   200000004 NGrid=           0
         NMat0=    1 NMatS0=      1 NMatT0=    0 NMatD0=    1 NMtDS0=    0 NMtDT0=    0
 Petite list used in FoFCou.
 Requested convergence on RMS density matrix=1.00D-08 within 128 cycles.
 Requested convergence on MAX density matrix=1.00D-06.
 Requested convergence on             energy=1.00D-06.
 No special actions if energy rises.
 Inv3:  Mode=1 IEnd=     7050267.
 Iteration    1 A*A^-1 deviation from unit magnitude is 3.22D-15 for   1002.
 Iteration    1 A*A^-1 deviation from orthogonality  is 1.55D-15 for   1281    824.
 Iteration    1 A^-1*A deviation from unit magnitude is 2.55D-15 for   1002.
 Iteration    1 A^-1*A deviation from orthogonality  is 1.62D-15 for   1143    498.
 Error on total polarization charges =  0.00497
 SCF Done:  E(RwB97XD) =  -383.414115704     A.U. after   14 cycles
            NFock= 14  Conv=0.83D-08     -V/T= 2.0097
 DoSCS=F DFT=T ScalE2(SS,OS)=  1.000000  1.000000
 Range of M.O.s used for correlation:     1   152
 NBasis=   152 NAE=    30 NBE=    30 NFC=     0 NFV=     0
 NROrb=    152 NOA=    30 NOB=    30 NVA=   122 NVB=   122
   1 Symmetry operations used in ECPInt.
 ECPInt:  NShTT=    2628 NPrTT=    9444 LenC2=    2594 LenP2D=    7347.
 LDataN:  DoStor=T MaxTD1= 5 Len=  102
 Symmetrizing basis deriv contribution to polar:
 IMax=3 JMax=2 DiffMx= 0.00D+00
 G2DrvN: will do    17 centers at a time, making    1 passes.
 Calling FoFCou, ICntrl=  3107 FMM=F I1Cent=   0 AccDes= 0.00D+00.
 NEqPCM:  Using equilibrium solvation (IEInf=0, Eps=   2.3741, EpsInf=   2.2383)
 G2PCM: DoFxE=T DoFxN=T DoGrad=T DoDP/DQ/DG/TGxP=FFFF NFrqRd=   0 IEInf=0 SqF1=F DoCFld=F IF1Alg=4.
 End of G2Drv F.D. properties file   721 does not exist.
 End of G2Drv F.D. properties file   722 does not exist.
 End of G2Drv F.D. properties file   788 does not exist.
          IDoAtm=1111111111111111
 NEqPCM:  Using equilibrium solvation (IEInf=0, Eps=   2.3741, EpsInf=   2.2383)
          Differentiating once with respect to electric field.
                with respect to dipole field.
          Differentiating once with respect to nuclear coordinates.
 Keep R1 ints in memory in canonical form, NReq=148857449.
          There are    51 degrees of freedom in the 1st order CPHF.  IDoFFX=6 NUNeed=     3.
     48 vectors produced by pass  0 Test12= 7.18D-15 1.96D-09 XBig12= 5.01D+01 3.67D+00.
 AX will form    48 AO Fock derivatives at one time.
     48 vectors produced by pass  1 Test12= 7.18D-15 1.96D-09 XBig12= 6.73D+00 4.15D-01.
     48 vectors produced by pass  2 Test12= 7.18D-15 1.96D-09 XBig12= 2.80D-01 1.05D-01.
     48 vectors produced by pass  3 Test12= 7.18D-15 1.96D-09 XBig12= 3.34D-03 8.91D-03.
     48 vectors produced by pass  4 Test12= 7.18D-15 1.96D-09 XBig12= 2.93D-05 6.94D-04.
     48 vectors produced by pass  5 Test12= 7.18D-15 1.96D-09 XBig12= 1.32D-07 4.15D-05.
     36 vectors produced by pass  6 Test12= 7.18D-15 1.96D-09 XBig12= 5.40D-10 3.02D-06.
      5 vectors produced by pass  7 Test12= 7.18D-15 1.96D-09 XBig12= 1.93D-12 1.87D-07.
      3 vectors produced by pass  8 Test12= 7.18D-15 1.96D-09 XBig12= 8.12D-15 1.49D-08.
 InvSVY:  IOpt=1 It=  1 EMax= 4.44D-15
 Solved reduced A of dimension   332 with    51 vectors.
 Isotropic polarizability for W=    0.000000       75.64 Bohr**3.
 End of Minotr F.D. properties file   721 does not exist.
 End of Minotr F.D. properties file   722 does not exist.
 End of Minotr F.D. properties file   788 does not exist.

 **********************************************************************

            Population analysis using the SCF Density.

 **********************************************************************

 Orbital symmetries:
       Occupied  (A) (A) (A) (A) (A) (A) (A) (A) (A) (A) (A) (A)
                 (A) (A) (A) (A) (A) (A) (A) (A) (A) (A) (A) (A)
                 (A) (A) (A) (A) (A) (A)
       Virtual   (A) (A) (A) (A) (A) (A) (A) (A) (A) (A) (A) (A)
                 (A) (A) (A) (A) (A) (A) (A) (A) (A) (A) (A) (A)
                 (A) (A) (A) (A) (A) (A) (A) (A) (A) (A) (A) (A)
                 (A) (A) (A) (A) (A) (A) (A) (A) (A) (A) (A) (A)
                 (A) (A) (A) (A) (A) (A) (A) (A) (A) (A) (A) (A)
                 (A) (A) (A) (A) (A) (A) (A) (A) (A) (A) (A) (A)
                 (A) (A) (A) (A) (A) (A) (A) (A) (A) (A) (A) (A)
                 (A) (A) (A) (A) (A) (A) (A) (A) (A) (A) (A) (A)
                 (A) (A) (A) (A) (A) (A) (A) (A) (A) (A) (A) (A)
                 (A) (A) (A) (A) (A) (A) (A) (A) (A) (A) (A) (A)
                 (A) (A)
 The electronic state is 1-A.
 Alpha  occ. eigenvalues --  -19.26112 -19.25857 -10.39439 -10.39223 -10.33308
 Alpha  occ. eigenvalues --  -10.32436 -10.31973 -10.31367  -1.14444  -1.14155
 Alpha  occ. eigenvalues --   -0.89764  -0.88470  -0.74580  -0.73678  -0.66263
 Alpha  occ. eigenvalues --   -0.62904  -0.60057  -0.57018  -0.56476  -0.53982
 Alpha  occ. eigenvalues --   -0.51310  -0.51228  -0.50290  -0.49092  -0.47556
 Alpha  occ. eigenvalues --   -0.46532  -0.37833  -0.36869  -0.34864  -0.34702
 Alpha virt. eigenvalues --   -0.00289   0.00483   0.12557   0.13928   0.15196
 Alpha virt. eigenvalues --    0.15955   0.16382   0.18492   0.20828   0.21315
 Alpha virt. eigenvalues --    0.23342   0.24050   0.30339   0.31082   0.36943
 Alpha virt. eigenvalues --    0.37821   0.38983   0.40789   0.41746   0.48330
 Alpha virt. eigenvalues --    0.49914   0.52293   0.52642   0.55141   0.56442
 Alpha virt. eigenvalues --    0.58552   0.59545   0.60923   0.63320   0.67265
 Alpha virt. eigenvalues --    0.69340   0.69818   0.70978   0.72737   0.73430
 Alpha virt. eigenvalues --    0.74062   0.75215   0.76400   0.76571   0.77468
 Alpha virt. eigenvalues --    0.77999   0.81447   0.85063   0.87386   0.89351
 Alpha virt. eigenvalues --    0.92284   0.95766   0.97363   1.08090   1.09145
 Alpha virt. eigenvalues --    1.11113   1.11427   1.17714   1.21809   1.22975
 Alpha virt. eigenvalues --    1.24727   1.25488   1.27688   1.32054   1.33115
 Alpha virt. eigenvalues --    1.33985   1.35271   1.50943   1.51975   1.54288
 Alpha virt. eigenvalues --    1.55114   1.64742   1.66264   1.70108   1.71792
 Alpha virt. eigenvalues --    1.75190   1.76779   1.79425   1.80362   1.82204
 Alpha virt. eigenvalues --    1.82476   1.85819   1.86068   1.89034   1.91278
 Alpha virt. eigenvalues --    1.92777   1.95328   1.97317   2.01048   2.05080
 Alpha virt. eigenvalues --    2.10368   2.12424   2.14326   2.16521   2.18293
 Alpha virt. eigenvalues --    2.21035   2.24039   2.31958   2.36830   2.42067
 Alpha virt. eigenvalues --    2.43922   2.53009   2.53296   2.53824   2.55713
 Alpha virt. eigenvalues --    2.57421   2.59509   2.67045   2.67148   2.79103
 Alpha virt. eigenvalues --    2.79295   2.81263   2.81739   2.84851   2.88492
 Alpha virt. eigenvalues --    2.94092   2.96574   3.05459   3.15102   3.22683
 Alpha virt. eigenvalues --    3.23191   3.24743   3.39206   3.52970   3.58671
 Alpha virt. eigenvalues --    3.69830   3.70279
          Condensed to atoms (all electrons):
               1          2          3          4          5          6
     1  O    7.707092  -0.000151   0.012822  -0.001007   0.674075  -0.123504
     2  C   -0.000151   4.775281  -0.000055   0.491981   0.002080  -0.000973
     3  C    0.012822  -0.000055   4.683654  -0.000289  -0.018462   0.563532
     4  C   -0.001007   0.491981  -0.000289   5.272513   0.000878  -0.005348
     5  C    0.674075   0.002080  -0.018462   0.000878   4.566198   0.210438
     6  C   -0.123504  -0.000973   0.563532  -0.005348   0.210438   5.303168
     7  H   -0.041890   0.000554   0.013373   0.000848   0.419497  -0.129972
     8  H    0.015876  -0.000027   0.400963  -0.000178  -0.015001  -0.035247
     9  H    0.003060  -0.000391  -0.029993  -0.001325  -0.026208   0.384476
    10  H    0.000618   0.385435  -0.000008  -0.005025   0.000526  -0.000049
    11  H    0.000004   0.401678  -0.000005  -0.030060  -0.000067   0.000001
    12  H    0.000157  -0.024038   0.000980   0.380090   0.000078   0.002109
    13  C    0.000036  -0.009511  -0.000281   0.245119  -0.000319   0.000295
    14  O    0.000000   0.006382  -0.000498  -0.094459  -0.000111   0.000454
    15  H    0.000266   0.000005   0.391139  -0.000079   0.007367  -0.015944
    16  H    0.000000   0.016149  -0.000014  -0.139464  -0.000053   0.000127
               7          8          9         10         11         12
     1  O   -0.041890   0.015876   0.003060   0.000618   0.000004   0.000157
     2  C    0.000554  -0.000027  -0.000391   0.385435   0.401678  -0.024038
     3  C    0.013373   0.400963  -0.029993  -0.000008  -0.000005   0.000980
     4  C    0.000848  -0.000178  -0.001325  -0.005025  -0.030060   0.380090
     5  C    0.419497  -0.015001  -0.026208   0.000526  -0.000067   0.000078
     6  C   -0.129972  -0.035247   0.384476  -0.000049   0.000001   0.002109
     7  H    0.715761   0.001352  -0.000045  -0.000112   0.000085   0.000133
     8  H    0.001352   0.584030   0.007099  -0.000003   0.000000   0.000295
     9  H   -0.000045   0.007099   0.612604  -0.000003  -0.000001   0.000051
    10  H   -0.000112  -0.000003  -0.000003   0.571703  -0.035391  -0.010948
    11  H    0.000085   0.000000  -0.000001  -0.035391   0.589826   0.006406
    12  H    0.000133   0.000295   0.000051  -0.010948   0.006406   0.595649
    13  C   -0.000034   0.000058   0.002849   0.005282  -0.013523  -0.026037
    14  O   -0.000023  -0.000004   0.001774  -0.000129   0.000147   0.006057
    15  H   -0.000176  -0.035262  -0.010771  -0.000000   0.000000   0.000047
    16  H    0.000006   0.000001  -0.000013  -0.000408   0.007662   0.007417
              13         14         15         16
     1  O    0.000036   0.000000   0.000266   0.000000
     2  C   -0.009511   0.006382   0.000005   0.016149
     3  C   -0.000281  -0.000498   0.391139  -0.000014
     4  C    0.245119  -0.094459  -0.000079  -0.139464
     5  C   -0.000319  -0.000111   0.007367  -0.000053
     6  C    0.000295   0.000454  -0.015944   0.000127
     7  H   -0.000034  -0.000023  -0.000176   0.000006
     8  H    0.000058  -0.000004  -0.035262   0.000001
     9  H    0.002849   0.001774  -0.010771  -0.000013
    10  H    0.005282  -0.000129  -0.000000  -0.000408
    11  H   -0.013523   0.000147   0.000000   0.007662
    12  H   -0.026037   0.006057   0.000047   0.007417
    13  C    4.559088   0.648287  -0.000013   0.419729
    14  O    0.648287   7.718800   0.000278  -0.038770
    15  H   -0.000013   0.000278   0.581845   0.000006
    16  H    0.419729  -0.038770   0.000006   0.709144
 Mulliken charges:
               1
     1  O   -0.247454
     2  C   -0.044399
     3  C   -0.016859
     4  C   -0.114197
     5  C    0.179084
     6  C   -0.153563
     7  H    0.020643
     8  H    0.076047
     9  H    0.056837
    10  H    0.088512
    11  H    0.073236
    12  H    0.061555
    13  C    0.168973
    14  O   -0.248185
    15  H    0.081292
    16  H    0.018479
 Sum of Mulliken charges =  -0.00000
 Mulliken charges with hydrogens summed into heavy atoms:
               1
     1  O   -0.247454
     2  C    0.117349
     3  C    0.140480
     4  C   -0.052641
     5  C    0.199726
     6  C   -0.096726
    13  C    0.187451
    14  O   -0.248185
 APT charges:
               1
     1  O   -0.713162
     2  C    0.014163
     3  C    0.008848
     4  C   -0.309642
     5  C    0.922040
     6  C   -0.341891
     7  H   -0.077089
     8  H    0.082423
     9  H    0.052219
    10  H    0.072426
    11  H    0.062727
    12  H    0.056390
    13  C    0.943220
    14  O   -0.777132
    15  H    0.066367
    16  H   -0.061909
 Sum of APT charges =  -0.00000
 APT charges with hydrogens summed into heavy atoms:
               1
     1  O   -0.713162
     2  C    0.149316
     3  C    0.157638
     4  C   -0.253253
     5  C    0.844951
     6  C   -0.289671
    13  C    0.881311
    14  O   -0.777132
 Electronic spatial extent (au):  <R**2>=           1269.6760
 Charge=             -0.0000 electrons
 Dipole moment (field-independent basis, Debye):
    X=             -0.9457    Y=              1.0590    Z=              0.9569  Tot=              1.7121
 Quadrupole moment (field-independent basis, Debye-Ang):
   XX=            -53.4433   YY=            -48.8266   ZZ=            -43.6059
   XY=            -12.1349   XZ=             -0.7625   YZ=              2.0379
 Traceless Quadrupole moment (field-independent basis, Debye-Ang):
   XX=             -4.8180   YY=             -0.2013   ZZ=              5.0194
   XY=            -12.1349   XZ=             -0.7625   YZ=              2.0379
 Octapole moment (field-independent basis, Debye-Ang**2):
  XXX=            -13.1590  YYY=              5.9672  ZZZ=              0.6983  XYY=              2.7340
  XXY=              0.5900  XXZ=              4.8876  XZZ=              2.9041  YZZ=             -0.2408
  YYZ=             -2.6265  XYZ=              2.1524
 Hexadecapole moment (field-independent basis, Debye-Ang**3):
 XXXX=          -1025.3763 YYYY=           -478.1218 ZZZZ=           -135.9549 XXXY=            -25.2700
 XXXZ=            -16.0874 YYYX=            -25.5876 YYYZ=              3.3221 ZZZX=             -6.1967
 ZZZY=              1.2733 XXYY=           -282.1698 XXZZ=           -178.7889 YYZZ=           -101.7011
 XXYZ=             17.9985 YYXZ=             -5.8026 ZZXY=              6.5628
 N-N= 3.252130684410D+02 E-N=-1.544194669758D+03  KE= 3.797266472743D+02
  Exact polarizability:      54.467       3.734     103.640     -16.180      10.408      68.815
 Approx polarizability:      52.490       5.494     105.809     -14.844       8.953      69.880
   1 Symmetry operations used in ECPInt.
 ECPInt:  NShTT=    2628 NPrTT=    9444 LenC2=    2594 LenP2D=    7347.
 LDataN:  DoStor=T MaxTD1= 6 Len=  172
 D2PCM: PCM CHGder 2nd derivatives, FixD1E=F FixD2E=F DoIter=F DoCFld=F I1PDM=0
 Calling FoFJK, ICntrl=    100127 FMM=F ISym2X=0 I1Cent= 0 IOpClX= 0 NMat=1 NMatS=1 NMatT=0.
 Full mass-weighted force constant matrix:
 Low frequencies ---  -22.1358   -7.0470   -5.1779   -0.0011   -0.0008   -0.0004
 Low frequencies ---   11.9335   26.3861   38.6853
 ******    1 imaginary frequencies (negative Signs) ****** 
 Diagonal vibrational polarizability:
      184.8443019      24.4282347     415.4121563
 Harmonic frequencies (cm**-1), IR intensities (KM/Mole), Raman scattering
 activities (A**4/AMU), depolarization ratios for plane and unpolarized
 incident light, reduced masses (AMU), force constants (mDyne/A),
 and normal coordinates:
                      1                      2                      3
                      A                      A                      A
 Frequencies --    -20.7769                25.8299                38.2997
 Red. masses --      4.0373                 3.1298                 5.0806
 Frc consts  --      0.0010                 0.0012                 0.0044
 IR Inten    --      5.7679                 1.1755                 1.9461
  Atom  AN      X      Y      Z        X      Y      Z        X      Y      Z
     1   8    -0.02   0.02   0.17    -0.09  -0.03  -0.12    -0.12  -0.05   0.06
     2   6    -0.01   0.01  -0.15    -0.12   0.09   0.11    -0.19   0.10  -0.14
     3   6     0.26   0.03  -0.14     0.19  -0.13   0.10    -0.20   0.00  -0.09
     4   6    -0.02  -0.02  -0.02     0.06   0.09   0.11     0.04   0.08  -0.04
     5   6    -0.10  -0.09   0.01    -0.06  -0.02  -0.08     0.01  -0.12   0.10
     6   6     0.03  -0.09  -0.16     0.06  -0.06   0.01    -0.01  -0.10   0.03
     7   1    -0.29  -0.19  -0.02    -0.12   0.02  -0.12     0.16  -0.20   0.19
     8   1     0.35   0.13   0.00     0.21  -0.15   0.10    -0.33   0.07  -0.14
     9   1    -0.07  -0.19  -0.29     0.03  -0.04   0.01     0.11  -0.17   0.08
    10   1     0.02  -0.06  -0.21    -0.02   0.13   0.24    -0.25   0.14  -0.16
    11   1    -0.03   0.11  -0.21    -0.37   0.05  -0.04    -0.32   0.09  -0.22
    12   1    -0.00  -0.12   0.04     0.31   0.13   0.26     0.18   0.10   0.04
    13   6    -0.06   0.08   0.06    -0.09   0.04  -0.07     0.13   0.04  -0.02
    14   8    -0.06   0.06   0.19     0.07   0.04  -0.05     0.33   0.03   0.09
    15   1     0.37   0.02  -0.26     0.28  -0.16   0.17    -0.23   0.02  -0.15
    16   1    -0.09   0.17  -0.01    -0.35  -0.01  -0.23    -0.03   0.03  -0.11
                      4                      5                      6
                      A                      A                      A
 Frequencies --     44.2551                71.7617               103.8479
 Red. masses --      5.5399                 2.2694                 3.2112
 Frc consts  --      0.0064                 0.0069                 0.0204
 IR Inten    --      8.5935                 2.1464                 8.7346
  Atom  AN      X      Y      Z        X      Y      Z        X      Y      Z
     1   8     0.40  -0.08   0.07     0.05  -0.05   0.02    -0.07   0.01  -0.03
     2   6    -0.31   0.02  -0.03    -0.04   0.04   0.04    -0.12   0.04  -0.04
     3   6    -0.01   0.01  -0.01     0.06  -0.06   0.06     0.09  -0.03   0.02
     4   6    -0.13   0.01   0.03    -0.11   0.06  -0.07    -0.17   0.05  -0.08
     5   6     0.18   0.03  -0.01    -0.13   0.01  -0.06     0.16  -0.06   0.08
     6   6    -0.03   0.07  -0.05    -0.10  -0.00  -0.03     0.22  -0.08   0.09
     7   1     0.12   0.09  -0.06    -0.33   0.08  -0.17     0.35  -0.13   0.18
     8   1     0.16  -0.08   0.05     0.17  -0.11   0.11    -0.06   0.03  -0.06
     9   1    -0.19   0.16  -0.11    -0.19   0.04  -0.08     0.37  -0.13   0.17
    10   1    -0.31   0.06   0.01    -0.24   0.10  -0.07    -0.28   0.07  -0.15
    11   1    -0.47   0.00  -0.12     0.21  -0.03   0.23     0.07   0.01   0.09
    12   1     0.03   0.03   0.12    -0.36   0.13  -0.26    -0.36   0.08  -0.21
    13   6    -0.15  -0.03  -0.03     0.15  -0.00   0.07     0.02   0.02   0.04
    14   8     0.01  -0.03   0.03     0.09   0.01  -0.04    -0.12   0.04  -0.07
    15   1    -0.16   0.05  -0.03     0.09  -0.07   0.09     0.14  -0.04   0.02
    16   1    -0.33  -0.05  -0.14     0.41  -0.07   0.28     0.28  -0.01   0.24
                      7                      8                      9
                      A                      A                      A
 Frequencies --    180.7609               203.9774               291.7401
 Red. masses --      3.3510                 1.8246                 3.5538
 Frc consts  --      0.0645                 0.0447                 0.1782
 IR Inten    --      2.0051                 9.6361                 9.0246
  Atom  AN      X      Y      Z        X      Y      Z        X      Y      Z
     1   8     0.03  -0.01   0.01    -0.08   0.03  -0.04    -0.01  -0.25  -0.14
     2   6    -0.14   0.02  -0.11    -0.02   0.00  -0.01     0.00  -0.00   0.00
     3   6    -0.03   0.01  -0.02     0.06  -0.03   0.04     0.08   0.29   0.01
     4   6     0.22  -0.03   0.15     0.03  -0.00   0.01     0.00  -0.00  -0.00
     5   6    -0.06   0.02  -0.03     0.12  -0.03   0.06    -0.03  -0.03   0.05
     6   6     0.00  -0.00   0.00    -0.16   0.05  -0.08    -0.08  -0.01   0.12
     7   1    -0.18   0.05  -0.09     0.55  -0.16   0.28     0.09   0.17   0.01
     8   1    -0.09   0.03  -0.05     0.41  -0.15   0.22     0.08   0.63   0.24
     9   1     0.05  -0.02   0.03    -0.43   0.13  -0.23    -0.09  -0.13   0.03
    10   1    -0.28   0.04  -0.21    -0.05   0.01  -0.03    -0.00   0.00   0.00
    11   1    -0.33   0.06  -0.24    -0.02   0.00  -0.02     0.00  -0.00   0.00
    12   1     0.36  -0.06   0.26     0.03  -0.00   0.02    -0.00   0.00  -0.00
    13   6     0.18  -0.02   0.13     0.04  -0.01   0.02     0.00  -0.00   0.00
    14   8    -0.17   0.01  -0.11    -0.01  -0.00  -0.01     0.00  -0.00  -0.00
    15   1     0.01   0.00  -0.00    -0.10   0.02  -0.03     0.27   0.31  -0.32
    16   1     0.41  -0.03   0.29     0.09  -0.01   0.06     0.01  -0.00   0.00
                     10                     11                     12
                      A                      A                      A
 Frequencies --    324.1587               570.5402               578.6652
 Red. masses --      2.6932                 1.2442                 4.0035
 Frc consts  --      0.1667                 0.2386                 0.7898
 IR Inten    --     11.3178                10.8235                 9.6618
  Atom  AN      X      Y      Z        X      Y      Z        X      Y      Z
     1   8    -0.00  -0.00  -0.00     0.03  -0.00   0.01     0.01  -0.00   0.00
     2   6     0.10   0.09  -0.13     0.00   0.02  -0.00    -0.04  -0.25   0.02
     3   6     0.00   0.00   0.00     0.02  -0.01   0.01     0.00  -0.00   0.00
     4   6    -0.13   0.01   0.19     0.01   0.01   0.00    -0.05  -0.18  -0.02
     5   6     0.00  -0.00   0.00    -0.01  -0.00  -0.01    -0.00  -0.00  -0.00
     6   6    -0.00  -0.00   0.00    -0.12   0.03  -0.06    -0.03   0.01  -0.01
     7   1     0.00  -0.00   0.00     0.31  -0.10   0.16     0.07  -0.02   0.04
     8   1     0.00  -0.00   0.00    -0.39   0.13  -0.20    -0.09   0.03  -0.05
     9   1    -0.00   0.00  -0.00     0.31  -0.09   0.18     0.07  -0.02   0.04
    10   1     0.24  -0.22  -0.38    -0.01   0.01  -0.03     0.10  -0.14   0.29
    11   1     0.21   0.48  -0.22     0.02   0.03   0.01    -0.28  -0.43  -0.06
    12   1    -0.17  -0.17   0.24    -0.01   0.03  -0.01     0.02  -0.48   0.17
    13   6    -0.11  -0.05   0.13     0.00  -0.01  -0.01    -0.05   0.18   0.12
    14   8     0.10  -0.02  -0.13    -0.01  -0.02   0.01     0.12   0.25  -0.13
    15   1    -0.00   0.00  -0.00     0.61  -0.18   0.31     0.14  -0.04   0.07
    16   1    -0.20  -0.29   0.18    -0.02  -0.01  -0.03     0.06   0.09   0.24
                     13                     14                     15
                      A                      A                      A
 Frequencies --    610.7874               692.9727               924.8535
 Red. masses --      1.2315                 2.6974                 1.5216
 Frc consts  --      0.2707                 0.7632                 0.7668
 IR Inten    --     15.0843                12.6065                24.3256
  Atom  AN      X      Y      Z        X      Y      Z        X      Y      Z
     1   8     0.00  -0.00   0.00     0.05   0.18   0.01    -0.00  -0.00  -0.00
     2   6     0.02   0.03   0.01    -0.00   0.00  -0.00     0.07   0.08  -0.08
     3   6     0.00  -0.00  -0.00    -0.04  -0.01   0.06     0.00  -0.00  -0.00
     4   6    -0.10   0.04  -0.07     0.00   0.00   0.00     0.04   0.04  -0.05
     5   6    -0.00   0.00   0.00     0.07  -0.08  -0.18    -0.00   0.00   0.00
     6   6    -0.00   0.00  -0.00    -0.10  -0.18   0.11    -0.00  -0.00  -0.00
     7   1     0.00  -0.00   0.00     0.02  -0.15  -0.16     0.00   0.00   0.00
     8   1    -0.01  -0.00  -0.01    -0.04   0.51   0.42    -0.00   0.00   0.00
     9   1     0.01  -0.00   0.00    -0.14   0.01   0.22    -0.00  -0.00  -0.00
    10   1     0.54  -0.07   0.35     0.00   0.00   0.00    -0.16   0.60   0.35
    11   1    -0.39   0.12  -0.29    -0.00   0.00  -0.00    -0.14  -0.52   0.05
    12   1     0.30   0.02   0.19     0.00   0.00   0.00    -0.06  -0.27   0.01
    13   6     0.03  -0.03   0.00     0.00  -0.00  -0.00    -0.08  -0.04   0.10
    14   8    -0.01  -0.03   0.02     0.00  -0.00   0.00     0.00  -0.04  -0.01
    15   1     0.01  -0.00   0.01     0.23   0.03  -0.50     0.00  -0.00  -0.01
    16   1     0.36  -0.05   0.23     0.00  -0.00   0.00    -0.13  -0.18   0.14
                     16                     17                     18
                      A                      A                      A
 Frequencies --    947.1577              1010.0017              1020.7181
 Red. masses --      2.9703                 1.2705                 1.3479
 Frc consts  --      1.5700                 0.7636                 0.8274
 IR Inten    --     65.9680                65.0469                34.8921
  Atom  AN      X      Y      Z        X      Y      Z        X      Y      Z
     1   8     0.03   0.01  -0.05     0.00   0.00  -0.00    -0.01   0.00  -0.01
     2   6     0.00  -0.00   0.00    -0.12   0.02  -0.08     0.00  -0.00   0.00
     3   6    -0.00  -0.16  -0.09    -0.00   0.00  -0.00    -0.14   0.04  -0.07
     4   6    -0.00  -0.00  -0.00    -0.01   0.00  -0.01    -0.00   0.00  -0.00
     5   6    -0.01   0.29   0.18     0.00   0.00   0.00     0.05  -0.02   0.03
     6   6    -0.05  -0.15   0.01    -0.00  -0.00   0.00     0.03  -0.00   0.01
     7   1     0.12   0.57   0.11    -0.00   0.01  -0.00    -0.22   0.06  -0.11
     8   1    -0.02   0.11   0.08     0.02  -0.01   0.01     0.54  -0.16   0.29
     9   1    -0.06  -0.36  -0.12     0.01  -0.01   0.01    -0.02   0.03  -0.00
    10   1    -0.01  -0.01  -0.02     0.43  -0.05   0.31    -0.03   0.01  -0.02
    11   1     0.00   0.01  -0.00     0.61  -0.10   0.43    -0.01  -0.00  -0.00
    12   1     0.01   0.00   0.01     0.24  -0.04   0.17     0.02  -0.00   0.02
    13   6     0.00   0.00  -0.00     0.04  -0.00   0.03    -0.00  -0.00  -0.00
    14   8     0.00   0.00   0.00    -0.01   0.00  -0.01     0.00  -0.00  -0.00
    15   1     0.22  -0.15  -0.48     0.01  -0.00   0.00     0.61  -0.19   0.30
    16   1     0.00   0.00  -0.00    -0.17   0.01  -0.12     0.00  -0.00   0.00
                     19                     20                     21
                      A                      A                      A
 Frequencies --   1031.4563              1036.2582              1047.7194
 Red. masses --      1.2214                 1.1628                 1.6846
 Frc consts  --      0.7656                 0.7357                 1.0895
 IR Inten    --      9.0849                13.2238                 0.3397
  Atom  AN      X      Y      Z        X      Y      Z        X      Y      Z
     1   8     0.00  -0.00   0.00     0.02  -0.01   0.01     0.01  -0.00   0.00
     2   6     0.06  -0.01   0.04    -0.00  -0.00  -0.00    -0.03   0.01  -0.02
     3   6     0.00   0.00   0.00    -0.02   0.01  -0.01    -0.01   0.00  -0.00
     4   6    -0.09   0.01  -0.07     0.00  -0.00   0.00     0.07  -0.01   0.04
     5   6    -0.01   0.00  -0.01    -0.09   0.03  -0.05    -0.03   0.01  -0.02
     6   6    -0.00   0.00   0.00    -0.02   0.00  -0.01     0.02  -0.01   0.01
     7   1     0.05  -0.02   0.02     0.33  -0.09   0.17     0.13  -0.04   0.07
     8   1     0.03  -0.01   0.01     0.47  -0.14   0.25     0.05  -0.02   0.02
     9   1     0.05  -0.01   0.03     0.57  -0.17   0.31    -0.01  -0.00  -0.01
    10   1    -0.44   0.07  -0.31     0.04  -0.01   0.03    -0.07   0.02  -0.04
    11   1     0.15  -0.02   0.10    -0.05   0.01  -0.03     0.29  -0.04   0.20
    12   1     0.65  -0.08   0.45    -0.08   0.01  -0.05     0.13  -0.01   0.09
    13   6     0.02  -0.00   0.01     0.01  -0.00   0.01    -0.18   0.01  -0.12
    14   8    -0.01   0.00  -0.00    -0.00   0.00  -0.00     0.04  -0.00   0.03
    15   1    -0.04   0.01  -0.01    -0.21   0.07  -0.12     0.00  -0.00   0.01
    16   1    -0.05   0.00  -0.03    -0.05   0.01  -0.04     0.70  -0.06   0.51
                     22                     23                     24
                      A                      A                      A
 Frequencies --   1056.0353              1066.7069              1169.7374
 Red. masses --      1.6109                 1.5122                 1.8970
 Frc consts  --      1.0585                 1.0138                 1.5293
 IR Inten    --     12.4869                 4.5041                46.7198
  Atom  AN      X      Y      Z        X      Y      Z        X      Y      Z
     1   8     0.04   0.01   0.01    -0.02  -0.06   0.02    -0.00   0.00  -0.00
     2   6     0.00  -0.00   0.00    -0.00  -0.00   0.00    -0.02  -0.05   0.02
     3   6    -0.03   0.04  -0.02    -0.04  -0.11   0.00    -0.00   0.00   0.00
     4   6    -0.01   0.00  -0.01    -0.00   0.00  -0.00     0.10   0.02  -0.14
     5   6    -0.14   0.04  -0.08    -0.05   0.01   0.01     0.00  -0.00   0.00
     6   6     0.10  -0.06   0.08     0.10   0.11  -0.05    -0.00  -0.00  -0.00
     7   1     0.59  -0.14   0.27     0.09  -0.16   0.14    -0.00   0.00  -0.00
     8   1    -0.02  -0.08  -0.10    -0.08   0.36   0.29     0.00  -0.00  -0.00
     9   1    -0.52  -0.00  -0.34    -0.08   0.62   0.15     0.00  -0.00  -0.00
    10   1     0.02  -0.01   0.01     0.01  -0.00   0.00     0.05  -0.19  -0.10
    11   1    -0.04   0.01  -0.03    -0.00   0.00  -0.00     0.05   0.18  -0.03
    12   1    -0.03   0.00  -0.02     0.00   0.00  -0.00     0.32   0.73  -0.33
    13   6     0.03  -0.00   0.02     0.00  -0.00   0.00    -0.12  -0.04   0.17
    14   8    -0.01  -0.00  -0.00    -0.00   0.00  -0.00     0.02   0.01  -0.03
    15   1     0.14  -0.04   0.24     0.25  -0.09  -0.44    -0.00   0.00   0.00
    16   1    -0.10   0.01  -0.07    -0.02   0.00  -0.01    -0.17  -0.12   0.20
                     25                     26                     27
                      A                      A                      A
 Frequencies --   1288.6590              1304.7399              1390.2071
 Red. masses --      1.5383                 1.2897                 1.1665
 Frc consts  --      1.5051                 1.2936                 1.3283
 IR Inten    --      6.7559                 4.2392                16.5763
  Atom  AN      X      Y      Z        X      Y      Z        X      Y      Z
     1   8     0.00   0.00  -0.00    -0.01  -0.00   0.01    -0.00  -0.00  -0.00
     2   6     0.06  -0.06  -0.10     0.00  -0.00  -0.00     0.01   0.01  -0.01
     3   6    -0.00  -0.00   0.00     0.06   0.03  -0.09    -0.00   0.00  -0.00
     4   6    -0.10  -0.00   0.14     0.00   0.00   0.00    -0.02  -0.09   0.01
     5   6    -0.00  -0.00   0.00    -0.00   0.01   0.00     0.00   0.00   0.00
     6   6     0.00   0.00   0.00    -0.06  -0.06   0.07    -0.00  -0.00   0.00
     7   1     0.00   0.00  -0.00     0.06   0.16  -0.03    -0.00  -0.00   0.00
     8   1    -0.00  -0.00  -0.00     0.08  -0.37  -0.37     0.00  -0.00  -0.00
     9   1    -0.00  -0.00  -0.00    -0.11   0.62   0.51    -0.00  -0.00   0.00
    10   1    -0.01   0.10   0.04     0.00  -0.00  -0.00    -0.15   0.39   0.30
    11   1    -0.08  -0.54   0.00    -0.00  -0.00  -0.00     0.12   0.42  -0.09
    12   1     0.13   0.77  -0.04    -0.00   0.00  -0.00     0.04   0.08  -0.04
    13   6     0.02   0.00  -0.03     0.00  -0.00   0.00    -0.03  -0.02   0.04
    14   8    -0.00   0.01   0.00     0.00   0.00  -0.00     0.02  -0.03  -0.03
    15   1     0.00  -0.00  -0.00     0.05   0.01  -0.08     0.00   0.00  -0.00
    16   1     0.06   0.13  -0.07    -0.00  -0.00  -0.00     0.17   0.68  -0.16
                     28                     29                     30
                      A                      A                      A
 Frequencies --   1411.1870              1440.5480              1449.0889
 Red. masses --      1.1645                 1.2782                 1.2195
 Frc consts  --      1.3663                 1.5628                 1.5088
 IR Inten    --     35.4603                23.6162                12.2136
  Atom  AN      X      Y      Z        X      Y      Z        X      Y      Z
     1   8    -0.01  -0.00   0.02    -0.04  -0.01   0.07     0.00   0.00  -0.00
     2   6     0.00  -0.00  -0.00    -0.00   0.00   0.00    -0.01   0.04   0.02
     3   6     0.02  -0.01  -0.05    -0.01  -0.01   0.02     0.00   0.00  -0.00
     4   6    -0.00   0.00   0.00     0.00   0.00  -0.00     0.02   0.07  -0.02
     5   6    -0.00   0.01   0.01     0.00  -0.09  -0.06     0.00   0.00   0.00
     6   6     0.01  -0.08  -0.07     0.02   0.06  -0.00    -0.00  -0.00   0.00
     7   1     0.12   0.28  -0.07     0.39   0.80  -0.32    -0.01  -0.02   0.01
     8   1    -0.00   0.49   0.29    -0.01  -0.08  -0.03     0.00   0.00   0.00
     9   1    -0.01   0.25   0.14     0.03  -0.11  -0.12    -0.00   0.00   0.00
    10   1     0.00   0.00   0.00     0.00  -0.01  -0.01     0.17  -0.38  -0.32
    11   1     0.00  -0.00   0.00    -0.00  -0.01   0.00    -0.14  -0.42   0.12
    12   1     0.00   0.00  -0.00    -0.00  -0.01   0.00    -0.05  -0.16   0.04
    13   6    -0.00  -0.00   0.00    -0.00   0.00   0.00    -0.04  -0.02   0.06
    14   8     0.00  -0.00  -0.00     0.00  -0.00  -0.00     0.02  -0.05  -0.03
    15   1    -0.32  -0.03   0.61     0.10  -0.00  -0.19    -0.00   0.00   0.00
    16   1     0.00   0.00  -0.00     0.00   0.01  -0.00     0.15   0.65  -0.12
                     31                     32                     33
                      A                      A                      A
 Frequencies --   1714.0932              1720.3820              1851.4323
 Red. masses --      5.2499                 4.8612                 9.1180
 Frc consts  --      9.0880                 8.4770                18.4148
 IR Inten    --     73.7380                 2.0037                61.9441
  Atom  AN      X      Y      Z        X      Y      Z        X      Y      Z
     1   8     0.03   0.05  -0.04    -0.00  -0.00   0.00    -0.21  -0.24   0.27
     2   6     0.00  -0.02  -0.00    -0.00  -0.39  -0.08     0.00  -0.01  -0.00
     3   6     0.11  -0.20  -0.32    -0.01   0.01   0.02     0.03  -0.04  -0.08
     4   6     0.00   0.02   0.00     0.03   0.42   0.04     0.00   0.03   0.00
     5   6    -0.04  -0.12   0.02     0.00   0.01  -0.00     0.31   0.39  -0.39
     6   6    -0.10   0.28   0.34     0.01  -0.01  -0.02    -0.05   0.03   0.11
     7   1    -0.02  -0.09  -0.01     0.00   0.00   0.00    -0.05  -0.42  -0.13
     8   1     0.11   0.48   0.07    -0.01  -0.02  -0.00     0.04   0.12  -0.01
     9   1    -0.10  -0.39  -0.04     0.00   0.02   0.00    -0.06  -0.26  -0.04
    10   1    -0.02   0.00   0.02    -0.25   0.07   0.38     0.00  -0.00   0.01
    11   1     0.01   0.02  -0.02     0.26   0.35  -0.29     0.00   0.01  -0.01
    12   1    -0.01  -0.01   0.01    -0.20  -0.19   0.25    -0.02  -0.06   0.02
    13   6    -0.00   0.01   0.00    -0.01   0.04   0.02    -0.01  -0.21  -0.02
    14   8    -0.00  -0.01  -0.00    -0.00  -0.08  -0.01    -0.00   0.14   0.02
    15   1    -0.22  -0.29   0.25     0.01   0.01  -0.01    -0.08  -0.07   0.11
    16   1    -0.00   0.01   0.00     0.02   0.15   0.00     0.07   0.07  -0.09
                     34                     35                     36
                      A                      A                      A
 Frequencies --   1857.1465              2915.7286              2947.5531
 Red. masses --     10.0278                 1.0854                 1.0859
 Frc consts  --     20.3774                 5.4369                 5.5586
 IR Inten    --    411.6424                99.3562               145.0057
  Atom  AN      X      Y      Z        X      Y      Z        X      Y      Z
     1   8    -0.07  -0.09   0.10    -0.00  -0.00   0.00     0.00   0.00  -0.00
     2   6    -0.00   0.04   0.01     0.00   0.00  -0.00    -0.00   0.00   0.00
     3   6     0.01  -0.01  -0.02     0.00   0.00   0.00     0.00  -0.00  -0.00
     4   6    -0.01  -0.11  -0.00    -0.00  -0.00   0.00     0.00  -0.00   0.00
     5   6     0.11   0.14  -0.14    -0.00   0.00   0.00     0.03  -0.04  -0.07
     6   6    -0.02   0.00   0.03     0.00   0.00  -0.00    -0.00   0.00   0.00
     7   1    -0.02  -0.15  -0.04     0.01  -0.01  -0.02    -0.32   0.39   0.85
     8   1     0.01   0.04  -0.00     0.00   0.00  -0.00    -0.00  -0.00   0.01
     9   1    -0.01  -0.08  -0.01    -0.00  -0.00   0.00     0.02   0.01  -0.03
    10   1     0.02  -0.00  -0.03    -0.00   0.00   0.00    -0.00  -0.00   0.00
    11   1    -0.02  -0.05   0.03     0.00   0.01  -0.00     0.00  -0.00  -0.00
    12   1     0.07   0.20  -0.07     0.00  -0.00  -0.00     0.00  -0.00  -0.00
    13   6     0.02   0.67   0.06     0.04  -0.03  -0.07     0.00  -0.00  -0.00
    14   8     0.01  -0.44  -0.06    -0.00  -0.00   0.00    -0.00   0.00   0.00
    15   1    -0.02  -0.02   0.03    -0.00  -0.00  -0.00     0.00   0.00  -0.00
    16   1    -0.22  -0.21   0.28    -0.52   0.37   0.76    -0.01   0.01   0.01
                     37                     38                     39
                      A                      A                      A
 Frequencies --   3158.5432              3166.2917              3207.1892
 Red. masses --      1.0629                 1.0603                 1.0971
 Frc consts  --      6.2478                 6.2629                 6.6486
 IR Inten    --      3.6055                 3.5902                 4.1553
  Atom  AN      X      Y      Z        X      Y      Z        X      Y      Z
     1   8     0.00   0.00   0.00    -0.00  -0.00   0.00     0.00   0.00  -0.00
     2   6     0.01  -0.06  -0.03     0.00  -0.00  -0.00    -0.00   0.00   0.00
     3   6    -0.00   0.00   0.00     0.02  -0.02  -0.06    -0.01  -0.00   0.02
     4   6     0.00   0.01  -0.01     0.00  -0.00  -0.00    -0.00   0.00   0.00
     5   6     0.00  -0.00  -0.00     0.00   0.00  -0.00    -0.00  -0.00  -0.00
     6   6     0.00   0.00  -0.00     0.00   0.01  -0.00     0.05   0.04  -0.06
     7   1    -0.00   0.00   0.00     0.00  -0.00  -0.00    -0.01   0.02   0.03
     8   1     0.00   0.00  -0.00    -0.39  -0.37   0.52     0.09   0.09  -0.12
     9   1    -0.00  -0.00   0.00    -0.09  -0.08   0.11    -0.52  -0.46   0.69
    10   1     0.28   0.38  -0.32     0.00   0.00  -0.00    -0.00  -0.00   0.00
    11   1    -0.41   0.27   0.64    -0.00   0.00   0.00     0.00  -0.00  -0.00
    12   1    -0.05   0.04   0.08    -0.00   0.00   0.00     0.00  -0.00  -0.00
    13   6     0.00   0.00  -0.00     0.00   0.00  -0.00    -0.00   0.00   0.00
    14   8    -0.00  -0.00   0.00     0.00  -0.00   0.00     0.00  -0.00   0.00
    15   1    -0.00  -0.00  -0.00     0.14   0.61   0.10    -0.01  -0.03  -0.01
    16   1    -0.00  -0.00   0.00    -0.00   0.00   0.00     0.00  -0.00  -0.00
                     40                     41                     42
                      A                      A                      A
 Frequencies --   3212.7843              3271.2923              3280.3096
 Red. masses --      1.0969                 1.1171                 1.1188
 Frc consts  --      6.6707                 7.0431                 7.0930
 IR Inten    --      0.8778                 0.8285                 0.0224
  Atom  AN      X      Y      Z        X      Y      Z        X      Y      Z
     1   8     0.00   0.00  -0.00     0.00   0.00  -0.00     0.00   0.00  -0.00
     2   6    -0.01   0.01   0.01    -0.06  -0.03   0.07    -0.00  -0.00   0.00
     3   6    -0.00   0.00   0.00     0.00   0.00  -0.00    -0.04  -0.09   0.02
     4   6     0.04  -0.03  -0.07    -0.01   0.01   0.01     0.00  -0.00  -0.00
     5   6    -0.00  -0.00  -0.00    -0.00  -0.00   0.00    -0.00   0.00   0.00
     6   6     0.00   0.00  -0.00    -0.00  -0.00   0.00    -0.00  -0.00   0.01
     7   1    -0.00   0.00   0.00     0.00  -0.00  -0.00    -0.00  -0.00   0.00
     8   1     0.00   0.00  -0.00    -0.00  -0.00   0.00     0.33   0.30  -0.44
     9   1    -0.00  -0.00   0.00     0.00   0.00  -0.00     0.05   0.04  -0.06
    10   1     0.02   0.02  -0.02     0.40   0.56  -0.45     0.00   0.00  -0.00
    11   1     0.08  -0.05  -0.12     0.28  -0.19  -0.44     0.00  -0.00  -0.00
    12   1    -0.50   0.35   0.77     0.06  -0.04  -0.09    -0.00   0.00   0.00
    13   6    -0.00  -0.00   0.00     0.00   0.00  -0.00     0.00  -0.00  -0.00
    14   8     0.00   0.00  -0.00     0.00  -0.00  -0.00    -0.00   0.00   0.00
    15   1    -0.00  -0.00  -0.00    -0.00  -0.00  -0.00     0.16   0.74   0.12
    16   1    -0.00   0.00   0.00     0.00   0.00  -0.00    -0.00   0.00   0.00

 -------------------
 - Thermochemistry -
 -------------------
 Temperature   298.150 Kelvin.  Pressure   1.00000 Atm.
 Atom     1 has atomic number  8 and mass  15.99491
 Atom     2 has atomic number  6 and mass  12.00000
 Atom     3 has atomic number  6 and mass  12.00000
 Atom     4 has atomic number  6 and mass  12.00000
 Atom     5 has atomic number  6 and mass  12.00000
 Atom     6 has atomic number  6 and mass  12.00000
 Atom     7 has atomic number  1 and mass   1.00783
 Atom     8 has atomic number  1 and mass   1.00783
 Atom     9 has atomic number  1 and mass   1.00783
 Atom    10 has atomic number  1 and mass   1.00783
 Atom    11 has atomic number  1 and mass   1.00783
 Atom    12 has atomic number  1 and mass   1.00783
 Atom    13 has atomic number  6 and mass  12.00000
 Atom    14 has atomic number  8 and mass  15.99491
 Atom    15 has atomic number  1 and mass   1.00783
 Atom    16 has atomic number  1 and mass   1.00783
 Molecular mass:   112.05243 amu.
 Principal axes and moments of inertia in atomic units:
                           1         2         3
     Eigenvalues --   741.394061483.675892009.12827
           X            0.99780  -0.06534  -0.01099
           Y            0.06551   0.99772   0.01605
           Z            0.00992  -0.01673   0.99981
 This molecule is an asymmetric top.
 Rotational symmetry number  1.
 Warning -- assumption of classical behavior for rotation
           may cause significant error
 Rotational temperatures (Kelvin)      0.11683     0.05838     0.04311
 Rotational constants (GHZ):           2.43425     1.21640     0.89827
    1 imaginary frequencies ignored.
 Zero-point vibrational energy     326792.4 (Joules/Mol)
                                   78.10525 (Kcal/Mol)
 Warning -- explicit consideration of  12 degrees of freedom as
           vibrations may cause significant error
 Vibrational temperatures:     37.16    55.10    63.67   103.25   149.41
          (Kelvin)            260.07   293.48   419.75   466.39   820.88
                              832.57   878.79   997.03  1330.66  1362.75
                             1453.17  1468.59  1484.04  1490.94  1507.43
                             1519.40  1534.75  1682.99  1854.09  1877.23
                             2000.20  2030.38  2072.63  2084.92  2466.20
                             2475.25  2663.80  2672.02  4195.08  4240.87
                             4544.44  4555.59  4614.43  4622.48  4706.66
                             4719.63
 
 Zero-point correction=                           0.124469 (Hartree/Particle)
 Thermal correction to Energy=                    0.134390
 Thermal correction to Enthalpy=                  0.135334
 Thermal correction to Gibbs Free Energy=         0.086325
 Sum of electronic and zero-point Energies=           -383.289647
 Sum of electronic and thermal Energies=              -383.279726
 Sum of electronic and thermal Enthalpies=            -383.278782
 Sum of electronic and thermal Free Energies=         -383.327791
 
                     E (Thermal)             CV                S
                      KCal/Mol        Cal/Mol-Kelvin    Cal/Mol-Kelvin
 Total                   84.331             31.158            103.148
 Electronic               0.000              0.000              0.000
 Translational            0.889              2.981             40.057
 Rotational               0.889              2.981             29.182
 Vibrational             82.553             25.196             33.910
 Vibration     1          0.593              1.985              6.126
 Vibration     2          0.594              1.982              5.345
 Vibration     3          0.595              1.980              5.059
 Vibration     4          0.598              1.967              4.104
 Vibration     5          0.605              1.946              3.381
 Vibration     6          0.630              1.866              2.321
 Vibration     7          0.640              1.834              2.097
 Vibration     8          0.687              1.689              1.464
 Vibration     9          0.709              1.627              1.289
 Vibration    10          0.927              1.095              0.503
 Vibration    11          0.935              1.077              0.488
 Vibration    12          0.970              1.009              0.431
                       Q            Log10(Q)             Ln(Q)
 Total Bot       0.196503D-39        -39.706630        -91.427895
 Total V=0       0.350686D+18         17.544919         40.398668
 Vib (Bot)       0.792028D-53        -53.101259       -122.270168
 Vib (Bot)    1  0.801747D+01          0.904037          2.081623
 Vib (Bot)    2  0.540291D+01          0.732628          1.686938
 Vib (Bot)    3  0.467361D+01          0.669653          1.541933
 Vib (Bot)    4  0.287330D+01          0.458381          1.055460
 Vib (Bot)    5  0.197473D+01          0.295509          0.680434
 Vib (Bot)    6  0.111085D+01          0.045654          0.105123
 Vib (Bot)    7  0.976036D+00         -0.010534         -0.024256
 Vib (Bot)    8  0.654868D+00         -0.183846         -0.423322
 Vib (Bot)    9  0.578460D+00         -0.237727         -0.547386
 Vib (Bot)   10  0.269609D+00         -0.569265         -1.310781
 Vib (Bot)   11  0.263685D+00         -0.578914         -1.332999
 Vib (Bot)   12  0.241754D+00         -0.616626         -1.419833
 Vib (V=0)       0.141348D+05          4.150289          9.556394
 Vib (V=0)    1  0.853304D+01          0.931104          2.143946
 Vib (V=0)    2  0.592600D+01          0.772762          1.779349
 Vib (V=0)    3  0.520028D+01          0.716027          1.648713
 Vib (V=0)    4  0.341648D+01          0.533579          1.228610
 Vib (V=0)    5  0.253705D+01          0.404329          0.931003
 Vib (V=0)    6  0.171819D+01          0.235071          0.541270
 Vib (V=0)    7  0.159665D+01          0.203210          0.467909
 Vib (V=0)    8  0.132392D+01          0.121863          0.280601
 Vib (V=0)    9  0.126460D+01          0.101954          0.234757
 Vib (V=0)   10  0.106806D+01          0.028595          0.065841
 Vib (V=0)   11  0.106527D+01          0.027460          0.063228
 Vib (V=0)   12  0.105538D+01          0.023408          0.053899
 Electronic      0.100000D+01          0.000000          0.000000
 Translational   0.466215D+08          7.668586         17.657571
 Rotational      0.532162D+06          5.726044         13.184702
 ***** Axes restored to original set *****
 -------------------------------------------------------------------
 Center     Atomic                   Forces (Hartrees/Bohr)
 Number     Number              X              Y              Z
 -------------------------------------------------------------------
      1        8           0.000005514   -0.000005114   -0.000008328
      2        6           0.000002359    0.000000569    0.000002159
      3        6          -0.000000654   -0.000005548    0.000006394
      4        6          -0.000004826    0.000000338    0.000001856
      5        6          -0.000007586    0.000002992    0.000011495
      6        6          -0.000000112    0.000005168   -0.000006960
      7        1           0.000000682    0.000002266   -0.000002378
      8        1           0.000000936    0.000000482    0.000003685
      9        1           0.000001131    0.000000522    0.000000363
     10        1           0.000001997   -0.000001656   -0.000000559
     11        1           0.000000026   -0.000000170   -0.000000049
     12        1           0.000002726   -0.000002313   -0.000005281
     13        6          -0.000001711    0.000012697    0.000001048
     14        8           0.000000003   -0.000012034   -0.000001270
     15        1          -0.000000742    0.000003055   -0.000000542
     16        1           0.000000257   -0.000001255   -0.000001631
 -------------------------------------------------------------------
 Cartesian Forces:  Max     0.000012697 RMS     0.000004356

 GradGradGradGradGradGradGradGradGradGradGradGradGradGradGradGradGradGrad
 Berny optimization.
 Search for a local minimum.
 Step number   1 out of a maximum of    2
 All quantities printed in internal units (Hartrees-Bohrs-Radians)
 Second derivative matrix not updated -- analytic derivatives used.
 ITU=  0
     Eigenvalues ---   -0.00007   0.00008   0.00025   0.00055   0.00063
     Eigenvalues ---    0.00179   0.00351   0.00508   0.01172   0.01305
     Eigenvalues ---    0.02125   0.02229   0.04269   0.04649   0.06982
     Eigenvalues ---    0.07295   0.07451   0.07969   0.08177   0.09788
     Eigenvalues ---    0.14702   0.16004   0.16525   0.16736   0.17824
     Eigenvalues ---    0.18840   0.27009   0.27444   0.28429   0.28623
     Eigenvalues ---    0.45085   0.50681   0.62230   0.72472   0.84205
     Eigenvalues ---    0.86205   0.98622   1.02244   1.49519   1.51556
     Eigenvalues ---    1.76816   1.77465
 Eigenvalue     1 is  -6.91D-05 should be greater than     0.000000 Eigenvector:
                          X15       X8        Z14       Z9        X7
   1                    0.32724   0.32104   0.27819  -0.27432  -0.27284
                          Z15       X3        Z10       Y16       Y7
   1                   -0.25537   0.23147  -0.21994  -0.20988   0.19686
 Angle between quadratic step and forces=  85.54 degrees.
 Linear search not attempted -- first point.
 B after Tr=    -0.000146   -0.000005   -0.000505
         Rot=    1.000000   -0.000011    0.000009    0.000002 Ang=  -0.00 deg.
 Variable       Old X    -DE/DX   Delta X   Delta X   Delta X     New X
                                 (Linear)    (Quad)   (Total)
    X1       -4.35433   0.00001   0.00000  -0.00108  -0.00123  -4.35555
    Y1        2.33897  -0.00001   0.00000   0.00014   0.00014   2.33911
    Z1        0.18680  -0.00001   0.00000  -0.00357  -0.00410   0.18270
    X2        2.77841   0.00000   0.00000   0.00067   0.00053   2.77893
    Y2        3.60889   0.00000   0.00000  -0.00024  -0.00026   3.60862
    Z2        0.48254   0.00000   0.00000   0.00309   0.00272   0.48526
    X3       -3.40098  -0.00000   0.00000   0.00103   0.00085  -3.40013
    Y3       -2.89079  -0.00001   0.00000   0.00166   0.00164  -2.88915
    Z3        1.21884   0.00001   0.00000   0.00220   0.00156   1.22040
    X4        2.73096  -0.00000   0.00000   0.00016  -0.00000   2.73095
    Y4        1.14871   0.00000   0.00000  -0.00078  -0.00081   1.14789
    Z4        1.05182   0.00000   0.00000   0.00070   0.00028   1.05210
    X5       -3.21813  -0.00001   0.00000  -0.00074  -0.00086  -3.21899
    Y5        1.01917   0.00000   0.00000  -0.00107  -0.00104   1.01813
    Z5       -1.28904   0.00001   0.00000  -0.00220  -0.00274  -1.29178
    X6       -2.64195  -0.00000   0.00000   0.00005  -0.00009  -2.64204
    Y6       -1.69480   0.00001   0.00000  -0.00047  -0.00044  -1.69524
    Z6       -0.87118  -0.00001   0.00000   0.00061   0.00002  -0.87117
    X7       -2.51267   0.00000   0.00000  -0.00098  -0.00106  -2.51374
    Y7        1.81389   0.00000   0.00000  -0.00275  -0.00267   1.81122
    Z7       -3.11315  -0.00000   0.00000  -0.00304  -0.00355  -3.11670
    X8       -4.48118   0.00000   0.00000   0.00125   0.00104  -4.48014
    Y8       -1.87340   0.00000   0.00000   0.00297   0.00292  -1.87048
    Z8        2.65849   0.00000   0.00000   0.00145   0.00081   2.65930
    X9       -1.55305   0.00000   0.00000  -0.00005  -0.00016  -1.55322
    Y9       -2.66926   0.00000   0.00000  -0.00178  -0.00173  -2.67099
    Z9       -2.33296   0.00000   0.00000   0.00142   0.00082  -2.33214
   X10        1.77071   0.00000   0.00000   0.00125   0.00109   1.77180
   Y10        5.00932  -0.00000   0.00000  -0.00107  -0.00112   5.00820
   Z10        1.61530  -0.00000   0.00000   0.00463   0.00427   1.61957
   X11        3.82756   0.00000   0.00000   0.00054   0.00043   3.82800
   Y11        4.30213  -0.00000   0.00000   0.00108   0.00109   4.30322
   Z11       -1.16182  -0.00000   0.00000   0.00356   0.00323  -1.15859
   X12        1.68569   0.00000   0.00000   0.00031   0.00011   1.68580
   Y12        0.41319  -0.00000   0.00000  -0.00216  -0.00223   0.41095
   Z12        2.67617  -0.00001   0.00000   0.00015  -0.00032   2.67586
   X13        4.06189  -0.00000   0.00000  -0.00045  -0.00058   4.06131
   Y13       -0.71834   0.00001   0.00000   0.00048   0.00047  -0.71787
   Z13       -0.53744   0.00000   0.00000  -0.00125  -0.00170  -0.53914
   X14        4.00631   0.00000   0.00000  -0.00074  -0.00090   4.00542
   Y14       -2.97235  -0.00001   0.00000   0.00015   0.00014  -2.97221
   Z14       -0.19619  -0.00000   0.00000  -0.00332  -0.00381  -0.20000
   X15       -2.96649  -0.00000   0.00000   0.00171   0.00151  -2.96498
   Y15       -4.88088   0.00000   0.00000   0.00216   0.00213  -4.87875
   Z15        1.54939  -0.00000   0.00000   0.00427   0.00360   1.55298
   X16        5.15226   0.00000   0.00000  -0.00058  -0.00068   5.15158
   Y16        0.11529  -0.00000   0.00000   0.00175   0.00178   0.11707
   Z16       -2.14951  -0.00000   0.00000  -0.00068  -0.00109  -2.15059
         Item               Value     Threshold  Converged?
 Maximum Force            0.000013     0.000450     YES
 RMS     Force            0.000004     0.000300     YES
 Maximum Displacement     0.004267     0.001800     NO 
 RMS     Displacement     0.001814     0.001200     NO 
 Predicted change in Energy=-1.779223D-08
 GradGradGradGradGradGradGradGradGradGradGradGradGradGradGradGradGradGrad


 ----------------------------------------------------------------------

 Electric dipole moment (input orientation):
 (Debye = 10**-18 statcoulomb cm , SI units = C m)
                  (au)            (Debye)         (10**-30 SI)
   Tot        0.673604D+00      0.171213D+01      0.571105D+01
   x          0.372050D+00      0.945656D+00      0.315437D+01
   y          0.416652D+00      0.105902D+01      0.353252D+01
   z         -0.376461D+00     -0.956868D+00     -0.319177D+01

 Dipole polarizability, Alpha (input orientation).
 (esu units = cm**3 , SI units = C**2 m**2 J**-1)
 Alpha(0;0):
               (au)            (10**-24 esu)      (10**-40 SI)
   iso        0.756408D+02      0.112088D+02      0.124715D+02
   aniso      0.554121D+02      0.821122D+01      0.913621D+01
   xx         0.544670D+02      0.807118D+01      0.898040D+01
   yx        -0.373378D+01     -0.553289D+00     -0.615617D+00
   yy         0.103640D+03      0.153579D+02      0.170879D+02
   zx        -0.161800D+02     -0.239763D+01     -0.266772D+01
   zy        -0.104082D+02     -0.154234D+01     -0.171608D+01
   zz         0.688155D+02      0.101974D+02      0.113461D+02

 ----------------------------------------------------------------------

 Dipole orientation:
     8         -3.91162934         -2.83473905         -1.06265793
     6          1.71029755         -2.41272709          3.49715322
     6         -1.42869266          0.68206064         -4.34770125
     6          2.52572379         -0.91887104          1.63106640
     6         -3.52368226         -0.67698202         -0.42664889
     6         -2.23468449          1.23871053         -2.02064176
     1         -4.13795864          0.00623709          1.47401486
     1         -1.72531679         -1.21284940         -5.11961423
     1         -1.95270039          3.11681597         -1.20500355
     1          1.21854102         -4.39095776          3.17373364
     1          1.49398409         -1.68879402          5.42442674
     1          2.74337942         -1.59767449         -0.30902038
     6          3.12758470          1.76465515          2.09952773
     8          3.76534325          3.24220916          0.48391911
     1         -0.46052154          2.07448496         -5.52341259
     1          2.93149140          2.37171215          4.11835187

 Electric dipole moment (dipole orientation):
 (Debye = 10**-18 statcoulomb cm , SI units = C m)
                  (au)            (Debye)         (10**-30 SI)
   Tot        0.673604D+00      0.171213D+01      0.571105D+01
   x          0.000000D+00      0.000000D+00      0.000000D+00
   y          0.000000D+00      0.000000D+00      0.000000D+00
   z          0.673604D+00      0.171213D+01      0.571105D+01

 Dipole polarizability, Alpha (dipole orientation).
 (esu units = cm**3 , SI units = C**2 m**2 J**-1)
 Alpha(0;0):
               (au)            (10**-24 esu)      (10**-40 SI)
   iso        0.756408D+02      0.112088D+02      0.124715D+02
   aniso      0.554121D+02      0.821122D+01      0.913621D+01
   xx         0.506664D+02      0.750799D+01      0.835377D+01
   yx         0.146930D+02      0.217727D+01      0.242254D+01
   yy         0.838604D+02      0.124268D+02      0.138267D+02
   zx        -0.149940D+02     -0.222188D+01     -0.247218D+01
   zy        -0.983832D+01     -0.145789D+01     -0.162212D+01
   zz         0.923956D+02      0.136916D+02      0.152340D+02

 ----------------------------------------------------------------------
 Unable to Open any file for archive entry.
 1\1\GINC-NODE-007\Freq\RwB97XD\def2SVP\C6H8O2\JP2658\30-Dec-2023\0\\# 
 wb97xd def2svp scrf=(iefpcm,solvent=toluene) freq=noraman\\da-1_1_opt_
 dft_reopt2.out\\0,1\O,-2.30421,1.23773,0.09885\C,1.47027,1.90974,0.255
 35\C,-1.79972,-1.52974,0.64498\C,1.44516,0.60787,0.5566\C,-1.70296,0.5
 3932,-0.68213\C,-1.39806,-0.89685,-0.46101\H,-1.32965,0.95987,-1.64741
 \H,-2.37134,-0.99136,1.40681\H,-0.82184,-1.41251,-1.23455\H,0.93702,2.
 65082,0.85478\H,2.02546,2.27659,-0.61481\H,0.89203,0.21865,1.41617\C,2
 .14946,-0.38013,-0.2844\O,2.12005,-1.5729,-0.10382\H,-1.5698,-2.58285,
 0.8199\H,2.72646,0.06101,-1.13747\\Version=ES64L-G16RevC.01\State=1-A\
 HF=-383.4141157\RMSD=8.340e-09\RMSF=4.356e-06\ZeroPoint=0.1244686\Ther
 mal=0.1343898\ETot=-383.2797259\HTot=-383.2787818\GTot=-383.3277909\Di
 pole=0.3720495,0.416652,-0.3764608\DipoleDeriv=-0.5850281,0.3222029,0.
 1380601,0.1908856,-0.9370823,-0.0364953,0.2160345,-0.2971831,-0.617375
 1,-0.1285061,-0.0021727,-0.1233446,-0.0111922,0.1854731,-0.010205,-0.1
 357387,-0.0985053,-0.0144786,-0.1155019,-0.002767,-0.1074773,-0.041861
 6,0.0687693,-0.0328717,-0.1180403,-0.180222,0.0732767,-0.2331944,0.251
 8153,-0.0051335,0.0834715,-0.544049,-0.1141757,0.0033673,-0.2973873,-0
 .1516838,0.5341611,-0.2600724,-0.2094655,-0.1607128,1.3764632,-0.30638
 32,-0.2478007,-0.0855754,0.8554967,-0.154438,-0.1512363,-0.075944,-0.0
 845117,-0.6066095,0.3091442,-0.0938433,0.4442406,-0.264624,0.0072814,-
 0.041653,0.1093213,-0.0362458,-0.0313561,0.1055782,0.0997211,0.1198257
 ,-0.2071925,0.1088959,0.0244665,0.0561,0.0555829,0.0756493,-0.0628329,
 0.04325,0.0019613,0.0627245,0.0989742,0.0588619,0.09084,0.0434012,0.04
 93353,-0.0099657,0.1005015,-0.0059961,0.0083485,0.099798,0.0500798,0.0
 499529,0.0238468,0.0514347,-0.0132448,0.0563936,-0.0346871,0.0660457,0
 .0906634,-0.0233828,0.0867675,0.0094741,0.0806454,-0.0020137,0.0900733
 ,0.0579522,0.0168736,0.1040414,0.0041692,0.0889839,-0.0022271,0.032483
 8,0.0411829,0.1049855,0.01761,0.0326436,0.5902474,-0.3186481,-0.306471
 ,-0.0783156,1.5784966,-0.0403534,-0.3637119,0.2727278,0.6609165,-0.497
 3817,0.0659296,0.0760928,0.0576338,-1.3626097,0.0397711,0.0757502,0.03
 66766,-0.4714032,0.1193772,0.0467619,0.0084952,0.0238212,-0.0049947,0.
 0329378,0.0216315,0.0113279,0.0847192,-0.0393898,-0.0243549,0.1232221,
 -0.0730504,-0.0120494,0.0999271,0.1474265,0.0372341,-0.1342878\Polar=5
 4.4670187,-3.7337787,103.6399916,-16.1799893,-10.408224,68.8154766\Qua
 drupole=-3.5820689,-0.1497019,3.7317708,9.0219945,-0.5669212,-1.515121
 9\PG=C01 [X(C6H8O2)]\NImag=1\\0.24034683,-0.24474188,0.35400191,-0.282
 95034,0.29203296,0.41278176,-0.00024337,-0.00011756,-0.00005930,0.3046
 1088,0.00041955,-0.00015379,-0.00021613,-0.05606769,0.86661230,-0.0000
 9809,-0.00047490,-0.00018108,-0.24712152,-0.07406308,0.48977018,-0.002
 79082,0.00321163,0.00225853,-0.00000852,0.00005734,0.00002745,0.288499
 95,-0.00290079,0.00223773,0.00396864,0.00011095,0.00003944,0.00000412,
 -0.08861627,0.68680628,0.00552853,-0.00790072,-0.00707877,-0.00031676,
 0.00009156,-0.00003913,-0.25691333,-0.15348329,0.68954700,-0.00031408,
 -0.00080177,-0.00042080,-0.07559340,-0.00813510,0.03567901,-0.00024834
 ,-0.00017243,-0.00052316,0.29045299,-0.00034535,0.00043153,0.00045580,
 -0.00263699,-0.55198141,0.10741425,-0.00034036,-0.00010570,-0.00042769
 ,-0.00193482,0.84210937,-0.00004442,0.00064112,0.00026823,0.03452262,0
 .11369826,-0.12423173,-0.00024416,0.00008155,-0.00057289,-0.24578373,-
 0.13506112,0.49588828,-0.24747107,0.20230373,0.24370198,-0.00046817,-0
 .00068163,-0.00032669,0.01097807,-0.00764056,-0.00497304,-0.00071480,0
 .00047977,-0.00006297,0.40623023,0.20011730,-0.32006134,-0.24631079,-0
 .00001353,-0.00019392,0.00084752,-0.00397934,-0.02289023,0.02442387,0.
 00158063,-0.00042720,-0.00131191,-0.19518847,0.66388323,0.24541047,-0.
 25155934,-0.40226973,-0.00012674,0.00010723,-0.00002246,-0.00698719,0.
 03004238,0.00255502,-0.00021076,-0.00024268,-0.00001898,-0.30411375,0.
 11387012,0.72343834,0.00569019,0.03283186,0.00540692,-0.00027417,-0.00
 000056,0.00021581,-0.11494946,-0.05365200,0.14422031,-0.00066195,-0.00
 049581,-0.00102873,-0.09005950,0.03056678,0.00628109,0.29663436,0.0323
 6774,-0.04800296,-0.02657988,-0.00024945,0.00001105,-0.00035598,-0.048
 49341,-0.21002006,0.17728939,-0.00092725,-0.00034542,-0.00003583,0.014
 88345,-0.20745716,0.04594634,-0.07680719,0.58725583,0.00521264,-0.0265
 0564,0.02257182,0.00030200,-0.00006763,0.00023036,0.14106438,0.1865300
 5,-0.42216723,0.00050503,0.00002766,-0.00012589,0.01537709,0.01624646,
 -0.11634827,-0.28890907,-0.11828170,0.72134731,0.00267069,0.00404067,0
 .03314500,-0.00003813,0.00011125,-0.00014449,0.00087513,0.00137165,-0.
 00015972,-0.00014605,-0.00004160,0.00002362,-0.07878080,-0.03148541,0.
 05163353,0.01670054,0.00622610,0.00198091,0.06002253,0.01262593,0.0199
 3341,-0.02426839,-0.00007146,0.00017491,-0.00013576,0.00220305,-0.0061
 2961,-0.00001514,-0.00025569,-0.00013592,0.00005381,-0.02767475,-0.110
 58212,0.08198446,-0.00672110,-0.00599933,0.02720242,0.02050076,0.10313
 014,0.02814737,-0.00732180,-0.03010009,0.00000451,-0.00008176,0.000021
 67,-0.00070098,0.00166770,0.00147846,0.00019284,-0.00001384,-0.0000971
 2,0.04963271,0.08839445,-0.20807292,0.00927137,0.00247364,0.00050944,-
 0.08548482,-0.08526850,0.23690839,0.00109677,0.00023001,-0.00074872,0.
 00004603,-0.00001600,-0.00004136,-0.12468110,0.07797352,0.11136464,0.0
 0008746,0.00000193,0.00012963,-0.00720932,-0.00059613,-0.00326222,0.00
 179202,0.00568858,0.00734018,0.00049160,0.00011112,0.00035958,0.117858
 60,0.00051034,-0.00012889,-0.00021232,0.00000457,-0.00000752,0.0000184
 0,0.08040818,-0.12834167,-0.10063856,0.00006703,-0.00000705,-0.0000032
 2,-0.00241400,-0.00104448,-0.00019180,-0.00777843,0.01361048,0.0111869
 4,0.00045643,0.00023438,-0.00061852,-0.08539699,0.12223555,-0.00080996
 ,0.00016515,0.00210675,-0.00001182,0.00000005,0.00001205,0.10987219,-0
 .09653581,-0.19189166,-0.00001732,0.00003838,-0.00000400,-0.00220855,-
 0.00356887,-0.00318365,0.01505788,-0.01358967,-0.01272455,0.00016478,0
 .00009900,0.00035178,-0.12435294,0.10415618,0.19862560,0.00152240,0.00
 224207,0.00072061,-0.00000894,0.00000725,0.00004149,0.00119174,0.00575
 513,0.00552333,-0.00011476,0.00008992,0.00006419,-0.00074834,-0.002101
 11,0.00390406,-0.12386476,0.07652112,0.11389247,-0.00055598,0.00002924
 ,-0.00055588,0.00835408,0.00171103,0.00501639,0.12095200,0.00217894,-0
 .00801189,0.00166448,0.00003036,-0.00002984,0.00003555,-0.00956298,0.0
 1159843,0.01466871,-0.00001859,0.00001549,-0.00003001,0.01396595,-0.00
 350857,-0.02351332,0.07675852,-0.12245127,-0.09503795,-0.00084916,0.00
 016104,0.00087284,0.00157628,-0.00066887,0.00406399,-0.08200701,0.1228
 7178,0.00080510,0.00161990,0.00038842,-0.00003970,-0.00007922,0.000100
 88,0.01411198,-0.01367511,-0.01252479,-0.00002025,0.00021902,-0.000062
 96,-0.00477985,0.00582821,0.00641684,0.11315096,-0.09412107,-0.1950886
 3,-0.00013310,-0.00065649,-0.00030417,0.00517644,0.00373355,-0.0000996
 9,-0.12496748,0.09855678,0.20209771,0.00001171,0.00030356,0.00030093,-
 0.11855349,0.10164239,0.08886494,-0.00006160,-0.00000333,-0.00004152,0
 .00872374,-0.00348831,0.00224804,0.00020479,-0.00038052,-0.00019819,-0
 .00009947,0.00002864,-0.00004806,0.00002026,0.00002402,0.00001758,-0.0
 0000080,-0.00001289,0.00000640,0.00000250,0.00000913,0.00000047,0.1088
 4944,0.00005142,0.00028135,0.00031043,0.09806698,-0.18859424,-0.107888
 21,-0.00001364,0.00002004,0.00001100,0.01620310,-0.01327602,-0.0183036
 1,0.00015968,-0.00041350,-0.00027574,-0.00000551,0.00005362,-0.0000798
 1,-0.00001248,0.00000709,0.00001104,-0.00001094,-0.00001270,0.00000995
 ,0.00000163,0.00002644,0.00002906,-0.10759233,0.19583593,0.00008273,0.
 00033558,0.00013378,0.08938604,-0.11212053,-0.14447765,-0.00005998,0.0
 0001536,-0.00000109,-0.00205830,0.00861553,0.01102006,0.00010425,-0.00
 046027,-0.00007826,-0.00006064,0.00005190,-0.00010112,0.00005257,0.000
 01306,-0.00003795,0.00001277,-0.00000786,0.00000898,0.00000204,0.00001
 300,-0.00000890,-0.09760482,0.11630561,0.13840266,0.00003766,-0.000018
 69,-0.00022546,-0.12009943,-0.04578761,0.12506566,0.00003574,0.0000148
 5,0.00012827,0.00558658,0.00029882,0.00092016,-0.00011471,-0.00008902,
 0.00040641,0.00012901,0.00016473,-0.00014422,0.00004338,0.00003132,-0.
 00010438,-0.00000329,-0.00000354,-0.00000208,-0.00000250,-0.00001212,0
 .00000186,-0.00135275,-0.00588806,0.00930295,0.11312881,0.00001316,0.0
 0006218,-0.00000166,-0.04381522,-0.08740192,0.07253006,-0.00000005,0.0
 0001334,-0.00002100,-0.01617837,-0.00433624,0.02528264,0.00001751,-0.0
 0018094,0.00009322,-0.00003457,0.00007044,-0.00003051,0.00000918,0.000
 03567,-0.00002746,0.00001401,-0.00000518,-0.00000472,-0.00000021,-0.00
 000621,-0.00000048,0.00968171,0.00891049,-0.01485952,0.04991789,0.0864
 8889,0.00002005,0.00000703,0.00005273,0.12461893,0.07541645,-0.2330261
 6,0.00005677,-0.00001054,0.00010960,0.00478596,0.00198796,-0.00079541,
 0.00000461,0.00003563,-0.00010373,0.00011179,0.00006366,-0.00002477,-0
 .00000185,-0.00000119,0.00001894,-0.00002588,-0.00000467,-0.00000014,-
 0.00001285,-0.00000179,-0.00000856,0.00593786,0.00743637,-0.00593524,-
 0.13642534,-0.08387882,0.23728010,0.00017122,0.00003307,0.00029502,0.0
 0584272,0.00257187,-0.00064599,-0.00018976,-0.00015493,-0.00020611,-0.
 12017835,-0.05027536,0.12514417,0.00013406,-0.00009667,-0.00034072,-0.
 00059166,-0.00030269,-0.00026571,-0.00006998,0.00000005,0.00002250,-0.
 00006760,-0.00000083,0.00003540,0.00003268,0.00002111,0.00003735,-0.00
 466798,-0.00086213,-0.00377443,0.00755209,0.00173874,0.00465746,0.1150
 2853,0.00006981,-0.00025952,-0.00028584,-0.01580902,-0.00571287,0.0246
 8239,-0.00020675,-0.00005025,-0.00002938,-0.04899651,-0.09005532,0.079
 31883,-0.00009290,0.00037204,0.00026144,-0.00032634,-0.00028529,-0.000
 09716,0.00003201,-0.00001018,-0.00000116,0.00000147,0.00003288,-0.0000
 0049,0.00003272,-0.00001709,-0.00001712,-0.00067881,0.00091392,-0.0005
 5850,0.00119100,-0.00418852,0.00127611,0.05335789,0.09063336,0.0001666
 1,-0.00007313,0.00016803,0.00317755,-0.00119428,0.00159971,-0.00000475
 ,-0.00008992,0.00048074,0.12361910,0.08045228,-0.23183728,-0.00017497,
 0.00035768,-0.00047643,0.00039564,0.00007517,-0.00021701,-0.00004771,-
 0.00003654,0.00004322,-0.00005645,-0.00001897,0.00000907,0.00001383,-0
 .00002028,-0.00005192,-0.00386695,-0.00052137,-0.00205918,0.00490379,0
 .00079025,0.00426590,-0.13567869,-0.08763244,0.23625028,0.00031945,0.0
 0012869,0.00005014,0.00643853,0.00413712,-0.00438878,0.00014308,-0.000
 18206,0.00046139,-0.13176909,0.03909635,0.06659022,-0.00070884,-0.0001
 8364,-0.00031040,0.00016822,0.00054930,-0.00012117,0.00011724,0.000078
 97,-0.00007587,-0.00008108,-0.00002195,-0.00003319,-0.00085388,-0.0004
 2371,-0.00040989,0.00970154,-0.00091653,0.00738871,-0.00615541,-0.0027
 7098,-0.00461488,-0.00372927,0.01141735,0.00781067,0.32911396,0.000106
 25,-0.00205738,-0.00088942,0.01411265,-0.04101690,-0.01203454,0.000409
 72,-0.00034439,-0.00029793,0.03460759,-0.11566421,-0.04342561,0.000326
 29,0.00357312,-0.00017567,-0.00009041,-0.00012809,0.00204786,-0.000158
 44,-0.00033552,0.00043729,0.00008042,0.00004105,-0.00017245,-0.0006153
 8,-0.00038419,-0.00131075,0.00105945,-0.00178798,0.00174836,0.00163405
 ,-0.00029310,-0.00420043,-0.00802780,0.00965080,0.01051724,0.00501809,
 1.00728520,-0.00009708,-0.00047880,-0.00063127,-0.00705974,0.00240706,
 0.01262114,0.00005203,-0.00007830,-0.00037056,0.06802294,-0.04918538,-
 0.16764134,0.00004423,0.00051846,0.00086996,-0.00038168,0.00001239,0.0
 0025181,-0.00005136,0.00008792,-0.00006116,0.00006534,0.00002743,-0.00
 005134,-0.00025924,-0.00009809,0.00006338,0.00676684,0.00490631,0.0037
 9186,-0.00521391,0.00185983,-0.00248155,0.01125392,-0.01744615,-0.0094
 3884,-0.18800523,-0.10613189,0.46634493,-0.00033327,0.00055493,0.00017
 231,-0.00080979,0.00245224,0.00356332,-0.00021630,0.00027357,-0.000260
 45,0.02073113,0.02529441,-0.00149346,0.00030052,-0.00098582,0.00037824
 ,-0.00071908,-0.00007951,-0.00061241,0.00001899,0.00007358,-0.00009152
 ,0.00004075,0.00001864,0.00005063,-0.00038114,0.00023072,0.00054000,-0
 .00218543,0.00066222,-0.00200361,0.00107729,0.00068192,0.00088163,0.00
 026572,-0.00206379,-0.00247565,-0.08046591,-0.01922981,0.02546989,0.04
 581307,-0.00002859,0.00146023,0.00056685,0.00597970,0.00646126,-0.0092
 1985,-0.00013672,0.00011799,0.00024507,0.01382106,-0.07324565,-0.00643
 397,-0.00027798,-0.00251725,0.00017260,-0.00001996,0.00027238,-0.00146
 165,0.00010775,0.00021798,-0.00031348,-0.00005064,-0.00001573,0.000097
 62,0.00024917,0.00013729,0.00088512,-0.00038173,-0.00208732,0.00071125
 ,-0.00083591,0.00104388,0.00103964,0.00023293,0.00144113,-0.00096120,-
 0.02205127,-0.78457144,0.11467918,0.01401603,0.88518317,0.00001553,0.0
 0006596,0.00019996,0.00354448,-0.00423324,-0.00200196,-0.00009846,0.00
 010232,0.00006953,-0.00043677,-0.02338582,0.02533240,-0.00007835,0.000
 12939,-0.00032365,0.00025795,-0.00030991,-0.00015258,-0.00000207,-0.00
 006921,0.00007277,-0.00004216,-0.00000520,0.00004366,0.00004640,0.0000
 6798,0.00006548,-0.00164083,-0.00143891,-0.00059086,0.00104879,-0.0006
 9680,0.00033784,-0.00296242,0.00273870,0.00188817,0.02577049,0.1118251
 2,-0.11347876,-0.03068772,-0.12146285,0.08067976,-0.00071998,-0.000146
 30,-0.00150780,-0.00001677,-0.00000135,-0.00002627,-0.05861525,0.06784
 477,-0.00380699,-0.00005917,0.00005748,0.00006597,0.00840501,0.0028375
 9,0.00729297,0.01017935,-0.00966250,0.00442823,-0.00138072,-0.00098801
 ,-0.00059400,0.00224948,0.01244863,-0.00275633,-0.00552279,-0.00186284
 ,-0.00343608,0.00000536,0.00000276,0.00000745,0.00000923,0.00000541,-0
 .00000855,0.00001995,-0.00000270,-0.00001367,0.00003541,-0.00027372,0.
 00002199,0.00016731,0.00027741,-0.00006217,0.04524270,-0.00040855,0.00
 020706,-0.00024955,-0.00000876,-0.00000252,-0.00002814,0.06508409,-0.3
 3294071,0.04610994,-0.00006281,0.00005688,0.00006535,0.00180805,0.0015
 6132,0.00343239,0.00579679,-0.00660168,-0.00161664,-0.00030186,-0.0007
 1856,-0.00019745,0.00039375,-0.00592866,0.00523820,-0.00192456,0.00025
 990,-0.00110409,0.00000930,0.00001151,0.00000783,0.00000889,0.00001037
 ,-0.00000534,0.00004236,-0.00003994,0.00000243,0.00000630,-0.00026329,
 0.00004232,0.00013449,0.00019415,-0.00009342,-0.07058297,0.34416061,-0
 .00142774,-0.00053625,0.00143063,0.00001854,-0.00000153,-0.00003076,-0
 .00247136,0.04147043,-0.05969165,-0.00000818,-0.00002189,0.00001181,0.
 00787065,0.00083443,-0.00204360,-0.00409190,0.02742487,0.00200708,-0.0
 0097190,0.00106236,-0.00078717,0.00411704,-0.01740982,0.00678805,-0.00
 341508,-0.00125961,-0.00090793,0.00000225,-0.00000286,-0.00000389,-0.0
 0000596,0.00000424,-0.00000084,0.00001775,-0.00002331,-0.00001082,-0.0
 0003000,0.00015363,0.00003781,-0.00005568,-0.00012513,-0.00006851,0.00
 044446,-0.05156533,0.05326551,0.00000566,-0.00005401,-0.00013902,-0.00
 082398,-0.00070905,-0.00066451,0.00003744,-0.00002207,-0.00002537,0.00
 421807,-0.00576007,0.01894885,0.00002288,-0.00000264,0.00024319,-0.000
 07364,0.00009235,-0.00000230,0.00001129,0.00003297,-0.00004103,0.00002
 640,0.00000377,-0.00001148,-0.00000232,-0.00003461,-0.00003781,-0.0005
 9782,0.00015384,-0.00077773,0.00012834,0.00071988,0.00001430,0.0004476
 2,0.00207458,0.00223165,-0.12227396,-0.02895896,0.08937108,0.01669614,
 -0.01090125,0.00532729,0.00000086,0.00000548,0.00000712,0.10217702,-0.
 00003526,0.00006036,0.00001483,0.00048447,0.00179598,-0.00133184,-0.00
 002447,-0.00001063,-0.00002583,0.01120393,0.00696685,-0.01453629,0.000
 02586,-0.00011301,0.00004836,-0.00002208,0.00001747,-0.00006271,-0.000
 00686,0.00001662,-0.00001297,-0.00000038,0.00000640,0.00000347,0.00000
 900,0.00000756,0.00009267,-0.00022027,0.00011138,0.00018921,-0.0006266
 0,-0.00022316,0.00083994,0.00172239,-0.00242516,-0.00164692,-0.0338820
 4,-0.07370369,0.04887772,-0.02203384,-0.03409208,0.03676590,0.00004636
 ,0.00003357,-0.00000422,0.04335979,0.10155156,0.00003861,-0.00001710,0
 .00015884,-0.00083908,0.00033680,-0.00034505,0.00003687,-0.00000960,0.
 00009742,0.01667439,0.00912753,-0.00713319,-0.00001734,0.00016561,-0.0
 0033847,0.00010229,-0.00006333,0.00003223,-0.00000341,-0.00005182,0.00
 005592,-0.00003590,-0.00001156,0.00000910,-0.00001428,0.00001771,-0.00
 007515,-0.00074494,-0.00050927,-0.00006317,0.00034346,-0.00103928,0.00
 031130,0.00241050,-0.00218592,-0.00061364,0.08991779,0.04190920,-0.189
 82607,0.00662448,0.02158082,0.00792676,-0.00004922,-0.00003850,0.00000
 429,-0.11444422,-0.06921131,0.18979889\\-0.00000551,0.00000511,0.00000
 833,-0.00000236,-0.00000057,-0.00000216,0.00000065,0.00000555,-0.00000
 639,0.00000483,-0.00000034,-0.00000186,0.00000759,-0.00000299,-0.00001
 149,0.00000011,-0.00000517,0.00000696,-0.00000068,-0.00000227,0.000002
 38,-0.00000094,-0.00000048,-0.00000368,-0.00000113,-0.00000052,-0.0000
 0036,-0.00000200,0.00000166,0.00000056,-0.00000003,0.00000017,0.000000
 05,-0.00000273,0.00000231,0.00000528,0.00000171,-0.00001270,-0.0000010
 5,0.,0.00001203,0.00000127,0.00000074,-0.00000305,0.00000054,-0.000000
 26,0.00000126,0.00000163\\\@
 The archive entry for this job was punched.


 A MAN SHOULD NEVER BE ASHAMED TO OWN HE HAS BEEN IN THE WRONG
 WHICH IS BUT SAYING IN OTHER WORDS,
 THAT HE IS WISER TODAY THAN HE WAS YESTERDAY.

                          -- JONATHAN SWIFT
 Job cpu time:       0 days  0 hours  8 minutes 31.9 seconds.
 Elapsed time:       0 days  0 hours  0 minutes 43.2 seconds.
 File lengths (MBytes):  RWF=     90 Int=      0 D2E=      0 Chk=      7 Scr=      1
 Normal termination of Gaussian 16 at Sat Dec 30 22:30:18 2023.
