Unloading slurm/anatra/current
  ERROR: No such file or directory on
    '/cm/local/modulefiles/slurm/anatra/current'
environment: line 0: unalias: gv: not found
environment: line 0: unalias: sl: not found
 Entering Gaussian System, Link 0=g16
 Initial command:
 /apps/gaussian/g16/C.01/g16/l1.exe "/local/jobs/1153197/Gau-1750714.inp" -scrdir="/local/jobs/1153197/"
 Entering Link 1 = /apps/gaussian/g16/C.01/g16/l1.exe PID=   1750715.
  
 Copyright (c) 1988-2019, Gaussian, Inc.  All Rights Reserved.
  
 This is part of the Gaussian(R) 16 program.  It is based on
 the Gaussian(R) 09 system (copyright 2009, Gaussian, Inc.),
 the Gaussian(R) 03 system (copyright 2003, Gaussian, Inc.),
 the Gaussian(R) 98 system (copyright 1998, Gaussian, Inc.),
 the Gaussian(R) 94 system (copyright 1995, Gaussian, Inc.),
 the Gaussian 92(TM) system (copyright 1992, Gaussian, Inc.),
 the Gaussian 90(TM) system (copyright 1990, Gaussian, Inc.),
 the Gaussian 88(TM) system (copyright 1988, Gaussian, Inc.),
 the Gaussian 86(TM) system (copyright 1986, Carnegie Mellon
 University), and the Gaussian 82(TM) system (copyright 1983,
 Carnegie Mellon University). Gaussian is a federally registered
 trademark of Gaussian, Inc.
  
 This software contains proprietary and confidential information,
 including trade secrets, belonging to Gaussian, Inc.
  
 This software is provided under written license and may be
 used, copied, transmitted, or stored only in accord with that
 written license.
  
 The following legend is applicable only to US Government
 contracts under FAR:
  
                    RESTRICTED RIGHTS LEGEND
  
 Use, reproduction and disclosure by the US Government is
 subject to restrictions as set forth in subparagraphs (a)
 and (c) of the Commercial Computer Software - Restricted
 Rights clause in FAR 52.227-19.
  
 Gaussian, Inc.
 340 Quinnipiac St., Bldg. 40, Wallingford CT 06492
  
  
 ---------------------------------------------------------------
 Warning -- This program may not be used in any manner that
 competes with the business of Gaussian, Inc. or will provide
 assistance to any competitor of Gaussian, Inc.  The licensee
 of this program is prohibited from giving any competitor of
 Gaussian, Inc. access to this program.  By using this program,
 the user acknowledges that Gaussian, Inc. is engaged in the
 business of creating and licensing software in the field of
 computational chemistry and represents and warrants to the
 licensee that it is not a competitor of Gaussian, Inc. and that
 it will not use this program in any manner prohibited above.
 ---------------------------------------------------------------
  

 Cite this work as:
 Gaussian 16, Revision C.01,
 M. J. Frisch, G. W. Trucks, H. B. Schlegel, G. E. Scuseria, 
 M. A. Robb, J. R. Cheeseman, G. Scalmani, V. Barone, 
 G. A. Petersson, H. Nakatsuji, X. Li, M. Caricato, A. V. Marenich, 
 J. Bloino, B. G. Janesko, R. Gomperts, B. Mennucci, H. P. Hratchian, 
 J. V. Ortiz, A. F. Izmaylov, J. L. Sonnenberg, D. Williams-Young, 
 F. Ding, F. Lipparini, F. Egidi, J. Goings, B. Peng, A. Petrone, 
 T. Henderson, D. Ranasinghe, V. G. Zakrzewski, J. Gao, N. Rega, 
 G. Zheng, W. Liang, M. Hada, M. Ehara, K. Toyota, R. Fukuda, 
 J. Hasegawa, M. Ishida, T. Nakajima, Y. Honda, O. Kitao, H. Nakai, 
 T. Vreven, K. Throssell, J. A. Montgomery, Jr., J. E. Peralta, 
 F. Ogliaro, M. J. Bearpark, J. J. Heyd, E. N. Brothers, K. N. Kudin, 
 V. N. Staroverov, T. A. Keith, R. Kobayashi, J. Normand, 
 K. Raghavachari, A. P. Rendell, J. C. Burant, S. S. Iyengar, 
 J. Tomasi, M. Cossi, J. M. Millam, M. Klene, C. Adamo, R. Cammi, 
 J. W. Ochterski, R. L. Martin, K. Morokuma, O. Farkas, 
 J. B. Foresman, and D. J. Fox, Gaussian, Inc., Wallingford CT, 2019.
 
 ******************************************
 Gaussian 16:  ES64L-G16RevC.01  3-Jul-2019
                30-Dec-2023 
 ******************************************
 %chk=da-1_1_opt_sqm_freq.chk
 %nprocshared=12
 Will use up to   12 processors via shared memory.
 %mem=48GB
 -----------------------------------------------------------
 # wb97xd def2svp scrf=(iefpcm,solvent=toluene) freq=noraman
 -----------------------------------------------------------
 1/10=4,30=1,38=1/1,3;
 2/12=2,17=6,18=5,40=1/2;
 3/5=43,7=101,11=2,25=1,30=1,70=2201,71=2,72=13,74=-58,140=1/1,2,3;
 4//1;
 5/5=2,38=5,53=13,98=1/2;
 8/6=4,10=90,11=11/1;
 11/6=1,8=1,9=11,15=111,16=1/1,2,10;
 10/6=1/2;
 6/7=2,8=2,9=2,10=2,28=1/1;
 7/8=1,10=1,25=1/1,2,3,16;
 1/10=4,30=1/3;
 99//99;
 ------------------
 da-1_1_opt_sqm.out
 ------------------
 Symbolic Z-matrix:
 Charge =  0 Multiplicity = 1
 O                    -2.15634   0.98025   0.52368 
 C                     0.9755    1.98877  -0.16503 
 C                    -0.91712  -1.60385   0.54397 
 C                     1.44884   0.88133   0.41269 
 C                    -2.23562   0.2336   -0.42317 
 C                    -1.61036  -1.11014  -0.48672 
 H                    -2.80525   0.53561  -1.3354 
 H                    -0.80655  -1.0152    1.4592 
 H                    -1.73911  -1.67782  -1.41299 
 H                     0.50328   2.78547   0.41303 
 H                     1.03666   2.12782  -1.24992 
 H                     1.39245   0.71908   1.49312 
 C                     2.05436  -0.19652  -0.39148 
 O                     2.46357  -1.2384    0.06083 
 H                    -0.44128  -2.58566   0.50532 
 H                     2.1085    0.01674  -1.49003 
 

 GradGradGradGradGradGradGradGradGradGradGradGradGradGradGradGradGradGrad
 Berny optimization.
 Initialization pass.
 Trust Radius=3.00D-01 FncErr=1.00D-07 GrdErr=1.00D-07 EigMax=2.50D+02 EigMin=1.00D-04
 Number of steps in this run=      2 maximum allowed number of steps=      2.
 GradGradGradGradGradGradGradGradGradGradGradGradGradGradGradGradGradGrad

                          Input orientation:                          
 ---------------------------------------------------------------------
 Center     Atomic      Atomic             Coordinates (Angstroms)
 Number     Number       Type             X           Y           Z
 ---------------------------------------------------------------------
      1          8           0       -2.156340    0.980250    0.523680
      2          6           0        0.975500    1.988770   -0.165030
      3          6           0       -0.917120   -1.603850    0.543970
      4          6           0        1.448840    0.881330    0.412690
      5          6           0       -2.235620    0.233600   -0.423170
      6          6           0       -1.610360   -1.110140   -0.486720
      7          1           0       -2.805250    0.535610   -1.335400
      8          1           0       -0.806550   -1.015200    1.459200
      9          1           0       -1.739110   -1.677820   -1.412990
     10          1           0        0.503280    2.785470    0.413030
     11          1           0        1.036660    2.127820   -1.249920
     12          1           0        1.392450    0.719080    1.493120
     13          6           0        2.054360   -0.196520   -0.391480
     14          8           0        2.463570   -1.238400    0.060830
     15          1           0       -0.441280   -2.585660    0.505320
     16          1           0        2.108500    0.016740   -1.490030
 ---------------------------------------------------------------------
                    Distance matrix (angstroms):
                    1          2          3          4          5
     1  O    0.000000
     2  C    3.361526   0.000000
     3  C    2.865947   4.122088   0.000000
     4  C    3.608244   1.335752   3.433820   0.000000
     5  C    1.208427   3.668590   2.459680   3.833205   0.000000
     6  C    2.385106   4.048876   1.336657   3.759467   1.483451
     7  H    2.018655   4.216101   3.416776   4.612225   1.117073
     8  H    2.584367   3.851968   1.093792   3.127106   2.673024
     9  H    3.315133   4.729735   2.123872   4.477207   2.209025
    10  H    3.216309   1.091731   4.615280   2.125990   3.835733
    11  H    3.828554   1.095473   4.578281   2.118467   3.870323
    12  H    3.688080   2.129653   3.410426   1.093999   4.131676
    13  C    4.466800   2.447593   3.418382   1.474824   4.311605
    14  O    5.145892   3.560898   3.434537   2.376287   4.948073
    15  H    3.956954   4.835498   1.091727   3.949830   3.468426
    16  H    4.813755   2.632151   3.989717   2.191577   4.478459
                    6          7          8          9         10
     6  C    0.000000
     7  H    2.203750   0.000000
     8  H    2.107541   3.769563   0.000000
     9  H    1.093990   2.458037   3.091635   0.000000
    10  H    4.522477   4.366377   4.153940   5.318235   0.000000
    11  H    4.251303   4.159653   4.540411   4.713214   1.866119
    12  H    4.035180   5.065064   2.800800   4.898701   2.495433
    13  C    3.778087   5.004279   3.504292   4.198589   3.456205
    14  O    4.112562   5.732106   3.563557   4.475238   4.489801
    15  H    2.127922   4.326538   1.873407   2.487659   5.454333
    16  H    4.013279   4.943488   4.273216   4.204946   3.723471
                   11         12         13         14         15
    11  H    0.000000
    12  H    3.104095   0.000000
    13  C    2.678654   2.197309   0.000000
    14  O    3.884015   2.651505   1.207291   0.000000
    15  H    5.242334   3.906356   3.569378   3.232775   0.000000
    16  H    2.379738   3.147252   1.120367   2.026479   4.153948
                   16
    16  H    0.000000
 Stoichiometry    C6H8O2
 Framework group  C1[X(C6H8O2)]
 Deg. of freedom    42
 Full point group                 C1      NOp   1
 Largest Abelian subgroup         C1      NOp   1
 Largest concise Abelian subgroup C1      NOp   1
                         Standard orientation:                         
 ---------------------------------------------------------------------
 Center     Atomic      Atomic             Coordinates (Angstroms)
 Number     Number       Type             X           Y           Z
 ---------------------------------------------------------------------
      1          8           0        2.156341    0.980254   -0.523681
      2          6           0       -0.975501    1.988769    0.165030
      3          6           0        0.917125   -1.603848   -0.543971
      4          6           0       -1.448839    0.881328   -0.412691
      5          6           0        2.235622    0.233605    0.423170
      6          6           0        1.610364   -1.110137    0.486720
      7          1           0        2.805251    0.535616    1.335400
      8          1           0        0.806554   -1.015198   -1.459201
      9          1           0        1.739115   -1.677816    1.412989
     10          1           0       -0.503283    2.785469   -0.413031
     11          1           0       -1.036662    2.127818    1.249920
     12          1           0       -1.392449    0.719078   -1.493121
     13          6           0       -2.054357   -0.196524    0.391480
     14          8           0       -2.463565   -1.238404   -0.060831
     15          1           0        0.441287   -2.585659   -0.505321
     16          1           0       -2.108498    0.016736    1.490030
 ---------------------------------------------------------------------
 Rotational constants (GHZ):           2.5711154           1.2344747           0.9242734
 Standard basis: def2SVP (5D, 7F)
 There are   160 symmetry adapted cartesian basis functions of A   symmetry.
 There are   152 symmetry adapted basis functions of A   symmetry.
   152 basis functions,   256 primitive gaussians,   160 cartesian basis functions
    30 alpha electrons       30 beta electrons
       nuclear repulsion energy       327.3591250134 Hartrees.
 NAtoms=   16 NActive=   16 NUniq=   16 SFac= 1.00D+00 NAtFMM=   60 NAOKFM=F Big=F
 Integral buffers will be    131072 words long.
 Raffenetti 2 integral format.
 Two-electron integral symmetry is turned on.
 Nuclear repulsion after empirical dispersion term =      327.3516805843 Hartrees.
 Force inversion solution in PCM.
 ------------------------------------------------------------------------------
 Polarizable Continuum Model (PCM)
 =================================
 Model                : PCM.
 Atomic radii         : UFF (Universal Force Field).
 Polarization charges : Total charges.
 Charge compensation  : None.
 Solution method      : Matrix inversion.
 Cavity type          : Scaled VdW (van der Waals Surface) (Alpha=1.100).
 Cavity algorithm     : GePol (No added spheres)
                        Default sphere list used, NSphG=   16.
                        Lebedev-Laikov grids with approx.  5.0 points / Ang**2.
                        Smoothing algorithm: York/Karplus (Gamma=1.0000).
                        Polarization charges: spherical gaussians, with
                                              point-specific exponents (IZeta= 3).
                        Self-potential: point-specific (ISelfS= 7).
                        Self-field    : sphere-specific E.n sum rule (ISelfD= 2).
 1st derivatives      : Analytical E(r).r(x)/FMM algorithm (CHGder, D1EAlg=3).
                        Cavity 1st derivative terms included.
 2nd derivatives      : Analytical E(r).r(xy)/FMM algorithm (CHGder, D2EAlg=3).
                        Cavity 2nd derivative terms included.
 Solvent              : Toluene, Eps=   2.374100 Eps(inf)=   2.238315
 ------------------------------------------------------------------------------
 Spheres list:
 ISph  on   Nord     Re0    Alpha      Xe            Ye            Ze
    1   O      1    1.7500  1.100      2.156341      0.980254     -0.523681
    2   C      2    1.9255  1.100     -0.975501      1.988769      0.165030
    3   C      3    1.9255  1.100      0.917125     -1.603848     -0.543971
    4   C      4    1.9255  1.100     -1.448839      0.881328     -0.412691
    5   C      5    1.9255  1.100      2.235622      0.233605      0.423170
    6   C      6    1.9255  1.100      1.610364     -1.110137      0.486720
    7   H      7    1.4430  1.100      2.805251      0.535616      1.335400
    8   H      8    1.4430  1.100      0.806554     -1.015198     -1.459201
    9   H      9    1.4430  1.100      1.739115     -1.677816      1.412989
   10   H     10    1.4430  1.100     -0.503283      2.785469     -0.413031
   11   H     11    1.4430  1.100     -1.036662      2.127818      1.249920
   12   H     12    1.4430  1.100     -1.392449      0.719078     -1.493121
   13   C     13    1.9255  1.100     -2.054357     -0.196524      0.391480
   14   O     14    1.7500  1.100     -2.463565     -1.238404     -0.060831
   15   H     15    1.4430  1.100      0.441287     -2.585659     -0.505321
   16   H     16    1.4430  1.100     -2.108498      0.016736      1.490030
 ------------------------------------------------------------------------------
 One-electron integrals computed using PRISM.
   1 Symmetry operations used in ECPInt.
 ECPInt:  NShTT=    2628 NPrTT=    9444 LenC2=    2596 LenP2D=    7391.
 LDataN:  DoStor=T MaxTD1= 4 Len=   56
 NBasis=   152 RedAO= T EigKep=  2.26D-03  NBF=   152
 NBsUse=   152 1.00D-06 EigRej= -1.00D+00 NBFU=   152
 ExpMin= 1.22D-01 ExpMax= 2.27D+03 ExpMxC= 3.41D+02 IAcc=3 IRadAn=         5 AccDes= 0.00D+00
 Harris functional with IExCor= 4639 and IRadAn=       5 diagonalized for initial guess.
 HarFok:  IExCor= 4639 AccDes= 0.00D+00 IRadAn=         5 IDoV= 1 UseB2=F ITyADJ=14
 ICtDFT=  3500011 ScaDFX=  1.000000  1.000000  1.000000  1.000000
 FoFCou: FMM=F IPFlag=           0 FMFlag=      100000 FMFlg1=           0
         NFxFlg=           0 DoJE=T BraDBF=F KetDBF=T FulRan=T
         wScrn=  0.000000 ICntrl=       500 IOpCl=  0 I1Cent=   200000004 NGrid=           0
         NMat0=    1 NMatS0=      1 NMatT0=    0 NMatD0=    1 NMtDS0=    0 NMtDT0=    0
 Petite list used in FoFCou.
 Requested convergence on RMS density matrix=1.00D-08 within 128 cycles.
 Requested convergence on MAX density matrix=1.00D-06.
 Requested convergence on             energy=1.00D-06.
 No special actions if energy rises.
 Inv3:  Mode=1 IEnd=     6624588.
 Iteration    1 A*A^-1 deviation from unit magnitude is 3.11D-15 for    226.
 Iteration    1 A*A^-1 deviation from orthogonality  is 2.33D-15 for   1106    234.
 Iteration    1 A^-1*A deviation from unit magnitude is 3.11D-15 for   1090.
 Iteration    1 A^-1*A deviation from orthogonality  is 1.89D-15 for   1197    222.
 Error on total polarization charges =  0.00459
 SCF Done:  E(RwB97XD) =  -383.414356359     A.U. after   14 cycles
            NFock= 14  Conv=0.87D-08     -V/T= 2.0097
 DoSCS=F DFT=T ScalE2(SS,OS)=  1.000000  1.000000
 Range of M.O.s used for correlation:     1   152
 NBasis=   152 NAE=    30 NBE=    30 NFC=     0 NFV=     0
 NROrb=    152 NOA=    30 NOB=    30 NVA=   122 NVB=   122
   1 Symmetry operations used in ECPInt.
 ECPInt:  NShTT=    2628 NPrTT=    9444 LenC2=    2596 LenP2D=    7391.
 LDataN:  DoStor=T MaxTD1= 5 Len=  102
 Symmetrizing basis deriv contribution to polar:
 IMax=3 JMax=2 DiffMx= 0.00D+00
 G2DrvN: will do    17 centers at a time, making    1 passes.
 Calling FoFCou, ICntrl=  3107 FMM=F I1Cent=   0 AccDes= 0.00D+00.
 NEqPCM:  Using equilibrium solvation (IEInf=0, Eps=   2.3741, EpsInf=   2.2383)
 G2PCM: DoFxE=T DoFxN=T DoGrad=T DoDP/DQ/DG/TGxP=FFFF NFrqRd=   0 IEInf=0 SqF1=F DoCFld=F IF1Alg=4.
 End of G2Drv F.D. properties file   721 does not exist.
 End of G2Drv F.D. properties file   722 does not exist.
 End of G2Drv F.D. properties file   788 does not exist.
          IDoAtm=1111111111111111
 NEqPCM:  Using equilibrium solvation (IEInf=0, Eps=   2.3741, EpsInf=   2.2383)
          Differentiating once with respect to electric field.
                with respect to dipole field.
          Differentiating once with respect to nuclear coordinates.
 Keep R1 ints in memory in canonical form, NReq=148857435.
          There are    51 degrees of freedom in the 1st order CPHF.  IDoFFX=6 NUNeed=     3.
     48 vectors produced by pass  0 Test12= 7.18D-15 1.96D-09 XBig12= 3.33D+01 2.44D+00.
 AX will form    48 AO Fock derivatives at one time.
     48 vectors produced by pass  1 Test12= 7.18D-15 1.96D-09 XBig12= 3.73D+00 3.72D-01.
     48 vectors produced by pass  2 Test12= 7.18D-15 1.96D-09 XBig12= 7.59D-02 4.79D-02.
     48 vectors produced by pass  3 Test12= 7.18D-15 1.96D-09 XBig12= 8.75D-04 3.47D-03.
     48 vectors produced by pass  4 Test12= 7.18D-15 1.96D-09 XBig12= 7.45D-06 3.52D-04.
     48 vectors produced by pass  5 Test12= 7.18D-15 1.96D-09 XBig12= 3.92D-08 2.66D-05.
     35 vectors produced by pass  6 Test12= 7.18D-15 1.96D-09 XBig12= 1.85D-10 1.74D-06.
      5 vectors produced by pass  7 Test12= 7.18D-15 1.96D-09 XBig12= 7.65D-13 9.36D-08.
      3 vectors produced by pass  8 Test12= 7.18D-15 1.96D-09 XBig12= 3.28D-15 8.79D-09.
 InvSVY:  IOpt=1 It=  1 EMax= 2.66D-15
 Solved reduced A of dimension   331 with    51 vectors.
 Isotropic polarizability for W=    0.000000       74.58 Bohr**3.
 End of Minotr F.D. properties file   721 does not exist.
 End of Minotr F.D. properties file   722 does not exist.
 End of Minotr F.D. properties file   788 does not exist.

 **********************************************************************

            Population analysis using the SCF Density.

 **********************************************************************

 Orbital symmetries:
       Occupied  (A) (A) (A) (A) (A) (A) (A) (A) (A) (A) (A) (A)
                 (A) (A) (A) (A) (A) (A) (A) (A) (A) (A) (A) (A)
                 (A) (A) (A) (A) (A) (A)
       Virtual   (A) (A) (A) (A) (A) (A) (A) (A) (A) (A) (A) (A)
                 (A) (A) (A) (A) (A) (A) (A) (A) (A) (A) (A) (A)
                 (A) (A) (A) (A) (A) (A) (A) (A) (A) (A) (A) (A)
                 (A) (A) (A) (A) (A) (A) (A) (A) (A) (A) (A) (A)
                 (A) (A) (A) (A) (A) (A) (A) (A) (A) (A) (A) (A)
                 (A) (A) (A) (A) (A) (A) (A) (A) (A) (A) (A) (A)
                 (A) (A) (A) (A) (A) (A) (A) (A) (A) (A) (A) (A)
                 (A) (A) (A) (A) (A) (A) (A) (A) (A) (A) (A) (A)
                 (A) (A) (A) (A) (A) (A) (A) (A) (A) (A) (A) (A)
                 (A) (A) (A) (A) (A) (A) (A) (A) (A) (A) (A) (A)
                 (A) (A)
 The electronic state is 1-A.
 Alpha  occ. eigenvalues --  -19.26012 -19.25736 -10.39263 -10.39130 -10.32871
 Alpha  occ. eigenvalues --  -10.32636 -10.31512 -10.31476  -1.14245  -1.14073
 Alpha  occ. eigenvalues --   -0.89345  -0.88604  -0.74710  -0.73303  -0.65934
 Alpha  occ. eigenvalues --   -0.63021  -0.60166  -0.56660  -0.56122  -0.54104
 Alpha  occ. eigenvalues --   -0.51409  -0.50859  -0.50145  -0.48990  -0.47282
 Alpha  occ. eigenvalues --   -0.46593  -0.37337  -0.36959  -0.34801  -0.34563
 Alpha virt. eigenvalues --   -0.00194   0.00713   0.12734   0.14147   0.15053
 Alpha virt. eigenvalues --    0.15985   0.16261   0.18775   0.21074   0.21384
 Alpha virt. eigenvalues --    0.23349   0.25586   0.29946   0.31070   0.37166
 Alpha virt. eigenvalues --    0.38023   0.38388   0.41050   0.42305   0.47716
 Alpha virt. eigenvalues --    0.49373   0.51932   0.53488   0.55147   0.55996
 Alpha virt. eigenvalues --    0.57851   0.59813   0.62326   0.65370   0.67808
 Alpha virt. eigenvalues --    0.69059   0.69923   0.71103   0.71253   0.73119
 Alpha virt. eigenvalues --    0.73931   0.74662   0.76149   0.76998   0.78121
 Alpha virt. eigenvalues --    0.78702   0.80486   0.82014   0.86222   0.89326
 Alpha virt. eigenvalues --    0.90717   0.94548   0.97851   1.07284   1.09339
 Alpha virt. eigenvalues --    1.13553   1.14832   1.18218   1.22024   1.22787
 Alpha virt. eigenvalues --    1.25004   1.26353   1.27842   1.32085   1.32734
 Alpha virt. eigenvalues --    1.33671   1.35647   1.51792   1.52392   1.53563
 Alpha virt. eigenvalues --    1.55654   1.65351   1.67460   1.70750   1.71408
 Alpha virt. eigenvalues --    1.75179   1.77171   1.79873   1.80342   1.81062
 Alpha virt. eigenvalues --    1.83173   1.85385   1.86475   1.89939   1.91712
 Alpha virt. eigenvalues --    1.92799   1.95724   1.97191   2.00956   2.03466
 Alpha virt. eigenvalues --    2.11094   2.12095   2.14646   2.17188   2.18202
 Alpha virt. eigenvalues --    2.21499   2.26140   2.31634   2.36420   2.42589
 Alpha virt. eigenvalues --    2.43725   2.52837   2.53710   2.54014   2.56017
 Alpha virt. eigenvalues --    2.58002   2.59547   2.66994   2.67483   2.79065
 Alpha virt. eigenvalues --    2.79626   2.81068   2.82177   2.85051   2.88416
 Alpha virt. eigenvalues --    2.93821   2.96833   3.05834   3.15313   3.22794
 Alpha virt. eigenvalues --    3.23154   3.24742   3.39538   3.53274   3.58432
 Alpha virt. eigenvalues --    3.69789   3.70674
          Condensed to atoms (all electrons):
               1          2          3          4          5          6
     1  O    7.711311   0.001920   0.011902  -0.000301   0.663935  -0.121952
     2  C    0.001920   4.763386  -0.002506   0.496846   0.001268   0.000334
     3  C    0.011902  -0.002506   4.681915  -0.004782  -0.019839   0.559778
     4  C   -0.000301   0.496846  -0.004782   5.255069  -0.000085   0.001267
     5  C    0.663935   0.001268  -0.019839  -0.000085   4.567744   0.222609
     6  C   -0.121952   0.000334   0.559778   0.001267   0.222609   5.293497
     7  H   -0.041135  -0.000248   0.012811   0.000121   0.418418  -0.126290
     8  H    0.015672  -0.000175   0.401226   0.002800  -0.015334  -0.034997
     9  H    0.003156  -0.000027  -0.031640   0.000143  -0.026416   0.385082
    10  H    0.001145   0.383785  -0.000016  -0.002753   0.000048   0.000017
    11  H   -0.000009   0.401629   0.000010  -0.030825   0.000096  -0.000057
    12  H   -0.000036  -0.022267  -0.000420   0.377436  -0.000036   0.000104
    13  C   -0.000179  -0.010041   0.004487   0.254036  -0.000461   0.000397
    14  O    0.000000   0.006520   0.001099  -0.093944  -0.000002  -0.000799
    15  H    0.000268  -0.000025   0.392276  -0.000423   0.007320  -0.017387
    16  H    0.000001   0.015947   0.000013  -0.139046  -0.000021   0.000162
               7          8          9         10         11         12
     1  O   -0.041135   0.015672   0.003156   0.001145  -0.000009  -0.000036
     2  C   -0.000248  -0.000175  -0.000027   0.383785   0.401629  -0.022267
     3  C    0.012811   0.401226  -0.031640  -0.000016   0.000010  -0.000420
     4  C    0.000121   0.002800   0.000143  -0.002753  -0.030825   0.377436
     5  C    0.418418  -0.015334  -0.026416   0.000048   0.000096  -0.000036
     6  C   -0.126290  -0.034997   0.385082   0.000017  -0.000057   0.000104
     7  H    0.710416   0.001309   0.000087  -0.000010   0.000040  -0.000002
     8  H    0.001309   0.578880   0.007148  -0.000028   0.000021   0.000919
     9  H    0.000087   0.007148   0.620494  -0.000005   0.000000  -0.000004
    10  H   -0.000010  -0.000028  -0.000005   0.574390  -0.035999  -0.011001
    11  H    0.000040   0.000021   0.000000  -0.035999   0.595873   0.006527
    12  H   -0.000002   0.000919  -0.000004  -0.011001   0.006527   0.601447
    13  C   -0.000025  -0.001059  -0.000137   0.005327  -0.013796  -0.026772
    14  O    0.000000  -0.000091   0.000003  -0.000132   0.000150   0.006494
    15  H   -0.000166  -0.034413  -0.010594   0.000001  -0.000000   0.000088
    16  H    0.000002   0.000047   0.000004  -0.000415   0.007800   0.007647
              13         14         15         16
     1  O   -0.000179   0.000000   0.000268   0.000001
     2  C   -0.010041   0.006520  -0.000025   0.015947
     3  C    0.004487   0.001099   0.392276   0.000013
     4  C    0.254036  -0.093944  -0.000423  -0.139046
     5  C   -0.000461  -0.000002   0.007320  -0.000021
     6  C    0.000397  -0.000799  -0.017387   0.000162
     7  H   -0.000025   0.000000  -0.000166   0.000002
     8  H   -0.001059  -0.000091  -0.034413   0.000047
     9  H   -0.000137   0.000003  -0.010594   0.000004
    10  H    0.005327  -0.000132   0.000001  -0.000415
    11  H   -0.013796   0.000150  -0.000000   0.007800
    12  H   -0.026772   0.006494   0.000088   0.007647
    13  C    4.550972   0.646553   0.000858   0.417751
    14  O    0.646553   7.727072   0.001228  -0.039111
    15  H    0.000858   0.001228   0.577388   0.000049
    16  H    0.417751  -0.039111   0.000049   0.714334
 Mulliken charges:
               1
     1  O   -0.245700
     2  C   -0.036348
     3  C   -0.006313
     4  C   -0.115559
     5  C    0.180757
     6  C   -0.161763
     7  H    0.024671
     8  H    0.078073
     9  H    0.052704
    10  H    0.085644
    11  H    0.068540
    12  H    0.059876
    13  C    0.172089
    14  O   -0.255042
    15  H    0.083533
    16  H    0.014837
 Sum of Mulliken charges =  -0.00000
 Mulliken charges with hydrogens summed into heavy atoms:
               1
     1  O   -0.245700
     2  C    0.117837
     3  C    0.155293
     4  C   -0.055682
     5  C    0.205427
     6  C   -0.109059
    13  C    0.186926
    14  O   -0.255042
 APT charges:
               1
     1  O   -0.721196
     2  C    0.022976
     3  C    0.013962
     4  C   -0.298107
     5  C    0.911308
     6  C   -0.334569
     7  H   -0.073838
     8  H    0.082619
     9  H    0.047148
    10  H    0.073597
    11  H    0.059932
    12  H    0.053444
    13  C    0.935647
    14  O   -0.783284
    15  H    0.071523
    16  H   -0.061163
 Sum of APT charges =  -0.00000
 APT charges with hydrogens summed into heavy atoms:
               1
     1  O   -0.721196
     2  C    0.156505
     3  C    0.168104
     4  C   -0.244664
     5  C    0.837470
     6  C   -0.287420
    13  C    0.874484
    14  O   -0.783284
 Electronic spatial extent (au):  <R**2>=           1235.2766
 Charge=             -0.0000 electrons
 Dipole moment (field-independent basis, Debye):
    X=              1.0066    Y=              0.7499    Z=              2.1359  Tot=              2.4774
 Quadrupole moment (field-independent basis, Debye-Ang):
   XX=            -54.6022   YY=            -46.7577   ZZ=            -43.6198
   XY=             -8.9164   XZ=              2.8264   YZ=              1.4998
 Traceless Quadrupole moment (field-independent basis, Debye-Ang):
   XX=             -6.2756   YY=              1.5689   ZZ=              4.7067
   XY=             -8.9164   XZ=              2.8264   YZ=              1.4998
 Octapole moment (field-independent basis, Debye-Ang**2):
  XXX=             15.4172  YYY=              2.8711  ZZZ=             -1.0640  XYY=              3.8182
  XXY=              6.6091  XXZ=             14.2248  XZZ=             -1.1069  YZZ=             -0.1274
  YYZ=              1.1749  XYZ=              1.8375
 Hexadecapole moment (field-independent basis, Debye-Ang**3):
 XXXX=           -999.0376 YYYY=           -456.4811 ZZZZ=           -129.2440 XXXY=            -17.4165
 XXXZ=             13.1205 YYYX=              5.7907 YYYZ=             -0.6612 ZZZX=             -0.2114
 ZZZY=             -1.1903 XXYY=           -283.1956 XXZZ=           -174.0464 YYZZ=            -99.3436
 XXYZ=              4.2069 YYXZ=              2.3486 ZZXY=              1.3767
 N-N= 3.273516805843D+02 E-N=-1.548571311358D+03  KE= 3.797301244014D+02
  Exact polarizability:      58.543      22.862      91.274      10.578       6.675      73.921
 Approx polarizability:      57.143      23.263      94.310      11.537       7.605      76.710
   1 Symmetry operations used in ECPInt.
 ECPInt:  NShTT=    2628 NPrTT=    9444 LenC2=    2596 LenP2D=    7391.
 LDataN:  DoStor=T MaxTD1= 6 Len=  172
 D2PCM: PCM CHGder 2nd derivatives, FixD1E=F FixD2E=F DoIter=F DoCFld=F I1PDM=0
 Calling FoFJK, ICntrl=    100127 FMM=F ISym2X=0 I1Cent= 0 IOpClX= 0 NMat=1 NMatS=1 NMatT=0.
 Full mass-weighted force constant matrix:
 Low frequencies ---  -35.9305   -6.5979   -0.0011   -0.0008    0.0005    5.4161
 Low frequencies ---   12.2190   26.6271   50.9310
 ******    1 imaginary frequencies (negative Signs) ****** 
 Diagonal vibrational polarizability:
      307.3653079      32.0082593     188.4854680
 Harmonic frequencies (cm**-1), IR intensities (KM/Mole), Raman scattering
 activities (A**4/AMU), depolarization ratios for plane and unpolarized
 incident light, reduced masses (AMU), force constants (mDyne/A),
 and normal coordinates:
                      1                      2                      3
                      A                      A                      A
 Frequencies --    -35.5574                25.7797                50.8463
 Red. masses --      2.6618                 3.7035                 3.0608
 Frc consts  --      0.0020                 0.0015                 0.0047
 IR Inten    --      7.4227                 6.5728                 2.1932
  Atom  AN      X      Y      Z        X      Y      Z        X      Y      Z
     1   8    -0.02  -0.07  -0.13    -0.04  -0.00  -0.11     0.17  -0.05  -0.11
     2   6    -0.10   0.08   0.14     0.06  -0.08   0.14     0.10  -0.09   0.07
     3   6     0.04  -0.10   0.04    -0.06   0.00   0.23     0.04   0.02  -0.05
     4   6     0.13   0.02   0.08    -0.05   0.03   0.03    -0.01  -0.02   0.03
     5   6    -0.06   0.02  -0.05     0.13   0.04  -0.09    -0.11   0.09   0.02
     6   6    -0.04   0.01   0.04     0.14   0.04   0.08    -0.19   0.13   0.06
     7   1    -0.12   0.11  -0.05     0.30   0.08  -0.21    -0.34   0.21   0.12
     8   1     0.09  -0.20  -0.03    -0.24  -0.03   0.23     0.30  -0.10  -0.16
     9   1    -0.09   0.11   0.10     0.32   0.08   0.08    -0.45   0.26   0.17
    10   1     0.04   0.06   0.22     0.05  -0.02   0.21     0.05  -0.05   0.08
    11   1    -0.45   0.16   0.11     0.18  -0.24   0.16     0.25  -0.18   0.09
    12   1     0.47  -0.06   0.11    -0.17   0.18  -0.00    -0.16   0.07   0.01
    13   6    -0.07   0.05  -0.03    -0.03  -0.06  -0.07     0.05  -0.07   0.02
    14   8     0.13  -0.01  -0.07    -0.14   0.03  -0.18    -0.07  -0.00  -0.02
    15   1     0.05  -0.11   0.11    -0.05   0.00   0.36    -0.01   0.05  -0.02
    16   1    -0.43   0.13  -0.06     0.11  -0.22  -0.03     0.23  -0.18   0.05
                      4                      5                      6
                      A                      A                      A
 Frequencies --     58.4767                75.3568               101.6911
 Red. masses --      3.3196                 4.8404                 4.2085
 Frc consts  --      0.0067                 0.0162                 0.0256
 IR Inten    --      0.6946                 7.4716                 0.6374
  Atom  AN      X      Y      Z        X      Y      Z        X      Y      Z
     1   8    -0.18  -0.03  -0.01     0.26  -0.10  -0.03     0.05  -0.05  -0.02
     2   6     0.02   0.08   0.01    -0.27   0.12   0.00    -0.15   0.08   0.01
     3   6    -0.02  -0.10   0.04    -0.13   0.09   0.04     0.32  -0.18  -0.06
     4   6    -0.04   0.12  -0.02    -0.20   0.09  -0.01    -0.15   0.08   0.01
     5   6    -0.14  -0.00   0.01     0.16  -0.09  -0.01    -0.01   0.01   0.03
     6   6    -0.05  -0.05   0.03    -0.05   0.01   0.03     0.16  -0.07  -0.00
     7   1    -0.18   0.06   0.01     0.23  -0.16  -0.03    -0.20   0.13   0.12
     8   1    -0.09  -0.12   0.04    -0.05   0.10   0.03     0.32  -0.20  -0.08
     9   1     0.00  -0.03   0.03    -0.13   0.01   0.04     0.15  -0.04   0.02
    10   1    -0.20   0.20  -0.01    -0.46   0.23  -0.01    -0.26   0.14  -0.01
    11   1     0.30  -0.08   0.04    -0.16   0.04   0.02    -0.04   0.03   0.02
    12   1    -0.32   0.27  -0.06    -0.32   0.17  -0.03    -0.27   0.13  -0.01
    13   6     0.25  -0.03  -0.01     0.05  -0.04  -0.00    -0.04   0.03   0.02
    14   8     0.16   0.02  -0.05     0.13  -0.07  -0.02    -0.17   0.09   0.01
    15   1     0.05  -0.14   0.06    -0.28   0.17   0.07     0.45  -0.24  -0.08
    16   1     0.57  -0.20   0.04     0.15  -0.12   0.02     0.16  -0.06   0.05
                      7                      8                      9
                      A                      A                      A
 Frequencies --    177.2273               189.9766               292.3774
 Red. masses --      2.9554                 1.9746                 3.5561
 Frc consts  --      0.0547                 0.0420                 0.1791
 IR Inten    --     12.3994                 6.4626                 9.8750
  Atom  AN      X      Y      Z        X      Y      Z        X      Y      Z
     1   8    -0.05   0.03   0.03    -0.09   0.04   0.04    -0.15  -0.23  -0.09
     2   6    -0.14   0.07  -0.02     0.05  -0.02   0.01     0.00   0.00  -0.00
     3   6     0.00   0.00  -0.01     0.10  -0.06  -0.03     0.11   0.28  -0.05
     4   6     0.20  -0.10   0.02    -0.08   0.04  -0.01     0.00  -0.00   0.00
     5   6     0.08  -0.04  -0.04     0.12  -0.06  -0.06     0.02  -0.03   0.05
     6   6    -0.07   0.04   0.02    -0.11   0.05   0.05     0.05  -0.02   0.14
     7   1     0.32  -0.16  -0.15     0.52  -0.25  -0.24     0.08   0.16  -0.05
     8   1     0.17  -0.08  -0.08     0.41  -0.22  -0.18     0.34   0.58   0.11
     9   1    -0.20   0.09   0.08    -0.37   0.19   0.17    -0.04  -0.13   0.08
    10   1    -0.28   0.14  -0.04     0.09  -0.04   0.02     0.00  -0.00  -0.00
    11   1    -0.30   0.16  -0.04     0.12  -0.07   0.02    -0.00   0.01  -0.00
    12   1     0.32  -0.16   0.04    -0.14   0.07  -0.02     0.01  -0.00   0.00
    13   6     0.18  -0.09   0.02    -0.06   0.03  -0.01    -0.00  -0.00   0.00
    14   8    -0.16   0.07  -0.02     0.05  -0.02   0.01     0.00   0.00  -0.00
    15   1    -0.09   0.05   0.02    -0.03   0.01   0.03    -0.03   0.34  -0.40
    16   1     0.43  -0.20   0.06    -0.12   0.06  -0.02    -0.01  -0.00   0.00
                     10                     11                     12
                      A                      A                      A
 Frequencies --    321.9210               563.4643               580.6811
 Red. masses --      2.6801                 1.2565                 4.5299
 Frc consts  --      0.1636                 0.2350                 0.8999
 IR Inten    --     10.4131                12.0136                 8.8407
  Atom  AN      X      Y      Z        X      Y      Z        X      Y      Z
     1   8    -0.00   0.00   0.00     0.03  -0.01  -0.01     0.00   0.00  -0.00
     2   6     0.07   0.10  -0.13    -0.00   0.00  -0.00    -0.11  -0.25  -0.03
     3   6     0.00  -0.00  -0.00     0.02  -0.01  -0.01    -0.00   0.00   0.00
     4   6    -0.04  -0.03   0.22     0.00  -0.00  -0.00    -0.10  -0.17  -0.04
     5   6     0.00  -0.00  -0.00    -0.01   0.00   0.00    -0.00   0.00  -0.00
     6   6    -0.00   0.00   0.00    -0.12   0.06   0.06    -0.00   0.00   0.00
     7   1     0.01  -0.01  -0.00     0.30  -0.15  -0.14     0.00  -0.00  -0.00
     8   1     0.00  -0.01  -0.00    -0.37   0.19   0.17    -0.00   0.00   0.00
     9   1    -0.00   0.00   0.00     0.32  -0.16  -0.14     0.00  -0.00  -0.00
    10   1     0.01  -0.12  -0.49     0.00  -0.00   0.00     0.07  -0.22   0.18
    11   1     0.25   0.49  -0.17    -0.01   0.00  -0.00    -0.35  -0.40  -0.02
    12   1    -0.12  -0.21   0.24     0.00   0.00  -0.00    -0.13  -0.52   0.02
    13   6    -0.06  -0.08   0.14    -0.00  -0.00  -0.00     0.05   0.14   0.19
    14   8     0.03   0.01  -0.16    -0.00  -0.00   0.00     0.14   0.27  -0.11
    15   1     0.00  -0.01   0.00     0.59  -0.29  -0.26     0.00  -0.00  -0.00
    16   1    -0.19  -0.30   0.18    -0.00   0.00  -0.00     0.12   0.02   0.21
                     13                     14                     15
                      A                      A                      A
 Frequencies --    607.9484               692.6231               926.3472
 Red. masses --      1.2033                 2.6811                 1.5153
 Frc consts  --      0.2620                 0.7578                 0.7661
 IR Inten    --     14.3090                13.4128                22.9443
  Atom  AN      X      Y      Z        X      Y      Z        X      Y      Z
     1   8     0.00  -0.00   0.00     0.07   0.17  -0.03    -0.00  -0.00   0.00
     2   6     0.02   0.01   0.00     0.00   0.00   0.00     0.06   0.09  -0.08
     3   6    -0.00   0.00  -0.00     0.02  -0.02   0.06    -0.00  -0.00   0.00
     4   6    -0.10   0.07  -0.01    -0.00   0.00  -0.00     0.03   0.05  -0.05
     5   6     0.00   0.00   0.00    -0.10  -0.06  -0.17     0.00   0.00  -0.00
     6   6     0.00  -0.00  -0.00    -0.02  -0.19   0.15    -0.00  -0.00  -0.00
     7   1     0.00   0.00   0.00    -0.13  -0.13  -0.13    -0.00   0.00   0.00
     8   1    -0.00  -0.00  -0.00     0.37   0.45   0.32     0.00  -0.00  -0.00
     9   1     0.00  -0.00  -0.00     0.09  -0.01   0.24     0.00   0.00  -0.00
    10   1     0.59  -0.29   0.06     0.00  -0.00   0.00     0.18   0.46   0.52
    11   1    -0.42   0.25  -0.05    -0.00   0.00   0.00    -0.25  -0.48  -0.02
    12   1     0.33  -0.11   0.04     0.00   0.00  -0.00    -0.14  -0.25  -0.03
    13   6     0.02  -0.02  -0.01     0.00  -0.00  -0.00    -0.04  -0.06   0.11
    14   8    -0.01  -0.02   0.01    -0.00  -0.00   0.00    -0.01  -0.03  -0.02
    15   1     0.00  -0.00   0.00    -0.21   0.08  -0.50    -0.00  -0.00  -0.00
    16   1     0.39  -0.18   0.04     0.01  -0.00   0.00    -0.12  -0.19   0.14
                     16                     17                     18
                      A                      A                      A
 Frequencies --    948.7851              1006.2720              1023.5515
 Red. masses --      2.9543                 1.2873                 1.1227
 Frc consts  --      1.5669                 0.7680                 0.6930
 IR Inten    --     68.8571                65.0752                53.4826
  Atom  AN      X      Y      Z        X      Y      Z        X      Y      Z
     1   8    -0.02   0.01  -0.05     0.00  -0.00  -0.00     0.01  -0.00  -0.00
     2   6     0.00  -0.00   0.00    -0.13   0.07  -0.02     0.03  -0.01   0.00
     3   6    -0.09  -0.15  -0.06    -0.01   0.00   0.00    -0.07   0.03   0.03
     4   6    -0.00   0.00   0.00    -0.00   0.00  -0.00    -0.04   0.02  -0.01
     5   6     0.18   0.25   0.13    -0.00  -0.00   0.00    -0.02   0.01   0.01
     6   6    -0.06  -0.14   0.04    -0.00   0.00   0.00    -0.02   0.01   0.01
     7   1     0.27   0.52  -0.01     0.00  -0.00  -0.00     0.03  -0.01  -0.01
     8   1     0.06   0.12   0.08     0.05  -0.03  -0.02     0.59  -0.29  -0.26
     9   1    -0.18  -0.33  -0.04     0.04  -0.02  -0.02     0.48  -0.25  -0.22
    10   1    -0.00  -0.00  -0.00     0.50  -0.25   0.06    -0.21   0.11  -0.02
    11   1     0.01  -0.00   0.00     0.66  -0.33   0.08     0.04  -0.02   0.00
    12   1     0.02  -0.01   0.00     0.23  -0.10   0.03     0.26  -0.13   0.03
    13   6     0.00  -0.00  -0.00     0.05  -0.02   0.01     0.00  -0.00   0.00
    14   8     0.00   0.00   0.00    -0.01   0.01  -0.00    -0.00   0.00  -0.00
    15   1    -0.28  -0.08  -0.48     0.01  -0.00  -0.00     0.07  -0.04  -0.03
    16   1    -0.01   0.01  -0.00    -0.19   0.09  -0.02     0.01  -0.01   0.00
                     19                     20                     21
                      A                      A                      A
 Frequencies --   1025.9347              1032.7113              1048.3234
 Red. masses --      1.3038                 1.2185                 1.6338
 Frc consts  --      0.8086                 0.7656                 1.0579
 IR Inten    --      4.6957                 4.0164                 0.1950
  Atom  AN      X      Y      Z        X      Y      Z        X      Y      Z
     1   8    -0.02   0.01   0.01    -0.00  -0.00   0.00     0.00  -0.00  -0.00
     2   6     0.00  -0.00   0.00     0.05  -0.02   0.00    -0.03   0.02  -0.01
     3   6    -0.11   0.05   0.04     0.04  -0.02  -0.02     0.01  -0.00  -0.00
     4   6    -0.01   0.00  -0.00    -0.10   0.05  -0.01     0.07  -0.03   0.01
     5   6     0.07  -0.03  -0.03    -0.00  -0.00  -0.00    -0.01   0.00   0.00
     6   6     0.05  -0.03  -0.02     0.01   0.00  -0.01     0.00  -0.00  -0.00
     7   1    -0.25   0.13   0.12     0.01  -0.02  -0.01     0.03  -0.01  -0.01
     8   1     0.14  -0.07  -0.06    -0.27   0.14   0.12    -0.04   0.02   0.02
     9   1    -0.43   0.20   0.18    -0.17   0.10   0.08    -0.03   0.01   0.01
    10   1    -0.04   0.02  -0.01    -0.39   0.21  -0.04    -0.10   0.06  -0.01
    11   1     0.03  -0.01   0.00     0.18  -0.10   0.02     0.34  -0.17   0.04
    12   1     0.07  -0.03   0.01     0.68  -0.31   0.08     0.19  -0.08   0.02
    13   6    -0.00   0.00  -0.00     0.03  -0.02   0.01    -0.20   0.09  -0.02
    14   8     0.00   0.00   0.00    -0.01   0.00  -0.00     0.05  -0.02   0.01
    15   1     0.64  -0.32  -0.28    -0.09   0.05   0.04    -0.02   0.01   0.01
    16   1     0.01  -0.00   0.00    -0.10   0.04  -0.01     0.77  -0.36   0.11
                     22                     23                     24
                      A                      A                      A
 Frequencies --   1055.9982              1065.9977              1170.8122
 Red. masses --      1.8145                 1.5246                 1.8881
 Frc consts  --      1.1921                 1.0208                 1.5250
 IR Inten    --      3.0990                 3.9483                43.4070
  Atom  AN      X      Y      Z        X      Y      Z        X      Y      Z
     1   8     0.05  -0.01  -0.03    -0.00  -0.06   0.03    -0.00  -0.00   0.00
     2   6     0.00  -0.00  -0.00    -0.00   0.00   0.00    -0.02  -0.05   0.02
     3   6    -0.04   0.05   0.01    -0.05  -0.10   0.04    -0.00   0.00  -0.00
     4   6    -0.00   0.00  -0.00     0.00  -0.00  -0.00     0.04   0.05  -0.16
     5   6    -0.18   0.09   0.07    -0.03   0.01   0.04     0.00   0.00  -0.00
     6   6     0.11  -0.09  -0.03     0.04   0.11  -0.10    -0.00  -0.00   0.00
     7   1     0.70  -0.31  -0.35     0.13  -0.19   0.01     0.00   0.00  -0.00
     8   1     0.05  -0.14  -0.12     0.30   0.28   0.23     0.01  -0.00  -0.00
     9   1    -0.37   0.00   0.10     0.26   0.57   0.14     0.00   0.00   0.00
    10   1     0.01  -0.00   0.00     0.01  -0.00  -0.00    -0.05  -0.15  -0.15
    11   1    -0.01   0.00  -0.00    -0.00   0.00   0.00     0.07   0.17  -0.01
    12   1    -0.01   0.01  -0.00    -0.01   0.00  -0.00     0.36   0.75  -0.25
    13   6     0.01  -0.00   0.00     0.00  -0.00  -0.00    -0.06  -0.07   0.19
    14   8    -0.00   0.00  -0.00    -0.00   0.00   0.00     0.01   0.01  -0.03
    15   1     0.16  -0.04   0.08    -0.18  -0.05  -0.48    -0.00   0.00  -0.00
    16   1    -0.02   0.01  -0.00    -0.00   0.00  -0.00    -0.11  -0.16   0.22
                     25                     26                     27
                      A                      A                      A
 Frequencies --   1287.6538              1303.3519              1390.5750
 Red. masses --      1.5399                 1.2956                 1.1666
 Frc consts  --      1.5043                 1.2967                 1.3292
 IR Inten    --      7.3920                 2.6738                15.3055
  Atom  AN      X      Y      Z        X      Y      Z        X      Y      Z
     1   8     0.00  -0.00   0.00     0.00  -0.00   0.01    -0.00  -0.00  -0.00
     2   6     0.00  -0.03  -0.13     0.00   0.00   0.01     0.01   0.01  -0.01
     3   6    -0.00   0.00  -0.01    -0.03   0.03  -0.11    -0.00  -0.00  -0.00
     4   6    -0.03  -0.03   0.16     0.00   0.00  -0.01    -0.04  -0.08  -0.01
     5   6     0.00   0.00   0.00     0.00   0.01   0.00     0.00   0.00   0.00
     6   6     0.00  -0.00   0.01     0.00  -0.07   0.09    -0.00  -0.00  -0.00
     7   1     0.00   0.01  -0.00     0.05   0.16  -0.06     0.00   0.00  -0.00
     8   1    -0.02  -0.03  -0.02    -0.29  -0.31  -0.31     0.00   0.00   0.00
     9   1     0.03   0.04   0.03     0.44   0.54   0.41     0.00   0.00   0.00
    10   1     0.03   0.08   0.06    -0.00  -0.00  -0.00     0.09   0.28   0.41
    11   1    -0.24  -0.49  -0.09     0.01   0.03   0.01     0.20   0.40  -0.03
    12   1     0.31   0.71   0.09    -0.02  -0.05  -0.00     0.04   0.08  -0.03
    13   6     0.01   0.01  -0.04    -0.00  -0.00   0.00    -0.02  -0.02   0.05
    14   8     0.00   0.01   0.00    -0.00  -0.00  -0.00    -0.00  -0.02  -0.04
    15   1    -0.00   0.00  -0.01    -0.03   0.02  -0.08     0.00  -0.00   0.00
    16   1     0.07   0.14  -0.06    -0.00  -0.01   0.00     0.30   0.66  -0.06
                     28                     29                     30
                      A                      A                      A
 Frequencies --   1412.4401              1442.8655              1447.2802
 Red. masses --      1.1650                 1.2787                 1.2257
 Frc consts  --      1.3694                 1.5685                 1.5127
 IR Inten    --     32.1435                23.5206                12.7444
  Atom  AN      X      Y      Z        X      Y      Z        X      Y      Z
     1   8     0.01  -0.00   0.02     0.03  -0.02   0.07     0.00  -0.00   0.00
     2   6    -0.00  -0.00  -0.00     0.00   0.00  -0.00     0.01   0.03   0.03
     3   6    -0.02  -0.00  -0.05     0.00  -0.01   0.02     0.00  -0.00   0.00
     4   6     0.00   0.00   0.00    -0.00  -0.00   0.00     0.04   0.07  -0.01
     5   6     0.01   0.01   0.01    -0.06  -0.08  -0.04    -0.00  -0.00  -0.00
     6   6    -0.06  -0.07  -0.05     0.02   0.06  -0.01     0.00   0.00   0.00
     7   1     0.08   0.28  -0.13     0.15   0.79  -0.50     0.00   0.00  -0.00
     8   1     0.31   0.44   0.20    -0.04  -0.07  -0.01    -0.00  -0.00  -0.00
     9   1     0.16   0.22   0.10    -0.09  -0.09  -0.10    -0.00  -0.00  -0.00
    10   1    -0.00  -0.00  -0.01     0.00   0.00   0.00    -0.09  -0.28  -0.46
    11   1    -0.00  -0.01   0.00     0.00   0.00  -0.00    -0.21  -0.41   0.07
    12   1     0.00   0.00   0.00     0.00   0.00  -0.00    -0.08  -0.16   0.02
    13   6    -0.00  -0.00  -0.00     0.00   0.00  -0.00    -0.02  -0.03   0.07
    14   8     0.00   0.00  -0.00    -0.00  -0.00   0.00    -0.01  -0.04  -0.05
    15   1     0.24  -0.08   0.64    -0.08   0.02  -0.20    -0.00   0.00  -0.01
    16   1     0.00   0.00  -0.00    -0.00  -0.00   0.00     0.28   0.60  -0.02
                     31                     32                     33
                      A                      A                      A
 Frequencies --   1711.0215              1723.4974              1847.9720
 Red. masses --      5.2387                 4.8974                 9.0895
 Frc consts  --      9.0362                 8.5710                18.2886
 IR Inten    --     75.8410                 3.8832                78.5652
  Atom  AN      X      Y      Z        X      Y      Z        X      Y      Z
     1   8    -0.00  -0.05   0.05     0.00  -0.00   0.00    -0.03   0.25  -0.32
     2   6    -0.00  -0.01  -0.00    -0.14  -0.33  -0.16     0.00   0.01   0.01
     3   6     0.21   0.16   0.30    -0.00  -0.00  -0.00     0.05   0.03   0.08
     4   6     0.00   0.01   0.00     0.17   0.38   0.12    -0.02  -0.04  -0.01
     5   6     0.04   0.12  -0.05    -0.00  -0.00  -0.00     0.02  -0.40   0.47
     6   6    -0.24  -0.24  -0.29     0.00   0.00   0.01    -0.06  -0.02  -0.11
     7   1     0.03   0.07  -0.01    -0.00  -0.00  -0.00     0.21   0.38   0.05
     8   1    -0.21  -0.45   0.03     0.00   0.01  -0.00    -0.05  -0.12   0.04
     9   1     0.16   0.37  -0.04    -0.00  -0.01   0.00     0.11   0.24  -0.02
    10   1     0.00  -0.00   0.01    -0.06  -0.02   0.46    -0.00   0.00  -0.01
    11   1     0.00   0.01  -0.01     0.22   0.37  -0.29    -0.01  -0.02   0.01
    12   1    -0.01  -0.00   0.01    -0.14  -0.23   0.26     0.03   0.07  -0.01
    13   6    -0.00  -0.00  -0.00     0.01   0.03   0.03     0.09   0.23   0.08
    14   8     0.00   0.00   0.00    -0.03  -0.07  -0.02    -0.06  -0.15  -0.06
    15   1     0.01   0.30  -0.33    -0.00  -0.00   0.01    -0.01   0.08  -0.13
    16   1     0.00   0.01  -0.00     0.06   0.14   0.03    -0.06  -0.10   0.11
                     34                     35                     36
                      A                      A                      A
 Frequencies --   1856.3586              2914.4830              2948.9897
 Red. masses --      9.9202                 1.0855                 1.0858
 Frc consts  --     20.1415                 5.4326                 5.5637
 IR Inten    --    385.9516                96.0345               151.4133
  Atom  AN      X      Y      Z        X      Y      Z        X      Y      Z
     1   8     0.01  -0.11   0.14     0.00  -0.00   0.00     0.00   0.00  -0.00
     2   6     0.01   0.03   0.02     0.00   0.00   0.00    -0.00  -0.00   0.00
     3   6    -0.02  -0.01  -0.03     0.00  -0.00   0.00    -0.00  -0.00  -0.00
     4   6    -0.05  -0.10  -0.02    -0.00  -0.00   0.00    -0.00   0.00   0.00
     5   6    -0.01   0.17  -0.20     0.00   0.00   0.00    -0.04  -0.03  -0.07
     6   6     0.02   0.00   0.04    -0.00  -0.00   0.00     0.00   0.00   0.00
     7   1    -0.09  -0.16  -0.02    -0.01  -0.00  -0.01     0.51   0.29   0.80
     8   1     0.02   0.05  -0.01    -0.00   0.00  -0.00     0.00  -0.00   0.01
     9   1    -0.04  -0.10   0.01     0.00   0.00  -0.00    -0.01   0.01  -0.03
    10   1     0.01   0.01  -0.03     0.00   0.00   0.00     0.00  -0.00   0.00
    11   1    -0.03  -0.05   0.03     0.00   0.00  -0.00    -0.00  -0.00  -0.00
    12   1     0.09   0.19  -0.04     0.00  -0.00  -0.00     0.00  -0.00  -0.00
    13   6     0.24   0.58   0.19     0.01  -0.01  -0.08     0.00  -0.00  -0.00
    14   8    -0.15  -0.37  -0.16    -0.00  -0.00   0.00    -0.00   0.00   0.00
    15   1     0.02  -0.03   0.06    -0.00  -0.00  -0.00    -0.00   0.00  -0.00
    16   1    -0.15  -0.25   0.28    -0.06   0.17   0.98    -0.00   0.00   0.01
                     37                     38                     39
                      A                      A                      A
 Frequencies --   3158.9101              3170.5989              3203.0137
 Red. masses --      1.0634                 1.0600                 1.0974
 Frc consts  --      6.2522                 6.2785                 6.6333
 IR Inten    --      4.1452                 2.5199                 5.4845
  Atom  AN      X      Y      Z        X      Y      Z        X      Y      Z
     1   8    -0.00   0.00  -0.00     0.00  -0.00   0.00    -0.00   0.00  -0.00
     2   6    -0.02  -0.05  -0.05    -0.00  -0.00  -0.00    -0.00  -0.00   0.00
     3   6     0.00   0.00   0.00    -0.03  -0.02  -0.06     0.01  -0.00   0.02
     4   6     0.00   0.01  -0.01     0.00   0.00   0.00    -0.00   0.00   0.00
     5   6    -0.00  -0.00  -0.00    -0.00   0.00  -0.00    -0.00  -0.00  -0.00
     6   6     0.00  -0.00   0.00     0.00   0.01  -0.01    -0.01   0.04  -0.08
     7   1     0.00   0.00   0.00    -0.00  -0.00   0.00     0.02   0.01   0.02
     8   1    -0.00   0.00  -0.00     0.07  -0.40   0.62    -0.02   0.11  -0.17
     9   1    -0.00   0.00  -0.00     0.02  -0.11   0.17     0.11  -0.51   0.82
    10   1     0.23   0.39  -0.30     0.00   0.00  -0.00     0.00   0.00  -0.00
    11   1    -0.05   0.10   0.82    -0.00   0.00   0.01     0.00  -0.00  -0.00
    12   1    -0.01   0.02   0.12    -0.00  -0.00  -0.00     0.00  -0.00  -0.00
    13   6     0.00   0.00  -0.00    -0.00  -0.00  -0.00     0.00   0.00  -0.00
    14   8    -0.00  -0.00  -0.00    -0.00   0.00   0.00    -0.00  -0.00   0.00
    15   1    -0.00  -0.00   0.00     0.27   0.57  -0.03    -0.03  -0.06   0.00
    16   1    -0.00  -0.00   0.01     0.00   0.00   0.00    -0.00   0.00   0.00
                     40                     41                     42
                      A                      A                      A
 Frequencies --   3207.9213              3274.7511              3284.2043
 Red. masses --      1.0970                 1.1165                 1.1187
 Frc consts  --      6.6512                 7.0545                 7.1092
 IR Inten    --      1.0957                 0.7650                 0.0874
  Atom  AN      X      Y      Z        X      Y      Z        X      Y      Z
     1   8     0.00   0.00   0.00    -0.00   0.00  -0.00    -0.00   0.00  -0.00
     2   6     0.00   0.01   0.02    -0.03  -0.05   0.08    -0.00  -0.00   0.00
     3   6    -0.00  -0.00  -0.00     0.00   0.00  -0.00    -0.02  -0.09   0.04
     4   6     0.00  -0.02  -0.09     0.00   0.00   0.01     0.00   0.00   0.00
     5   6    -0.00  -0.00  -0.00     0.00  -0.00   0.00     0.00   0.00   0.00
     6   6     0.00   0.00  -0.00     0.00  -0.00   0.00     0.00  -0.00   0.01
     7   1     0.00   0.00   0.00    -0.00  -0.00  -0.00     0.00   0.00   0.00
     8   1    -0.00  -0.00   0.00     0.00  -0.00   0.00    -0.07   0.33  -0.53
     9   1     0.00  -0.00   0.00    -0.00   0.00  -0.00    -0.01   0.04  -0.07
    10   1     0.01   0.02  -0.02     0.36   0.61  -0.44     0.00   0.00  -0.00
    11   1     0.01  -0.02  -0.15     0.03  -0.07  -0.52    -0.00  -0.00  -0.00
    12   1    -0.05   0.14   0.97     0.00  -0.02  -0.10     0.00  -0.00  -0.00
    13   6    -0.00  -0.00   0.00     0.00   0.00  -0.00    -0.00  -0.00   0.00
    14   8     0.00   0.00   0.00    -0.00  -0.00  -0.00    -0.00   0.00   0.00
    15   1     0.00   0.01  -0.00    -0.00  -0.00   0.00     0.33   0.69  -0.03
    16   1    -0.00  -0.00   0.00     0.00   0.00  -0.00     0.00  -0.00  -0.00

 -------------------
 - Thermochemistry -
 -------------------
 Temperature   298.150 Kelvin.  Pressure   1.00000 Atm.
 Atom     1 has atomic number  8 and mass  15.99491
 Atom     2 has atomic number  6 and mass  12.00000
 Atom     3 has atomic number  6 and mass  12.00000
 Atom     4 has atomic number  6 and mass  12.00000
 Atom     5 has atomic number  6 and mass  12.00000
 Atom     6 has atomic number  6 and mass  12.00000
 Atom     7 has atomic number  1 and mass   1.00783
 Atom     8 has atomic number  1 and mass   1.00783
 Atom     9 has atomic number  1 and mass   1.00783
 Atom    10 has atomic number  1 and mass   1.00783
 Atom    11 has atomic number  1 and mass   1.00783
 Atom    12 has atomic number  1 and mass   1.00783
 Atom    13 has atomic number  6 and mass  12.00000
 Atom    14 has atomic number  8 and mass  15.99491
 Atom    15 has atomic number  1 and mass   1.00783
 Atom    16 has atomic number  1 and mass   1.00783
 Molecular mass:   112.05243 amu.
 Principal axes and moments of inertia in atomic units:
                           1         2         3
     Eigenvalues --   701.929301461.950741952.60531
           X            0.99927  -0.03740   0.00729
           Y            0.03731   0.99924   0.01114
           Z           -0.00770  -0.01086   0.99991
 This molecule is an asymmetric top.
 Rotational symmetry number  1.
 Warning -- assumption of classical behavior for rotation
           may cause significant error
 Rotational temperatures (Kelvin)      0.12339     0.05925     0.04436
 Rotational constants (GHZ):           2.57112     1.23447     0.92427
    1 imaginary frequencies ignored.
 Zero-point vibrational energy     326753.9 (Joules/Mol)
                                   78.09606 (Kcal/Mol)
 Warning -- explicit consideration of  12 degrees of freedom as
           vibrations may cause significant error
 Vibrational temperatures:     37.09    73.16    84.13   108.42   146.31
          (Kelvin)            254.99   273.33   420.67   463.17   810.70
                              835.47   874.70   996.53  1332.81  1365.09
                             1447.80  1472.66  1476.09  1485.84  1508.30
                             1519.35  1533.73  1684.54  1852.65  1875.23
                             2000.73  2032.19  2075.96  2082.31  2461.78
                             2479.73  2658.82  2670.89  4193.29  4242.94
                             4544.97  4561.78  4608.42  4615.48  4711.64
                             4725.24
 
 Zero-point correction=                           0.124454 (Hartree/Particle)
 Thermal correction to Energy=                    0.134351
 Thermal correction to Enthalpy=                  0.135295
 Thermal correction to Gibbs Free Energy=         0.086794
 Sum of electronic and zero-point Energies=           -383.289902
 Sum of electronic and thermal Energies=              -383.280005
 Sum of electronic and thermal Enthalpies=            -383.279061
 Sum of electronic and thermal Free Energies=         -383.327563
 
                     E (Thermal)             CV                S
                      KCal/Mol        Cal/Mol-Kelvin    Cal/Mol-Kelvin
 Total                   84.307             31.199            102.080
 Electronic               0.000              0.000              0.000
 Translational            0.889              2.981             40.057
 Rotational               0.889              2.981             29.084
 Vibrational             82.529             25.238             32.939
 Vibration     1          0.593              1.985              6.130
 Vibration     2          0.595              1.977              4.784
 Vibration     3          0.596              1.974              4.508
 Vibration     4          0.599              1.965              4.008
 Vibration     5          0.604              1.948              3.422
 Vibration     6          0.628              1.870              2.357
 Vibration     7          0.633              1.854              2.228
 Vibration     8          0.688              1.688              1.460
 Vibration     9          0.707              1.632              1.300
 Vibration    10          0.919              1.110              0.517
 Vibration    11          0.937              1.073              0.484
 Vibration    12          0.967              1.015              0.436
                       Q            Log10(Q)             Ln(Q)
 Total Bot       0.119608D-39        -39.922239        -91.924353
 Total V=0       0.210173D+18         17.322576         39.886706
 Vib (Bot)       0.506302D-53        -53.295591       -122.717633
 Vib (Bot)    1  0.803310D+01          0.904883          2.083571
 Vib (Bot)    2  0.406531D+01          0.609093          1.402489
 Vib (Bot)    3  0.353198D+01          0.548019          1.261859
 Vib (Bot)    4  0.273482D+01          0.436928          1.006065
 Vib (Bot)    5  0.201748D+01          0.304809          0.701849
 Vib (Bot)    6  0.113437D+01          0.054755          0.126077
 Vib (Bot)    7  0.105351D+01          0.022638          0.052125
 Vib (Bot)    8  0.653212D+00         -0.184946         -0.425854
 Vib (Bot)    9  0.583267D+00         -0.234132         -0.539110
 Vib (Bot)   10  0.274902D+00         -0.560822         -1.291341
 Vib (Bot)   11  0.262240D+00         -0.581301         -1.338494
 Vib (Bot)   12  0.243602D+00         -0.613319         -1.412219
 Vib (V=0)       0.889661D+04          3.949225          9.093426
 Vib (V=0)    1  0.854865D+01          0.931897          2.145773
 Vib (V=0)    2  0.459594D+01          0.662374          1.525173
 Vib (V=0)    3  0.406720D+01          0.609295          1.402954
 Vib (V=0)    4  0.328015D+01          0.515894          1.187889
 Vib (V=0)    5  0.257852D+01          0.411370          0.947214
 Vib (V=0)    6  0.173967D+01          0.240468          0.553698
 Vib (V=0)    7  0.166614D+01          0.221711          0.510508
 Vib (V=0)    8  0.132261D+01          0.121431          0.279606
 Vib (V=0)    9  0.126825D+01          0.103203          0.237634
 Vib (V=0)   10  0.107059D+01          0.029622          0.068208
 Vib (V=0)   11  0.106460D+01          0.027185          0.062596
 Vib (V=0)   12  0.105619D+01          0.023740          0.054664
 Electronic      0.100000D+01          0.000000          0.000000
 Translational   0.466215D+08          7.668586         17.657571
 Rotational      0.506717D+06          5.704766         13.135709
 ***** Axes restored to original set *****
 -------------------------------------------------------------------
 Center     Atomic                   Forces (Hartrees/Bohr)
 Number     Number              X              Y              Z
 -------------------------------------------------------------------
      1        8          -0.000001386   -0.000002325   -0.000006050
      2        6           0.000005315   -0.000009270   -0.000002280
      3        6          -0.000004685    0.000015168    0.000002816
      4        6          -0.000000908   -0.000001050    0.000001004
      5        6           0.000005913    0.000001888    0.000011936
      6        6           0.000000977    0.000003958    0.000005104
      7        1          -0.000002689    0.000003833   -0.000002594
      8        1          -0.000001004   -0.000006232   -0.000005706
      9        1          -0.000001385   -0.000002316   -0.000005539
     10        1          -0.000003712    0.000006089    0.000007125
     11        1           0.000000072    0.000001777    0.000001026
     12        1          -0.000000222   -0.000000779    0.000001420
     13        6           0.000002332   -0.000004187   -0.000005129
     14        8          -0.000002688    0.000001551    0.000000003
     15        1           0.000004611   -0.000010194   -0.000003479
     16        1          -0.000000539    0.000002089    0.000000343
 -------------------------------------------------------------------
 Cartesian Forces:  Max     0.000015168 RMS     0.000004784

 GradGradGradGradGradGradGradGradGradGradGradGradGradGradGradGradGradGrad
 Berny optimization.
 Search for a local minimum.
 Step number   1 out of a maximum of    2
 All quantities printed in internal units (Hartrees-Bohrs-Radians)
 Second derivative matrix not updated -- analytic derivatives used.
 ITU=  0
     Eigenvalues ---   -0.00015   0.00009   0.00027   0.00064   0.00113
     Eigenvalues ---    0.00230   0.00358   0.00513   0.01145   0.01337
     Eigenvalues ---    0.02121   0.02195   0.04262   0.04643   0.06918
     Eigenvalues ---    0.07289   0.07575   0.07891   0.08200   0.09771
     Eigenvalues ---    0.14524   0.16058   0.16701   0.16929   0.17915
     Eigenvalues ---    0.18831   0.26942   0.27482   0.28435   0.28785
     Eigenvalues ---    0.45128   0.50629   0.61394   0.72776   0.84339
     Eigenvalues ---    0.86156   0.99241   1.02305   1.49102   1.52066
     Eigenvalues ---    1.76072   1.77194
 Eigenvalue     1 is  -1.52D-04 should be greater than     0.000000 Eigenvector:
                          X12       X11       X16       Z10       Y8
   1                    0.44644  -0.39626  -0.35212   0.27243   0.24148
                          Z1        Z2        X14       Z11       X4
   1                   -0.21137   0.17925   0.15848   0.15628   0.13396
 Angle between quadratic step and forces=  87.95 degrees.
 Linear search not attempted -- first point.
 B after Tr=    -0.000040   -0.000017    0.000064
         Rot=    1.000000    0.000003   -0.000016    0.000000 Ang=   0.00 deg.
 Variable       Old X    -DE/DX   Delta X   Delta X   Delta X     New X
                                 (Linear)    (Quad)   (Total)
    X1       -4.07489  -0.00000   0.00000   0.00023   0.00022  -4.07467
    Y1        1.85240  -0.00000   0.00000  -0.00021  -0.00022   1.85218
    Z1        0.98961  -0.00001   0.00000   0.00065   0.00083   0.99044
    X2        1.84343   0.00001   0.00000   0.00022   0.00017   1.84360
    Y2        3.75823  -0.00001   0.00000   0.00030   0.00028   3.75851
    Z2       -0.31186  -0.00000   0.00000  -0.00062  -0.00064  -0.31250
    X3       -1.73311  -0.00000   0.00000  -0.00005  -0.00006  -1.73316
    Y3       -3.03084   0.00002   0.00000  -0.00045  -0.00046  -3.03130
    Z3        1.02795   0.00000   0.00000  -0.00001   0.00013   1.02808
    X4        2.73791  -0.00000   0.00000  -0.00066  -0.00067   2.73724
    Y4        1.66547  -0.00000   0.00000   0.00004   0.00003   1.66550
    Z4        0.77987   0.00000   0.00000  -0.00039  -0.00043   0.77944
    X5       -4.22471   0.00001   0.00000   0.00029   0.00022  -4.22449
    Y5        0.44144   0.00000   0.00000   0.00007   0.00004   0.44148
    Z5       -0.79968   0.00001   0.00000   0.00044   0.00064  -0.79904
    X6       -3.04314   0.00000   0.00000   0.00016   0.00009  -3.04305
    Y6       -2.09786   0.00000   0.00000   0.00003   0.00001  -2.09785
    Z6       -0.91977   0.00001   0.00000   0.00009   0.00026  -0.91951
    X7       -5.30115  -0.00000   0.00000   0.00041   0.00029  -5.30087
    Y7        1.01216   0.00000   0.00000   0.00040   0.00037   1.01252
    Z7       -2.52354  -0.00000   0.00000   0.00045   0.00068  -2.52286
    X8       -1.52416  -0.00000   0.00000  -0.00013  -0.00009  -1.52424
    Y8       -1.91845  -0.00001   0.00000  -0.00091  -0.00091  -1.91936
    Z8        2.75749  -0.00001   0.00000   0.00027   0.00039   2.75788
    X9       -3.28644  -0.00000   0.00000   0.00025   0.00012  -3.28632
    Y9       -3.17062  -0.00000   0.00000   0.00037   0.00034  -3.17028
    Z9       -2.67016  -0.00001   0.00000  -0.00016   0.00003  -2.67013
   X10        0.95106  -0.00000   0.00000  -0.00037  -0.00038   0.95068
   Y10        5.26378   0.00001   0.00000   0.00018   0.00016   5.26394
   Z10        0.78051   0.00001   0.00000  -0.00089  -0.00088   0.77963
   X11        1.95900   0.00000   0.00000   0.00153   0.00141   1.96041
   Y11        4.02100   0.00000   0.00000   0.00066   0.00063   4.02163
   Z11       -2.36201   0.00000   0.00000  -0.00050  -0.00052  -2.36253
   X12        2.63135  -0.00000   0.00000  -0.00200  -0.00195   2.62940
   Y12        1.35886  -0.00000   0.00000  -0.00025  -0.00025   1.35862
   Z12        2.82159   0.00000   0.00000  -0.00051  -0.00053   2.82105
   X13        3.88218   0.00000   0.00000   0.00013   0.00006   3.88224
   Y13       -0.37137  -0.00000   0.00000   0.00016   0.00013  -0.37123
   Z13       -0.73979  -0.00001   0.00000   0.00004  -0.00002  -0.73981
   X14        4.65547  -0.00000   0.00000  -0.00070  -0.00073   4.65474
   Y14       -2.34024   0.00000   0.00000  -0.00006  -0.00008  -2.34031
   Z14        0.11495   0.00000   0.00000   0.00029   0.00021   0.11517
   X15       -0.83390   0.00000   0.00000  -0.00013  -0.00014  -0.83403
   Y15       -4.88619  -0.00001   0.00000  -0.00051  -0.00052  -4.88671
   Z15        0.95492  -0.00000   0.00000  -0.00039  -0.00027   0.95465
   X16        3.98449  -0.00000   0.00000   0.00157   0.00144   3.98592
   Y16        0.03163   0.00000   0.00000   0.00047   0.00044   0.03207
   Z16       -2.81575   0.00000   0.00000   0.00018   0.00011  -2.81564
         Item               Value     Threshold  Converged?
 Maximum Force            0.000015     0.000450     YES
 RMS     Force            0.000005     0.000300     YES
 Maximum Displacement     0.001953     0.001800     NO 
 RMS     Displacement     0.000569     0.001200     YES
 Predicted change in Energy=-4.324252D-09
 GradGradGradGradGradGradGradGradGradGradGradGradGradGradGradGradGradGrad


 ----------------------------------------------------------------------

 Electric dipole moment (input orientation):
 (Debye = 10**-18 statcoulomb cm , SI units = C m)
                  (au)            (Debye)         (10**-30 SI)
   Tot        0.974684D+00      0.247740D+01      0.826371D+01
   x         -0.396021D+00     -0.100658D+01     -0.335760D+01
   y          0.295047D+00      0.749935D+00      0.250151D+01
   z         -0.840311D+00     -0.213586D+01     -0.712446D+01

 Dipole polarizability, Alpha (input orientation).
 (esu units = cm**3 , SI units = C**2 m**2 J**-1)
 Alpha(0;0):
               (au)            (10**-24 esu)      (10**-40 SI)
   iso        0.745795D+02      0.110515D+02      0.122965D+02
   aniso      0.533083D+02      0.789948D+01      0.878936D+01
   xx         0.585434D+02      0.867524D+01      0.965251D+01
   yx        -0.228622D+02     -0.338782D+01     -0.376946D+01
   yy         0.912737D+02      0.135254D+02      0.150490D+02
   zx         0.105776D+02      0.156745D+01      0.174402D+01
   zy        -0.667483D+01     -0.989108D+00     -0.110053D+01
   zz         0.739214D+02      0.109540D+02      0.121880D+02

 ----------------------------------------------------------------------

 Dipole orientation:
     8         -3.99337353         -1.79167035          1.36321768
     6          2.05494227         -3.60064614          0.65752631
     6         -2.19730994          2.68499135         -1.09953174
     6          2.28832176         -2.00042940         -1.28063196
     6         -3.49610302          0.10139328          2.53958729
     6         -2.53820888          2.47404864          1.39436987
     1         -3.73900322          0.15169230          4.63592451
     1         -2.63613573          1.08999425         -2.33879301
     1         -2.11959861          4.03995269          2.67757200
     1          0.89728843         -5.30383785          0.53406786
     1          3.01061536         -3.23751521          2.45761609
     1          1.34139224         -2.31992015         -3.09038927
     6          3.81406152          0.32062037         -1.05197225
     8          4.04147045          1.88278715         -2.69906957
     1         -1.47069010          4.41176064         -1.96355186
     1          4.77739564          0.55910588          0.81821356

 Electric dipole moment (dipole orientation):
 (Debye = 10**-18 statcoulomb cm , SI units = C m)
                  (au)            (Debye)         (10**-30 SI)
   Tot        0.974684D+00      0.247740D+01      0.826371D+01
   x          0.000000D+00      0.000000D+00      0.000000D+00
   y          0.000000D+00      0.000000D+00      0.000000D+00
   z          0.974684D+00      0.247740D+01      0.826371D+01

 Dipole polarizability, Alpha (dipole orientation).
 (esu units = cm**3 , SI units = C**2 m**2 J**-1)
 Alpha(0;0):
               (au)            (10**-24 esu)      (10**-40 SI)
   iso        0.745795D+02      0.110515D+02      0.122965D+02
   aniso      0.533083D+02      0.789948D+01      0.878936D+01
   xx         0.509973D+02      0.755702D+01      0.840832D+01
   yx         0.146664D+02      0.217334D+01      0.241816D+01
   yy         0.832501D+02      0.123364D+02      0.137261D+02
   zx        -0.501600D+01     -0.743295D+00     -0.827027D+00
   zy        -0.167383D+02     -0.248035D+01     -0.275977D+01
   zz         0.894911D+02      0.132612D+02      0.147551D+02

 ----------------------------------------------------------------------
 Unable to Open any file for archive entry.
 1\1\GINC-NODE-001\Freq\RwB97XD\def2SVP\C6H8O2\JP2658\30-Dec-2023\0\\# 
 wb97xd def2svp scrf=(iefpcm,solvent=toluene) freq=noraman\\da-1_1_opt_
 sqm.out\\0,1\O,-2.15634,0.98025,0.52368\C,0.9755,1.98877,-0.16503\C,-0
 .91712,-1.60385,0.54397\C,1.44884,0.88133,0.41269\C,-2.23562,0.2336,-0
 .42317\C,-1.61036,-1.11014,-0.48672\H,-2.80525,0.53561,-1.3354\H,-0.80
 655,-1.0152,1.4592\H,-1.73911,-1.67782,-1.41299\H,0.50328,2.78547,0.41
 303\H,1.03666,2.12782,-1.24992\H,1.39245,0.71908,1.49312\C,2.05436,-0.
 19652,-0.39148\O,2.46357,-1.2384,0.06083\H,-0.44128,-2.58566,0.50532\H
 ,2.1085,0.01674,-1.49003\\Version=ES64L-G16RevC.01\State=1-A\HF=-383.4
 143564\RMSD=8.670e-09\RMSF=4.784e-06\ZeroPoint=0.124454\Thermal=0.1343
 511\ETot=-383.2800053\HTot=-383.2790611\GTot=-383.3275628\Dipole=-0.39
 60206,0.295047,-0.8403112\DipoleDeriv=-0.5195638,0.0901363,-0.0708818,
 0.1421262,-0.9070646,-0.1986809,0.0092893,-0.4290638,-0.7369595,-0.102
 7102,-0.1669692,-0.0208667,-0.1309522,0.0912821,-0.0145098,-0.0023182,
 -0.1135121,0.0803549,-0.0401005,-0.1539982,0.0978628,-0.0713307,0.0235
 284,0.0217459,0.1333197,-0.0951292,0.0584577,-0.2915874,0.2289297,-0.0
 140442,0.1696558,-0.5589643,-0.0550088,0.1112869,-0.2355081,-0.0437704
 ,0.6457567,-0.3973369,0.287976,-0.4720918,1.2235418,-0.0009981,0.26857
 02,0.1601561,0.8646257,-0.4169517,0.2716121,-0.0710357,0.238432,-0.483
 1233,0.2463545,-0.1232112,0.4036871,-0.1036316,-0.0429471,0.0622537,-0
 .1382456,0.0620448,0.0016783,0.0640041,-0.1672079,0.0824076,-0.1802447
 ,0.1301635,0.0381114,-0.0160677,0.002712,0.0728388,-0.0838698,-0.04086
 78,-0.0380762,0.0448551,0.1211845,0.0291299,-0.0502649,0.026455,0.0491
 809,-0.0560296,-0.0512708,-0.0737499,-0.0289199,0.1120347,0.0598194,0.
 0179689,0.0457076,0.0577095,-0.0145024,0.0311834,-0.0429189,0.0510467,
 0.1305907,0.028791,0.028976,0.031171,0.0993306,-0.0278879,0.0082543,0.
 035614,-0.0501255,0.1399884,0.040432,0.024181,0.0479792,0.0569775,0.04
 08659,0.0324045,0.0073798,-0.0366347,0.5868938,-0.5458032,0.002154,-0.
 4592715,1.4063497,-0.1711605,-0.2181816,0.1634062,0.8136986,-0.6004963
 ,0.3397466,-0.0632012,0.3121458,-1.1765913,0.1815374,-0.033938,0.19608
 41,-0.5727634,0.0988424,0.0609494,-0.0229739,0.0530044,0.0279427,-0.00
 02041,-0.0109225,-0.0236321,0.0877852,0.0489022,0.0141959,0.008463,0.0
 022123,0.015383,0.0683442,0.0536099,0.0028553,-0.2477741\Polar=58.5434
 347,-22.8621618,91.2736567,10.5776452,-6.6748293,73.9214187\Quadrupole
 =-4.6657747,1.1664321,3.4993425,6.6291331,2.1013656,-1.1150627\PG=C01 
 [X(C6H8O2)]\NImag=1\\0.04996505,0.01038777,0.38427977,0.06169437,0.396
 68285,0.57147634,-0.00122767,0.00015438,0.00043418,0.26558882,-0.00016
 261,-0.00042599,-0.00005330,-0.28244097,0.71762978,-0.00032183,-0.0003
 3925,-0.00030359,-0.02067218,-0.09667345,0.68177796,-0.00121204,-0.005
 36018,-0.00571527,-0.00005002,-0.00011799,-0.00011274,0.35069282,0.000
 33756,0.00136335,0.00346667,0.00025019,-0.00015429,-0.00015299,-0.2331
 0056,0.61111055,0.00013321,-0.00824088,-0.00876773,0.00007949,-0.00016
 677,-0.00035241,0.24607473,0.01546913,0.70734384,-0.00099327,-0.000910
 40,-0.00068513,-0.12178629,0.15926168,-0.06332439,-0.00050794,-0.00038
 371,0.00018056,0.23874968,0.00027533,0.00111262,0.00062964,0.16055105,
 -0.42016352,0.16929988,-0.00064582,-0.00051313,0.00017210,-0.24963305,
 0.67593061,0.00058526,0.00075167,0.00032775,-0.06776514,0.17654098,-0.
 21167732,0.00008486,0.00013481,0.00047892,0.00236713,-0.15645261,0.717
 25500,-0.08262066,-0.01920369,-0.05889019,-0.00038360,-0.00048291,0.00
 012079,-0.00752112,0.02072303,-0.00648096,-0.00016332,0.00056625,-0.00
 023077,0.32087973,-0.01605740,-0.34748104,-0.33064495,-0.00146943,0.00
 031580,-0.00000312,0.02026807,-0.01468938,0.01948785,0.00052584,-0.002
 09752,-0.00056243,-0.09960398,0.64882189,-0.05593264,-0.33580121,-0.53
 627318,-0.00033971,-0.00016219,0.00057375,-0.00856480,0.02490524,0.013
 06290,0.00077248,-0.00050842,-0.00052557,0.16578189,0.25916150,0.82366
 033,0.01843555,0.01385812,0.01518212,-0.00050370,0.00036416,-0.0001319
 8,-0.19330028,0.10720593,-0.19950782,-0.00049900,-0.00131266,0.0000627
 4,-0.11301524,0.04933273,-0.02344673,0.32192707,0.01259362,-0.04790182
 ,-0.03960147,0.00039030,-0.00035198,-0.00003671,0.10238299,-0.16518797
 ,0.11150890,-0.00024068,0.00029059,0.00001112,0.06284086,-0.19022802,0
 .01716239,-0.18407148,0.52752563,0.01471182,-0.03857806,0.00976584,0.0
 0013068,0.00006733,0.00029844,-0.20434917,0.12105815,-0.38693090,0.000
 14878,0.00018350,-0.00052115,-0.00835265,-0.01327338,-0.11256308,0.261
 82327,0.03623218,0.75243865,0.01627714,-0.00392831,-0.01399494,0.00006
 231,-0.00005544,-0.00003622,0.00002141,0.00331065,0.00085179,0.0001113
 0,0.00001163,-0.00005077,-0.12274815,0.04364985,-0.08485818,0.00817660
 ,0.00827264,-0.01680980,0.09991894,-0.01156887,0.01630946,-0.02974589,
 0.00003679,-0.00004551,0.00003225,0.00259453,-0.00526020,-0.00140555,0
 .00000802,0.00010995,-0.00002427,0.04084721,-0.09109623,0.05767515,0.0
 1917384,-0.00088937,0.01980907,-0.05061475,0.08136627,-0.02196784,-0.0
 1331182,-0.04003399,-0.00004695,0.00008376,-0.00009558,0.00006023,0.00
 013365,0.00159900,-0.00011199,-0.00010713,0.00007816,-0.08783240,0.063
 81841,-0.18480939,-0.00532355,-0.00397850,0.00418597,0.11453458,-0.047
 40471,0.21938911,0.00113020,0.00059650,0.00084553,0.00007132,-0.000001
 87,-0.00009191,-0.04855445,-0.00913211,-0.02669030,-0.00027435,-0.0000
 2590,0.00031526,-0.00644345,-0.00432434,0.00150025,0.00504225,-0.00841
 130,-0.01492335,0.00066449,0.00022816,0.00012379,0.03628710,0.00043358
 ,-0.00011521,-0.00032266,0.00006725,-0.00001081,-0.00005070,-0.0105851
 4,-0.14037725,-0.13687415,-0.00009383,-0.00022135,0.00009265,-0.002568
 14,-0.00224598,0.00203319,0.00185594,0.01267308,0.01009151,-0.00010727
 ,0.00021710,-0.00072548,0.00930670,0.13509584,0.00046685,0.00007661,0.
 00211951,-0.00020257,0.00003674,-0.00003418,-0.02854676,-0.13248114,-0
 .25657861,-0.00014008,-0.00035276,0.00002021,0.00328285,-0.00104384,-0
 .00279494,-0.00276727,-0.01453178,-0.01509716,-0.00019878,-0.00006589,
 0.00019173,0.03526262,0.14494359,0.26850736,0.00039682,0.00430201,-0.0
 0073009,-0.00001054,0.00002894,0.00002091,0.00350150,-0.00860864,-0.01
 530565,-0.00004482,0.00004240,0.00002991,0.00385770,0.00480279,0.01260
 787,-0.04813982,-0.01017450,-0.03307658,-0.00061089,-0.00063322,-0.000
 18317,0.00667766,0.00518913,-0.00534768,0.03943611,0.00428141,-0.00673
 667,-0.00057344,0.00003564,0.00002408,-0.00004743,0.00351180,0.0109408
 0,0.01366502,-0.00004041,0.00005621,0.00008848,-0.00785883,-0.00486377
 ,-0.02392217,-0.01036267,-0.13346195,-0.13028939,-0.00002568,0.0000692
 8,0.00117530,0.00526932,0.00105818,0.00041776,0.00824964,0.13367758,-0
 .00062374,-0.00079067,0.00028499,-0.00001584,0.00001555,0.00001716,-0.
 00192188,-0.01436172,-0.01427804,-0.00004024,-0.00001192,-0.00004173,-
 0.00169355,0.00525763,0.00287120,-0.03303047,-0.12976782,-0.25822525,0
 .00051209,-0.00031123,-0.00013673,-0.00522250,0.00013557,-0.00016541,0
 .03918827,0.13846683,0.26992387,0.00001644,0.00012161,0.00012312,-0.09
 926085,0.10011098,0.07018069,-0.00006042,-0.00004715,0.00003752,0.0047
 0574,0.00806902,0.00792901,0.00004671,-0.00012291,-0.00017195,-0.00001
 807,-0.00003131,-0.00001467,0.00000412,0.00000372,0.00003278,0.0000255
 6,-0.00000503,-0.00000940,0.00000164,0.00002150,0.00000297,0.08896926,
 0.00034084,0.00041423,0.00027042,0.09865184,-0.20901225,-0.11424933,-0
 .00001427,0.00000164,0.00003587,0.01203445,-0.01062896,-0.01581651,0.0
 0004407,-0.00044484,-0.00035645,-0.00008548,0.00007109,-0.00005499,-0.
 00001640,0.00000671,0.00007514,0.00003068,-0.00002503,-0.00000154,0.00
 000341,0.00002697,0.00001175,-0.11094766,0.21464267,0.00018432,0.00024
 901,-0.00002840,0.07219522,-0.11923405,-0.14429568,-0.00001924,0.00000
 652,0.00004033,-0.00712809,0.01401507,0.01243751,0.00003335,-0.0002165
 1,-0.00014631,-0.00005061,0.00000380,-0.00003247,-0.00000215,-0.000008
 47,-0.00001644,0.00000375,0.00000059,0.00001603,0.00000318,0.00002010,
 0.00000090,-0.07561563,0.12203539,0.14074265,0.00007660,0.00009292,-0.
 00006155,-0.04429474,0.00526772,0.02019009,0.00011818,0.00003567,0.000
 00943,0.00694348,0.00173677,-0.01141249,-0.00000350,-0.00015677,0.0000
 5613,-0.00003139,0.00009840,-0.00010058,-0.00001963,0.00001985,-0.0000
 5268,-0.00003768,-0.00000345,0.00004445,-0.00001719,-0.00001953,0.0000
 1233,0.00366207,-0.00147586,0.01113082,0.03123279,0.00010251,0.0000490
 3,0.00003339,0.00578437,-0.05828249,0.03123983,0.00008318,0.00003513,0
 .00004003,-0.00139686,0.00272783,0.02638573,-0.00011800,-0.00005416,-0
 .00003533,0.00003472,0.00008345,-0.00008830,0.00000342,0.00001047,0.00
 001440,0.00001664,0.00000562,0.00001574,-0.00002459,-0.00001411,-0.000
 00203,0.00128133,0.00601695,-0.01928769,-0.00848312,0.05156692,0.00003
 895,-0.00002967,0.00009565,0.01864061,0.03432633,-0.33740549,-0.000015
 94,-0.00001505,-0.00007633,0.00151858,0.00093990,-0.00919803,0.0000467
 8,0.00014421,-0.00010195,0.00003033,-0.00004445,0.00007601,0.00001966,
 -0.00000868,0.00003996,-0.00003588,-0.00001026,0.00000975,0.00000862,0
 .00000338,0.00001027,-0.00116851,0.00510304,-0.00822806,-0.01932969,-0
 .04024317,0.35311984,0.00025861,0.00000443,0.00019045,0.00594289,0.002
 73102,-0.01179239,-0.00010566,-0.00011375,-0.00017110,-0.04362339,0.00
 348760,0.01862736,-0.00011779,0.00005935,-0.00019810,0.00012231,0.0000
 0126,0.00005146,0.00000199,-0.00001498,0.00008369,-0.00023776,-0.00029
 320,-0.00000598,0.00002054,-0.00000239,0.00003497,-0.00575198,-0.00340
 370,-0.00079178,0.00824499,0.00596169,0.00029123,0.03235986,0.00003133
 ,-0.00015627,-0.00009793,-0.00099422,0.00095068,0.02707656,-0.00005443
 ,-0.00017956,-0.00014209,0.00367664,-0.05841384,0.03919774,-0.00012412
 ,0.00022878,0.00004168,0.00011646,-0.00005314,0.00007035,0.00000656,-0
 .00001573,0.00000479,-0.00033114,-0.00006213,0.00002770,0.00001802,-0.
 00001559,0.00003642,-0.00327575,-0.00067561,-0.00053855,0.00586053,-0.
 00123068,0.00203538,-0.00712305,0.05431400,0.00026500,-0.00002222,0.00
 009386,0.00218403,-0.00152658,-0.00545095,0.00009743,-0.00002328,-0.00
 023655,0.01720493,0.04086885,-0.33893536,-0.00015385,0.00013954,-0.000
 22809,0.00010870,-0.00007229,0.00009582,0.00000410,-0.00002879,0.00008
 485,-0.00015281,-0.00007829,0.00016978,0.00000002,-0.00000792,0.000051
 00,-0.00082955,-0.00039566,0.00057669,0.00067858,0.00141735,0.00058408
 ,-0.01882942,-0.04551892,0.35406866,0.00095915,0.00075339,0.00053341,-
 0.00494018,0.01647883,0.00009253,-0.00114741,-0.00128083,0.00040966,-0
 .10096086,0.03374214,0.04189815,-0.00050995,-0.00061185,-0.00097906,-0
 .00030636,0.00041636,-0.00051570,-0.00004491,-0.00006275,0.00016824,0.
 00001771,-0.00009373,0.00024764,0.00001523,0.00000178,0.00010062,0.011
 65990,0.00581379,0.00143488,-0.00777882,-0.00410645,0.00067184,0.00278
 978,0.00149482,-0.00148541,0.31204547,-0.00102469,-0.00257707,-0.00155
 805,0.01924600,-0.03439937,-0.00288683,-0.00091655,0.00048458,0.000273
 12,0.03312150,-0.13265343,-0.06212267,-0.00064114,0.00363988,0.0014319
 4,0.00109570,-0.00144368,0.00038812,0.00031916,-0.00014386,0.00001887,
 -0.00004660,0.00038165,-0.00002731,-0.00009441,-0.00006228,-0.00009122
 ,0.00574933,0.00204449,0.00152909,-0.00313904,-0.00223576,-0.00417905,
 -0.00241740,0.00634959,0.00767463,-0.26542565,0.83241563,-0.00095918,-
 0.00063535,-0.00052455,-0.00720981,0.01233094,0.01677930,0.00034340,0.
 00004888,0.00016047,0.04561278,-0.06757747,-0.18338073,0.00049974,0.00
 020018,0.00109745,-0.00020936,0.00050634,-0.00013904,-0.00010255,0.000
 10111,-0.00023728,0.00019678,-0.00011599,-0.00036792,-0.00020656,-0.00
 018102,-0.00014041,-0.00055474,0.00474292,-0.00213794,-0.00247596,0.00
 263440,0.00088670,0.01307893,-0.02329153,-0.01288829,0.01877680,-0.183
 17033,0.66011981,-0.00068032,-0.00013339,-0.00006009,0.00155354,0.0003
 2106,0.00533616,-0.00124180,-0.00023723,-0.00004915,0.00487140,0.03896
 377,-0.00633989,0.00051217,-0.00005995,0.00043559,-0.00026375,0.000023
 82,0.00039403,-0.00005904,0.00003741,-0.00012253,0.00017456,0.00002065
 ,-0.00018730,0.00003914,0.00001839,-0.00004946,-0.00310607,-0.00053316
 ,-0.00103873,0.00158414,0.00048403,-0.00020542,-0.00095198,-0.00186676
 ,-0.00026954,-0.14973915,0.21664491,-0.08610928,0.13060237,0.00071398,
 0.00184833,0.00105841,0.00068208,0.00293052,-0.01160134,0.00002258,-0.
 00084663,0.00001990,0.03676852,-0.06230459,0.01207135,0.00053528,-0.00
 269001,-0.00101780,-0.00104384,0.00122573,-0.00041816,-0.00022487,0.00
 010730,-0.00003905,0.00005070,-0.00022718,0.00005518,0.00002055,-0.000
 01029,0.00007144,-0.00045484,-0.00233215,0.00116746,0.00006254,0.00117
 686,0.00095548,-0.00141426,0.00139286,-0.00076790,0.21527551,-0.611322
 05,0.23487072,-0.26244746,0.68382419,0.00009800,-0.00025943,-0.0000461
 0,0.00311489,-0.00583651,-0.00030414,0.00005685,0.00019921,-0.00007564
 ,0.00194726,-0.00706642,0.02984572,-0.00026299,0.00057774,-0.00013589,
 0.00021664,-0.00048150,0.00025372,0.00011192,-0.00005730,0.00009311,-0
 .00022433,0.00016515,0.00009886,0.00010220,0.00004799,0.00006496,0.000
 05558,-0.00096169,0.00058848,0.00077496,-0.00108864,-0.00024357,-0.002
 19770,0.00324456,0.00316890,-0.08427239,0.23143902,-0.21517241,0.09649
 700,-0.26491708,0.19494043,-0.00077497,-0.00065278,0.00120677,0.000032
 50,-0.00006905,0.00004147,-0.10059550,0.12097969,0.00046529,-0.0000120
 9,0.00016976,-0.00002551,0.00827207,0.00362078,-0.00673690,0.00228896,
 0.01596834,0.00088575,-0.00175833,-0.00005114,0.00063729,0.00546771,-0
 .00316426,-0.00191292,-0.00511864,-0.00306811,0.00274691,-0.00001749,0
 .00000221,-0.00000658,0.00000235,-0.00000069,-0.00000177,0.00001457,-0
 .00000027,-0.00001314,0.00014306,-0.00045824,0.00013352,-0.00022518,0.
 00032239,-0.00006176,0.09231078,-0.00065458,0.00001590,0.00043880,-0.0
 0000991,-0.00002054,0.00007069,0.12200391,-0.29669659,-0.01378447,-0.0
 0013897,0.00015984,-0.00002408,0.00499676,0.00291301,-0.00061491,0.003
 86638,-0.00237052,-0.00526223,-0.00058994,-0.00075256,0.00024525,0.006
 77760,-0.00612013,0.00293800,-0.00311126,-0.00068225,0.00134644,-0.000
 00823,0.00002102,-0.00000372,0.00001441,-0.00000064,-0.00000450,0.0000
 3544,-0.00000423,0.00002382,0.00037451,-0.00090290,0.00019244,0.000143
 12,0.00068238,-0.00022299,-0.13363317,0.30372377,0.00140735,0.00006574
 ,0.00160441,-0.00002921,0.00003608,0.00001617,0.00260277,-0.01841679,-
 0.05526220,-0.00002254,-0.00000948,-0.00001197,-0.00582938,-0.00290455
 ,-0.00336078,-0.01291646,0.02321905,0.00627724,-0.00001210,0.00146373,
 -0.00039845,0.00917387,-0.01928533,0.00384794,0.00281534,0.00107653,-0
 .00028039,-0.00000175,0.00000554,-0.00000961,0.00000337,0.00000617,0.0
 0000711,0.00006984,0.00000474,0.00003846,0.00005485,-0.00007919,0.0000
 7131,0.00004648,0.00010293,-0.00018102,0.00267897,0.01469323,0.0476777
 5,-0.00000663,-0.00008239,-0.00007268,-0.00079379,-0.00123355,0.000500
 97,-0.00003727,0.00006126,-0.00003671,0.01348371,0.00400171,0.01392490
 ,-0.00004161,0.00014722,0.00007383,0.00008488,-0.00005932,-0.00000328,
 0.00000266,-0.00000381,0.00000050,-0.00001087,0.00004079,0.00001431,-0
 .00000444,-0.00001184,-0.00000048,-0.00087658,-0.00044477,-0.00033271,
 0.00031836,0.00037781,-0.00050939,0.00103301,0.00256538,0.00119092,-0.
 06220267,-0.00201290,0.01918549,0.01692995,0.01113114,-0.01595613,-0.0
 0002979,-0.00006607,-0.00004140,0.03215110,-0.00002977,0.00000141,0.00
 001752,-0.00093536,0.00101588,-0.00167810,-0.00007210,-0.00003105,-0.0
 0005799,0.00744126,0.00660869,-0.02027195,0.00004735,-0.00002840,0.000
 00741,-0.00002784,0.00001889,0.00006430,-0.00001126,0.00000693,-0.0000
 0288,-0.00000304,-0.00002640,-0.00000706,-0.00001028,-0.00000621,-0.00
 000503,-0.00046461,-0.00012694,0.00026197,0.00008893,0.00014558,0.0010
 2712,0.00250193,-0.00242912,-0.00168233,-0.00276986,-0.05957542,0.0193
 4375,0.00862077,-0.01345527,0.04521789,0.00003454,0.00003444,0.0000216
 0,-0.01441066,0.06784699,0.00022009,0.00018268,0.00020920,-0.00049766,
 0.00021514,0.00045655,-0.00007447,0.00002873,-0.00012705,0.00169995,0.
 00597729,-0.01615143,-0.00003866,-0.00013830,-0.00032646,-0.00003957,-
 0.00012926,0.00011738,0.00003133,-0.00002053,0.00006597,-0.00008078,0.
 00000062,0.00005705,0.00007340,0.00005997,0.00004362,0.00000454,-0.000
 44390,0.00049232,0.00053280,-0.00104188,0.00042406,0.00155853,-0.00215
 091,-0.00119286,0.02286394,0.01135985,-0.26412647,-0.00827789,0.028388
 47,-0.01289540,-0.00003741,-0.00003174,-0.00003597,-0.01793815,-0.0422
 5623,0.29298950\\0.00000139,0.00000232,0.00000605,-0.00000532,0.000009
 27,0.00000228,0.00000469,-0.00001517,-0.00000282,0.00000091,0.00000105
 ,-0.00000100,-0.00000591,-0.00000189,-0.00001194,-0.00000098,-0.000003
 96,-0.00000510,0.00000269,-0.00000383,0.00000259,0.00000100,0.00000623
 ,0.00000571,0.00000138,0.00000232,0.00000554,0.00000371,-0.00000609,-0
 .00000712,-0.00000007,-0.00000178,-0.00000103,0.00000022,0.00000078,-0
 .00000142,-0.00000233,0.00000419,0.00000513,0.00000269,-0.00000155,0.,
 -0.00000461,0.00001019,0.00000348,0.00000054,-0.00000209,-0.00000034\\
 \@
 The archive entry for this job was punched.


 A MAN SHOULD NEVER BE ASHAMED TO OWN HE HAS BEEN IN THE WRONG
 WHICH IS BUT SAYING IN OTHER WORDS,
 THAT HE IS WISER TODAY THAN HE WAS YESTERDAY.

                          -- JONATHAN SWIFT
 Job cpu time:       0 days  0 hours  8 minutes 37.9 seconds.
 Elapsed time:       0 days  0 hours  0 minutes 43.7 seconds.
 File lengths (MBytes):  RWF=     88 Int=      0 D2E=      0 Chk=      7 Scr=      1
 Normal termination of Gaussian 16 at Sat Dec 30 22:30:18 2023.
