Unloading slurm/anatra/current
  ERROR: No such file or directory on
    '/cm/local/modulefiles/slurm/anatra/current'
environment: line 0: unalias: gv: not found
environment: line 0: unalias: sl: not found
 Entering Gaussian System, Link 0=g16
 Initial command:
 /apps/gaussian/g16/C.01/g16/l1.exe "/local/jobs/1157663/Gau-3544879.inp" -scrdir="/local/jobs/1157663/"
 Entering Link 1 = /apps/gaussian/g16/C.01/g16/l1.exe PID=   3544882.
  
 Copyright (c) 1988-2019, Gaussian, Inc.  All Rights Reserved.
  
 This is part of the Gaussian(R) 16 program.  It is based on
 the Gaussian(R) 09 system (copyright 2009, Gaussian, Inc.),
 the Gaussian(R) 03 system (copyright 2003, Gaussian, Inc.),
 the Gaussian(R) 98 system (copyright 1998, Gaussian, Inc.),
 the Gaussian(R) 94 system (copyright 1995, Gaussian, Inc.),
 the Gaussian 92(TM) system (copyright 1992, Gaussian, Inc.),
 the Gaussian 90(TM) system (copyright 1990, Gaussian, Inc.),
 the Gaussian 88(TM) system (copyright 1988, Gaussian, Inc.),
 the Gaussian 86(TM) system (copyright 1986, Carnegie Mellon
 University), and the Gaussian 82(TM) system (copyright 1983,
 Carnegie Mellon University). Gaussian is a federally registered
 trademark of Gaussian, Inc.
  
 This software contains proprietary and confidential information,
 including trade secrets, belonging to Gaussian, Inc.
  
 This software is provided under written license and may be
 used, copied, transmitted, or stored only in accord with that
 written license.
  
 The following legend is applicable only to US Government
 contracts under FAR:
  
                    RESTRICTED RIGHTS LEGEND
  
 Use, reproduction and disclosure by the US Government is
 subject to restrictions as set forth in subparagraphs (a)
 and (c) of the Commercial Computer Software - Restricted
 Rights clause in FAR 52.227-19.
  
 Gaussian, Inc.
 340 Quinnipiac St., Bldg. 40, Wallingford CT 06492
  
  
 ---------------------------------------------------------------
 Warning -- This program may not be used in any manner that
 competes with the business of Gaussian, Inc. or will provide
 assistance to any competitor of Gaussian, Inc.  The licensee
 of this program is prohibited from giving any competitor of
 Gaussian, Inc. access to this program.  By using this program,
 the user acknowledges that Gaussian, Inc. is engaged in the
 business of creating and licensing software in the field of
 computational chemistry and represents and warrants to the
 licensee that it is not a competitor of Gaussian, Inc. and that
 it will not use this program in any manner prohibited above.
 ---------------------------------------------------------------
  

 Cite this work as:
 Gaussian 16, Revision C.01,
 M. J. Frisch, G. W. Trucks, H. B. Schlegel, G. E. Scuseria, 
 M. A. Robb, J. R. Cheeseman, G. Scalmani, V. Barone, 
 G. A. Petersson, H. Nakatsuji, X. Li, M. Caricato, A. V. Marenich, 
 J. Bloino, B. G. Janesko, R. Gomperts, B. Mennucci, H. P. Hratchian, 
 J. V. Ortiz, A. F. Izmaylov, J. L. Sonnenberg, D. Williams-Young, 
 F. Ding, F. Lipparini, F. Egidi, J. Goings, B. Peng, A. Petrone, 
 T. Henderson, D. Ranasinghe, V. G. Zakrzewski, J. Gao, N. Rega, 
 G. Zheng, W. Liang, M. Hada, M. Ehara, K. Toyota, R. Fukuda, 
 J. Hasegawa, M. Ishida, T. Nakajima, Y. Honda, O. Kitao, H. Nakai, 
 T. Vreven, K. Throssell, J. A. Montgomery, Jr., J. E. Peralta, 
 F. Ogliaro, M. J. Bearpark, J. J. Heyd, E. N. Brothers, K. N. Kudin, 
 V. N. Staroverov, T. A. Keith, R. Kobayashi, J. Normand, 
 K. Raghavachari, A. P. Rendell, J. C. Burant, S. S. Iyengar, 
 J. Tomasi, M. Cossi, J. M. Millam, M. Klene, C. Adamo, R. Cammi, 
 J. W. Ochterski, R. L. Martin, K. Morokuma, O. Farkas, 
 J. B. Foresman, and D. J. Fox, Gaussian, Inc., Wallingford CT, 2019.
 
 ******************************************
 Gaussian 16:  ES64L-G16RevC.01  3-Jul-2019
                16-Jan-2024 
 ******************************************
 %nprocshared=12
 Will use up to   12 processors via shared memory.
 %mem=48GB
 ----------------------------------------------------------------------
 # external="~/scripts/MiMe -H 'hf 6-31g(d)' -EF 'wb97xd def2svp' -c 12
  -m 48GB" opt=(calcall,ts,noeigen,maxcycles=50,maxstep=10,nomicro)
 ----------------------------------------------------------------------
 1/5=1,6=50,8=10,10=4,11=1,18=20,26=1,38=1/1,3;
 2/9=110,12=2,17=6,18=5,40=1/2;
 3/11=9,25=1,30=1,41=9900000,43=2,71=2,140=1/1;
 4/20=17,22=2,24=3,113=1,114=1/2;
 6/7=2,8=2,9=2,10=2,18=1/1;
 7/25=1,44=-1/16;
 1/5=1,6=50,8=10,10=4,11=1,18=20,26=1/3(3);
 2/9=110/2;
 7/8=1,9=1,25=1,44=-1/16;
 99//99;
 2/9=110/2;
 3/11=9,25=1,30=1,41=9900000,43=2,71=2,140=1/1;
 4/16=2,20=17,22=2,24=3,113=1,114=1/2;
 7/25=1,44=-1/16;
 1/5=1,6=50,8=10,10=4,11=1,18=20,26=1/3(-4);
 2/9=110/2;
 6/7=2,8=2,9=2,10=2,18=1/1;
 7/8=1,9=1,25=1,44=-1/16;
 99//99;
 -----
 *****
 -----
 Symbolic Z-matrix:
 Charge =  0 Multiplicity = 1
 O                     1.4571    1.0277   -0.4703 
 C                    -0.2447    1.596     0.2715 
 C                     0.5243   -1.1064    1.1767 
 C                    -0.9704    0.443     0.8253 
 C                     1.7089   -0.117    -0.8424 
 C                     1.2547   -1.2973   -0.0698 
 H                     2.2458   -0.3433   -1.7784 
 H                     1.0475   -0.4791    1.9054 
 H                     1.2246   -2.2497   -0.583 
 H                     0.1869    2.2996    0.9795 
 H                    -0.5702    1.9784   -0.6958 
 H                    -1.207     0.503     1.8865 
 C                    -2.0063   -0.2391   -0.0068 
 O                    -1.9637   -0.3005   -1.2288 
 H                     0.0393   -1.9945    1.5795 
 H                    -2.818    -0.7085    0.5735 
 
 Add virtual bond connecting atoms C2         and O1         Dist= 3.67D+00.

 GradGradGradGradGradGradGradGradGradGradGradGradGradGradGradGradGradGrad
 Berny optimization.
 Initialization pass.
                           ----------------------------
                           !    Initial Parameters    !
                           ! (Angstroms and Degrees)  !
 --------------------------                            --------------------------
 ! Name  Definition              Value          Derivative Info.                !
 --------------------------------------------------------------------------------
 ! R1    R(1,2)                  1.9415         calculate D2E/DX2 analytically  !
 ! R2    R(1,5)                  1.2297         calculate D2E/DX2 analytically  !
 ! R3    R(2,4)                  1.4706         calculate D2E/DX2 analytically  !
 ! R4    R(2,10)                 1.0875         calculate D2E/DX2 analytically  !
 ! R5    R(2,11)                 1.0899         calculate D2E/DX2 analytically  !
 ! R6    R(3,6)                  1.4573         calculate D2E/DX2 analytically  !
 ! R7    R(3,8)                  1.0946         calculate D2E/DX2 analytically  !
 ! R8    R(3,15)                 1.0891         calculate D2E/DX2 analytically  !
 ! R9    R(4,12)                 1.0889         calculate D2E/DX2 analytically  !
 ! R10   R(4,13)                 1.4936         calculate D2E/DX2 analytically  !
 ! R11   R(5,6)                  1.482          calculate D2E/DX2 analytically  !
 ! R12   R(5,7)                  1.1025         calculate D2E/DX2 analytically  !
 ! R13   R(6,9)                  1.0823         calculate D2E/DX2 analytically  !
 ! R14   R(13,14)                1.2243         calculate D2E/DX2 analytically  !
 ! R15   R(13,16)                1.1027         calculate D2E/DX2 analytically  !
 ! A1    A(2,1,5)              124.5813         calculate D2E/DX2 analytically  !
 ! A2    A(1,2,4)              110.2997         calculate D2E/DX2 analytically  !
 ! A3    A(1,2,10)              95.1782         calculate D2E/DX2 analytically  !
 ! A4    A(1,2,11)              91.4545         calculate D2E/DX2 analytically  !
 ! A5    A(4,2,10)             117.2544         calculate D2E/DX2 analytically  !
 ! A6    A(4,2,11)             117.5115         calculate D2E/DX2 analytically  !
 ! A7    A(10,2,11)            117.9918         calculate D2E/DX2 analytically  !
 ! A8    A(6,3,8)              113.886          calculate D2E/DX2 analytically  !
 ! A9    A(6,3,15)             115.6401         calculate D2E/DX2 analytically  !
 ! A10   A(8,3,15)             115.7174         calculate D2E/DX2 analytically  !
 ! A11   A(2,4,12)             115.5318         calculate D2E/DX2 analytically  !
 ! A12   A(2,4,13)             119.3742         calculate D2E/DX2 analytically  !
 ! A13   A(12,4,13)            114.6711         calculate D2E/DX2 analytically  !
 ! A14   A(1,5,6)              121.3901         calculate D2E/DX2 analytically  !
 ! A15   A(1,5,7)              123.207          calculate D2E/DX2 analytically  !
 ! A16   A(6,5,7)              115.3633         calculate D2E/DX2 analytically  !
 ! A17   A(3,6,5)              119.6827         calculate D2E/DX2 analytically  !
 ! A18   A(3,6,9)              120.4595         calculate D2E/DX2 analytically  !
 ! A19   A(5,6,9)              117.527          calculate D2E/DX2 analytically  !
 ! A20   A(4,13,14)            123.7007         calculate D2E/DX2 analytically  !
 ! A21   A(4,13,16)            114.3155         calculate D2E/DX2 analytically  !
 ! A22   A(14,13,16)           121.9743         calculate D2E/DX2 analytically  !
 ! D1    D(5,1,2,4)             22.8218         calculate D2E/DX2 analytically  !
 ! D2    D(5,1,2,10)           144.4087         calculate D2E/DX2 analytically  !
 ! D3    D(5,1,2,11)           -97.3151         calculate D2E/DX2 analytically  !
 ! D4    D(2,1,5,6)            -41.0115         calculate D2E/DX2 analytically  !
 ! D5    D(2,1,5,7)            136.5934         calculate D2E/DX2 analytically  !
 ! D6    D(1,2,4,12)           120.4906         calculate D2E/DX2 analytically  !
 ! D7    D(1,2,4,13)           -96.409          calculate D2E/DX2 analytically  !
 ! D8    D(10,2,4,12)           13.1052         calculate D2E/DX2 analytically  !
 ! D9    D(10,2,4,13)          156.2056         calculate D2E/DX2 analytically  !
 ! D10   D(11,2,4,12)         -136.6141         calculate D2E/DX2 analytically  !
 ! D11   D(11,2,4,13)            6.4863         calculate D2E/DX2 analytically  !
 ! D12   D(8,3,6,5)            -54.9362         calculate D2E/DX2 analytically  !
 ! D13   D(8,3,6,9)            142.822          calculate D2E/DX2 analytically  !
 ! D14   D(15,3,6,5)           167.4198         calculate D2E/DX2 analytically  !
 ! D15   D(15,3,6,9)             5.1779         calculate D2E/DX2 analytically  !
 ! D16   D(2,4,13,14)           30.3105         calculate D2E/DX2 analytically  !
 ! D17   D(2,4,13,16)         -150.7955         calculate D2E/DX2 analytically  !
 ! D18   D(12,4,13,14)         173.712          calculate D2E/DX2 analytically  !
 ! D19   D(12,4,13,16)          -7.394          calculate D2E/DX2 analytically  !
 ! D20   D(1,5,6,3)             -1.6488         calculate D2E/DX2 analytically  !
 ! D21   D(1,5,6,9)            161.1057         calculate D2E/DX2 analytically  !
 ! D22   D(7,5,6,3)           -179.4312         calculate D2E/DX2 analytically  !
 ! D23   D(7,5,6,9)            -16.6767         calculate D2E/DX2 analytically  !
 --------------------------------------------------------------------------------
 Trust Radius=1.00D-01 FncErr=1.00D-07 GrdErr=1.00D-07 EigMax=2.50D+02 EigMin=1.00D-04
 Number of steps in this run=     50 maximum allowed number of steps=    100.
 Search for a saddle point of order  1.
 GradGradGradGradGradGradGradGradGradGradGradGradGradGradGradGradGradGrad

                          Input orientation:                          
 ---------------------------------------------------------------------
 Center     Atomic      Atomic             Coordinates (Angstroms)
 Number     Number       Type             X           Y           Z
 ---------------------------------------------------------------------
      1          8           0        1.457100    1.027700   -0.470300
      2          6           0       -0.244700    1.596000    0.271500
      3          6           0        0.524300   -1.106400    1.176700
      4          6           0       -0.970400    0.443000    0.825300
      5          6           0        1.708900   -0.117000   -0.842400
      6          6           0        1.254700   -1.297300   -0.069800
      7          1           0        2.245800   -0.343300   -1.778400
      8          1           0        1.047500   -0.479100    1.905400
      9          1           0        1.224600   -2.249700   -0.583000
     10          1           0        0.186900    2.299600    0.979500
     11          1           0       -0.570200    1.978400   -0.695800
     12          1           0       -1.207000    0.503000    1.886500
     13          6           0       -2.006300   -0.239100   -0.006800
     14          8           0       -1.963700   -0.300500   -1.228800
     15          1           0        0.039300   -1.994500    1.579500
     16          1           0       -2.818000   -0.708500    0.573500
 ---------------------------------------------------------------------
                    Distance matrix (angstroms):
                    1          2          3          4          5
     1  O    0.000000
     2  C    1.941483   0.000000
     3  C    2.852562   2.951900   0.000000
     4  C    2.813043   1.470627   2.181341   0.000000
     5  C    1.229715   2.826959   2.541447   3.205226   0.000000
     6  C    2.367909   3.276564   1.457288   2.963261   1.481997
     7  H    2.052514   3.763717   3.504069   4.212062   1.102529
     8  H    2.842916   2.940315   1.094645   2.467550   2.849381
     9  H    3.287569   4.204571   2.212261   3.748595   2.202327
    10  H    2.309341   1.087472   3.428347   2.193190   3.387589
    11  H    2.250472   1.089885   3.770965   2.198035   3.099434
    12  H    3.595448   2.174602   2.468073   1.088910   4.041506
    13  C    3.716820   2.558960   2.925204   1.493566   3.809967
    14  O    3.747174   2.966913   3.553315   2.399742   3.697427
    15  H    3.917337   3.831868   1.089126   2.744033   3.489723
    16  H    4.730792   3.467535   3.419524   2.191570   4.779903
                    6          7          8          9         10
     6  C    0.000000
     7  H    2.193561   0.000000
     8  H    2.147975   3.876177   0.000000
     9  H    1.082287   2.471071   3.059170   0.000000
    10  H    3.896013   4.339355   3.052720   4.920809   0.000000
    11  H    3.801624   3.806858   3.927149   4.594656   1.866280
    12  H    3.623280   5.105834   2.459197   4.425886   2.448138
    13  C    3.428976   4.607578   3.611067   3.848796   3.496843
    14  O    3.563003   4.245443   4.349992   3.792321   4.032640
    15  H    2.164134   4.344030   1.849085   2.479207   4.338327
    16  H    4.165022   5.595255   4.094957   4.478326   4.271174
                   11         12         13         14         15
    11  H    0.000000
    12  H    3.041479   0.000000
    13  C    2.730277   2.184989   0.000000
    14  O    2.723842   3.305042   1.224283   0.000000
    15  H    4.618703   2.808028   3.127660   3.842941   0.000000
    16  H    3.726011   2.405623   1.102697   2.035824   3.290896
                   16
    16  H    0.000000
 Stoichiometry    C6H8O2
 Framework group  C1[X(C6H8O2)]
 Deg. of freedom    42
 Full point group                 C1      NOp   1
 Largest Abelian subgroup         C1      NOp   1
 Largest concise Abelian subgroup C1      NOp   1
                         Standard orientation:                         
 ---------------------------------------------------------------------
 Center     Atomic      Atomic             Coordinates (Angstroms)
 Number     Number       Type             X           Y           Z
 ---------------------------------------------------------------------
      1          8           0        1.456663    1.150187   -0.166589
      2          6           0       -0.295156    1.484708    0.600602
      3          6           0        0.577324   -1.309812    0.978956
      4          6           0       -0.980385    0.214072    0.881122
      5          6           0        1.777583    0.115798   -0.749039
      6          6           0        1.357444   -1.214233   -0.248222
      7          1           0        2.355984    0.105909   -1.687615
      8          1           0        1.043980   -0.820927    1.840043
      9          1           0        1.392065   -2.043889   -0.942352
     10          1           0        0.076943    2.048562    1.452780
     11          1           0       -0.606967    2.040330   -0.283653
     12          1           0       -1.254887    0.048655    1.921800
     13          6           0       -1.952636   -0.329229   -0.114011
     14          8           0       -1.866360   -0.140930   -1.320646
     15          1           0        0.124155   -2.280601    1.174920
     16          1           0       -2.758742   -0.939929    0.325510
 ---------------------------------------------------------------------
 Rotational constants (GHZ):           2.7622736           1.6518644           1.4942764
 Standard basis: STO-3G (5D, 7F)
 There are    48 symmetry adapted cartesian basis functions of A   symmetry.
 There are    48 symmetry adapted basis functions of A   symmetry.
    48 basis functions,   144 primitive gaussians,    48 cartesian basis functions
    30 alpha electrons       30 beta electrons
       nuclear repulsion energy       354.7323196843 Hartrees.
 NAtoms=   16 NActive=   16 NUniq=   16 SFac= 1.00D+00 NAtFMM=   60 NAOKFM=F Big=F
 Integral buffers will be    131072 words long.
 Raffenetti 1 integral format.
 Two-electron integral symmetry is turned on.
 External calculation of energy, first and second derivatives.
 Running external command "~/scripts/MiMe -H 'hf 6-31g(d)' -EF 'wb97xd def2svp' -c 12 -m 48GB R"
         input file       "/local/jobs/1157663/Gau-3544882.EIn"
         output file      "/local/jobs/1157663/Gau-3544882.EOu"
         message file     "/local/jobs/1157663/Gau-3544882.EMs"
         fchk file        "/local/jobs/1157663/Gau-3544882.EFC"
         mat. el file     "/local/jobs/1157663/Gau-3544882.EUF"
 Read checkpoint file Gau-3544882_H.chk type G16
 Write formatted file Gau-3544882_H.fchk

deriv: 2

spelevel: wb97xd def2svp
gradlevel: wb97xd def2svp
hesslevel: hf 6-31g(d)

runspe: False
runforce: True
runfreq: True

Running Gaussian ...

Parsing files ...
SPE file: Gau-3544882_F.out
FORCE file: Gau-3544882_F.out
HESS file: Gau-3544882_H.out

 ExternalExternalExternalExternalExternalExternalExternalExternalExternalExternal
 Output from external command:
 "~/scripts/MiMe -H 'hf 6-31g(d)' -EF 'wb97xd def2svp' -c 12 -m 48GB R /local/jobs/1157663/Gau-3544882.EIn /local/jobs/1157663/Gau-3544882.EOu /local/jobs/1157663/Gau-3544882.EMs /local/jobs/1157663/Gau-3544882.EFC /local/jobs/1157663/Gau-3544882.EUF"
  
 --------------------------------------------------
 Force calculation at wb97xd def2svp
 Hessian calculation at hf 6-31g(d)
 ExternalExternalExternalExternalExternalExternalExternalExternalExternalExternal

 Recovered energy= -383.350862788     dipole=      0.111200000000     -0.472700000000      2.721500000000
 Energy=    -383.350863     NIter=   0.
 Dipole moment=       0.111200      -0.472700       2.721500
 ***** Axes restored to original set *****
 -------------------------------------------------------------------
 Center     Atomic                   Forces (Hartrees/Bohr)
 Number     Number              X              Y              Z
 -------------------------------------------------------------------
      1        8          -0.000889665    0.042989829    0.009589756
      2        6          -0.017691260   -0.051241754    0.008575791
      3        6           0.032606798    0.006862943   -0.046765389
      4        6           0.013935932    0.018567655   -0.016312770
      5        6          -0.020384530   -0.081331990    0.036937832
      6        6          -0.011134781    0.049725083    0.007985470
      7        1          -0.002144649    0.007664424   -0.006353060
      8        1          -0.008803803    0.005326047    0.000881817
      9        1          -0.001567510   -0.006457468   -0.004267550
     10        1           0.003000679    0.001492007   -0.000928861
     11        1           0.002526325   -0.000292793   -0.001800962
     12        1           0.001019634    0.000014916    0.004672313
     13        6           0.024748504    0.010477005   -0.024056200
     14        8          -0.001929395    0.001653691    0.025999212
     15        1          -0.006487349    0.000170303    0.003095855
     16        1          -0.006804931   -0.005619897    0.002746746
 -------------------------------------------------------------------
 Cartesian Forces:  Max     0.081331990 RMS     0.021673989
 FormGI is forming the generalized inverse of G from B-inverse, IUseBI=4.

 GradGradGradGradGradGradGradGradGradGradGradGradGradGradGradGradGradGrad
 Berny optimization.
 Internal  Forces:  Max     0.092349869 RMS     0.021336701
 Search for a saddle point.
 Step number   1 out of a maximum of   50
 All quantities printed in internal units (Hartrees-Bohrs-Radians)
 Swapping is turned off.
 Second derivative matrix not updated -- analytic derivatives used.
 ITU=  0
     Eigenvalues ---   -0.83931   0.01024   0.01438   0.01695   0.02316
     Eigenvalues ---    0.02911   0.03625   0.04245   0.04627   0.07030
     Eigenvalues ---    0.07234   0.08958   0.09798   0.10705   0.11035
     Eigenvalues ---    0.12215   0.13984   0.14608   0.16411   0.16843
     Eigenvalues ---    0.17470   0.18365   0.21352   0.23513   0.25043
     Eigenvalues ---    0.26256   0.30282   0.31754   0.34190   0.34463
     Eigenvalues ---    0.35143   0.36310   0.37039   0.37499   0.37618
     Eigenvalues ---    0.38022   0.38768   0.51001   0.66812   0.79623
     Eigenvalues ---    0.84397   1.08284
 Eigenvectors required to have negative eigenvalues:
                          A1        R1        R6        R11       D4
   1                   -0.45547  -0.37065   0.28358  -0.27648   0.27592
                          R3        A14       A17       D5        D12
   1                    0.26433  -0.23050  -0.20148   0.19732  -0.16359
 RFO step:  Lambda0=1.094288177D-02 Lambda=-4.45366490D-02.
 Linear search not attempted -- option 19 set.
 Maximum step size (   0.100) exceeded in Quadratic search.
    -- Step size scaled by   0.303
 Iteration  1 RMS(Cart)=  0.02674615 RMS(Int)=  0.00027416
 Iteration  2 RMS(Cart)=  0.00034690 RMS(Int)=  0.00010708
 Iteration  3 RMS(Cart)=  0.00000009 RMS(Int)=  0.00010708
 Variable       Old X    -DE/DX   Delta X   Delta X   Delta X     New X
                                 (Linear)    (Quad)   (Total)
    R1        3.66887  -0.02421   0.00000   0.02287   0.02287   3.69175
    R2        2.32383   0.01569   0.00000   0.00884   0.00884   2.33267
    R3        2.77908  -0.03757   0.00000  -0.04840  -0.04840   2.73069
    R4        2.05502   0.00155   0.00000   0.00158   0.00158   2.05661
    R5        2.05958   0.00074   0.00000   0.00053   0.00053   2.06012
    R6        2.75388  -0.04366   0.00000  -0.04647  -0.04647   2.70740
    R7        2.06858  -0.00057   0.00000  -0.00131  -0.00131   2.06727
    R8        2.05815   0.00389   0.00000   0.00274   0.00274   2.06089
    R9        2.05774   0.00433   0.00000   0.00294   0.00294   2.06068
   R10        2.82243  -0.01669   0.00000  -0.01237  -0.01237   2.81006
   R11        2.80057  -0.06609   0.00000  -0.03919  -0.03919   2.76138
   R12        2.08348   0.00278   0.00000   0.00286   0.00286   2.08634
   R13        2.04523   0.00775   0.00000   0.00547   0.00547   2.05070
   R14        2.31356  -0.02610   0.00000  -0.00835  -0.00835   2.30521
   R15        2.08380   0.00885   0.00000   0.00808   0.00808   2.09187
    A1        2.17435  -0.09235   0.00000  -0.03288  -0.03288   2.14148
    A2        1.92509  -0.02602   0.00000   0.00933   0.00932   1.93442
    A3        1.66117   0.00893   0.00000  -0.01001  -0.01002   1.65115
    A4        1.59618   0.00518   0.00000  -0.01586  -0.01586   1.58032
    A5        2.04648   0.00056   0.00000   0.00676   0.00674   2.05321
    A6        2.05096   0.00829   0.00000   0.00601   0.00600   2.05696
    A7        2.05935  -0.00260   0.00000  -0.00495  -0.00506   2.05429
    A8        1.98769   0.01064   0.00000   0.02198   0.02160   2.00929
    A9        2.01830   0.00656   0.00000   0.01236   0.01198   2.03028
   A10        2.01965  -0.00426   0.00000  -0.00121  -0.00171   2.01794
   A11        2.01641   0.00307   0.00000   0.00999   0.00991   2.02632
   A12        2.08347  -0.00815   0.00000  -0.00306  -0.00314   2.08033
   A13        2.00139   0.00574   0.00000   0.00699   0.00689   2.00828
   A14        2.11866  -0.04313   0.00000   0.00828   0.00827   2.12693
   A15        2.15037   0.01302   0.00000  -0.01840  -0.01841   2.13196
   A16        2.01347   0.02956   0.00000   0.00976   0.00975   2.02322
   A17        2.08886  -0.03981   0.00000  -0.00146  -0.00148   2.08738
   A18        2.10242   0.01640   0.00000   0.00288   0.00286   2.10528
   A19        2.05123   0.01990   0.00000   0.00149   0.00147   2.05271
   A20        2.15898  -0.00054   0.00000   0.00126   0.00126   2.16024
   A21        1.99518   0.00268   0.00000   0.00252   0.00252   1.99770
   A22        2.12885  -0.00215   0.00000  -0.00376  -0.00376   2.12509
    D1        0.39832   0.01079   0.00000   0.00648   0.00648   0.40480
    D2        2.52041   0.00710   0.00000   0.01225   0.01217   2.53257
    D3       -1.69847   0.00578   0.00000   0.00465   0.00474  -1.69373
    D4       -0.71579   0.03512   0.00000  -0.00755  -0.00760  -0.72339
    D5        2.38401   0.01913   0.00000  -0.01793  -0.01787   2.36613
    D6        2.10296  -0.00009   0.00000  -0.00988  -0.00989   2.09307
    D7       -1.68265   0.00321   0.00000   0.01455   0.01458  -1.66808
    D8        0.22873   0.00549   0.00000  -0.00719  -0.00720   0.22153
    D9        2.72630   0.00878   0.00000   0.01725   0.01727   2.74357
   D10       -2.38437  -0.00568   0.00000  -0.02066  -0.02068  -2.40505
   D11        0.11321  -0.00238   0.00000   0.00378   0.00378   0.11699
   D12       -0.95882   0.00397   0.00000   0.04252   0.04266  -0.91615
   D13        2.49271   0.01354   0.00000   0.03149   0.03163   2.52435
   D14        2.92203  -0.00962   0.00000   0.00350   0.00336   2.92539
   D15        0.09037  -0.00005   0.00000  -0.00752  -0.00767   0.08270
   D16        0.52902  -0.00201   0.00000  -0.01443  -0.01443   0.51459
   D17       -2.63188  -0.00245   0.00000  -0.01352  -0.01352  -2.64540
   D18        3.03185   0.00038   0.00000   0.01090   0.01090   3.04275
   D19       -0.12905  -0.00006   0.00000   0.01181   0.01181  -0.11724
   D20       -0.02878   0.00508   0.00000  -0.00693  -0.00696  -0.03574
   D21        2.81182  -0.00443   0.00000   0.00404   0.00401   2.81583
   D22       -3.13166   0.02009   0.00000   0.00332   0.00335  -3.12832
   D23       -0.29106   0.01059   0.00000   0.01429   0.01432  -0.27675
         Item               Value     Threshold  Converged?
 Maximum Force            0.092350     0.000450     NO 
 RMS     Force            0.021337     0.000300     NO 
 Maximum Displacement     0.077131     0.001800     NO 
 RMS     Displacement     0.026785     0.001200     NO 
 Predicted change in Energy=-8.946262D-03
 GradGradGradGradGradGradGradGradGradGradGradGradGradGradGradGradGradGrad

                          Input orientation:                          
 ---------------------------------------------------------------------
 Center     Atomic      Atomic             Coordinates (Angstroms)
 Number     Number       Type             X           Y           Z
 ---------------------------------------------------------------------
      1          8           0        1.467998    1.026270   -0.458606
      2          6           0       -0.251508    1.580004    0.285157
      3          6           0        0.537713   -1.091820    1.167504
      4          6           0       -0.966057    0.446805    0.826776
      5          6           0        1.692358   -0.128909   -0.831378
      6          6           0        1.232374   -1.288233   -0.070027
      7          1           0        2.208928   -0.349710   -1.781804
      8          1           0        1.048527   -0.448345    1.889818
      9          1           0        1.183784   -2.241700   -0.585935
     10          1           0        0.181770    2.287347    0.989683
     11          1           0       -0.561991    1.960039   -0.688309
     12          1           0       -1.203810    0.493160    1.889996
     13          6           0       -1.979330   -0.241946   -0.015919
     14          8           0       -1.924166   -0.297752   -1.233258
     15          1           0        0.038031   -1.966316    1.585746
     16          1           0       -2.795821   -0.726593    0.553156
 ---------------------------------------------------------------------
                    Distance matrix (angstroms):
                    1          2          3          4          5
     1  O    0.000000
     2  C    1.953588   0.000000
     3  C    2.827715   2.922337   0.000000
     4  C    2.812937   1.445017   2.178254   0.000000
     5  C    1.234396   2.818802   2.501186   3.185606   0.000000
     6  C    2.358694   3.248822   1.432695   2.940699   1.461257
     7  H    2.047718   3.748315   3.470174   4.185649   1.104042
     8  H    2.804558   2.894690   1.093951   2.447428   2.814510
     9  H    3.282776   4.174241   2.194124   3.720972   2.186956
    10  H    2.311328   1.088311   3.402512   2.175233   3.381778
    11  H    2.246229   1.090166   3.737277   2.179135   3.076729
    12  H    3.597040   2.159542   2.463140   1.090465   4.022516
    13  C    3.699785   2.528936   2.908313   1.487022   3.762850
    14  O    3.722888   2.937574   3.529172   2.390832   3.642700
    15  H    3.896121   3.788371   1.090574   2.721651   3.457651
    16  H    4.719782   3.444669   3.409291   2.190837   4.734755
                    6          7          8          9         10
     6  C    0.000000
     7  H    2.182811   0.000000
     8  H    2.140142   3.851892   0.000000
     9  H    1.085182   2.461839   3.060028   0.000000
    10  H    3.874471   4.329501   3.007577   4.898864   0.000000
    11  H    3.762086   3.769438   3.878250   4.551134   1.864395
    12  H    3.598617   5.083240   2.441199   4.394349   2.439160
    13  C    3.378266   4.546588   3.583623   3.785396   3.475473
    14  O    3.506837   4.169660   4.314301   3.722542   4.007390
    15  H    2.151241   4.320487   1.848729   2.470787   4.297627
    16  H    4.114626   5.535485   4.079595   4.407985   4.259159
                   11         12         13         14         15
    11  H    0.000000
    12  H    3.035016   0.000000
    13  C    2.703645   2.185023   0.000000
    14  O    2.692603   3.301390   1.219866   0.000000
    15  H    4.576857   2.771959   3.099763   3.818522   0.000000
    16  H    3.707994   2.410277   1.106972   2.033461   3.260961
                   16
    16  H    0.000000
 Stoichiometry    C6H8O2
 Framework group  C1[X(C6H8O2)]
 Deg. of freedom    42
 Full point group                 C1      NOp   1
 Largest Abelian subgroup         C1      NOp   1
 Largest concise Abelian subgroup C1      NOp   1
                         Standard orientation:                         
 ---------------------------------------------------------------------
 Center     Atomic      Atomic             Coordinates (Angstroms)
 Number     Number       Type             X           Y           Z
 ---------------------------------------------------------------------
      1          8           0        1.461606    1.142449   -0.186287
      2          6           0       -0.305452    1.480041    0.575319
      3          6           0        0.586085   -1.270353    1.000230
      4          6           0       -0.980062    0.238684    0.878646
      5          6           0        1.753996    0.083338   -0.748894
      6          6           0        1.327929   -1.212151   -0.224064
      7          1           0        2.310269    0.058553   -1.702233
      8          1           0        1.041823   -0.745347    1.844860
      9          1           0        1.342403   -2.059042   -0.902435
     10          1           0        0.070301    2.067693    1.410721
     11          1           0       -0.603625    2.014586   -0.326798
     12          1           0       -1.252949    0.083731    1.922980
     13          6           0       -1.931416   -0.330759   -0.112261
     14          8           0       -1.835522   -0.165312   -1.317044
     15          1           0        0.117128   -2.226152    1.236622
     16          1           0       -2.740514   -0.943920    0.329079
 ---------------------------------------------------------------------
 Rotational constants (GHZ):           2.7912053           1.6784663           1.5244117
 Standard basis: STO-3G (5D, 7F)
 There are    48 symmetry adapted cartesian basis functions of A   symmetry.
 There are    48 symmetry adapted basis functions of A   symmetry.
    48 basis functions,   144 primitive gaussians,    48 cartesian basis functions
    30 alpha electrons       30 beta electrons
       nuclear repulsion energy       356.9866183567 Hartrees.
 NAtoms=   16 NActive=   16 NUniq=   16 SFac= 1.00D+00 NAtFMM=   60 NAOKFM=F Big=F
 Integral buffers will be    131072 words long.
 Raffenetti 1 integral format.
 Two-electron integral symmetry is turned on.
 External calculation of energy, first and second derivatives.
 Running external command "~/scripts/MiMe -H 'hf 6-31g(d)' -EF 'wb97xd def2svp' -c 12 -m 48GB R"
         input file       "/local/jobs/1157663/Gau-3544882.EIn"
         output file      "/local/jobs/1157663/Gau-3544882.EOu"
         message file     "/local/jobs/1157663/Gau-3544882.EMs"
         fchk file        "/local/jobs/1157663/Gau-3544882.EFC"
         mat. el file     "/local/jobs/1157663/Gau-3544882.EUF"
 Read checkpoint file Gau-3544882_H.chk type G16
 Write formatted file Gau-3544882_H.fchk

deriv: 2

spelevel: wb97xd def2svp
gradlevel: wb97xd def2svp
hesslevel: hf 6-31g(d)

runspe: False
runforce: True
runfreq: True

Running Gaussian ...

Parsing files ...
SPE file: Gau-3544882_F.out
FORCE file: Gau-3544882_F.out
HESS file: Gau-3544882_H.out

 ExternalExternalExternalExternalExternalExternalExternalExternalExternalExternal
 Output from external command:
 "~/scripts/MiMe -H 'hf 6-31g(d)' -EF 'wb97xd def2svp' -c 12 -m 48GB R /local/jobs/1157663/Gau-3544882.EIn /local/jobs/1157663/Gau-3544882.EOu /local/jobs/1157663/Gau-3544882.EMs /local/jobs/1157663/Gau-3544882.EFC /local/jobs/1157663/Gau-3544882.EUF"
  
 --------------------------------------------------
 Force calculation at wb97xd def2svp
 Hessian calculation at hf 6-31g(d)
 ExternalExternalExternalExternalExternalExternalExternalExternalExternalExternal

 Recovered energy= -383.359837288     dipole=      0.086400000000     -0.582300000000      2.719500000000
 Energy=    -383.359837     NIter=   0.
 Dipole moment=       0.086400      -0.582300       2.719500
 ***** Axes restored to original set *****
 -------------------------------------------------------------------
 Center     Atomic                   Forces (Hartrees/Bohr)
 Number     Number              X              Y              Z
 -------------------------------------------------------------------
      1        8           0.000210977    0.032939230    0.008726792
      2        6          -0.012410000   -0.036916990    0.005150349
      3        6           0.024343611    0.004138058   -0.033048277
      4        6           0.008612284    0.012935855   -0.010425797
      5        6          -0.015325912   -0.062562194    0.027546231
      6        6          -0.007444703    0.037087204    0.003234084
      7        1          -0.002350865    0.006531749   -0.005167871
      8        1          -0.007698265    0.005057780    0.000441858
      9        1          -0.001497425   -0.004471305   -0.003199018
     10        1           0.002522919    0.001259672   -0.001233666
     11        1           0.002589221   -0.000399438   -0.001611732
     12        1           0.001260618   -0.000558135    0.003507313
     13        6           0.018701395    0.007553284   -0.017149076
     14        8          -0.001398499    0.001257168    0.018746605
     15        1          -0.005118287    0.000684206    0.002778322
     16        1          -0.004997067   -0.004536145    0.001703881
 -------------------------------------------------------------------
 Cartesian Forces:  Max     0.062562194 RMS     0.016118057
 FormGI is forming the generalized inverse of G from B-inverse, IUseBI=4.

 GradGradGradGradGradGradGradGradGradGradGradGradGradGradGradGradGradGrad
 Berny optimization.
 Internal  Forces:  Max     0.073465706 RMS     0.016446465
 Search for a saddle point.
 Step number   2 out of a maximum of   50
 All quantities printed in internal units (Hartrees-Bohrs-Radians)
 Swapping is turned off.
 Second derivative matrix not updated -- analytic derivatives used.
 ITU=  0  0
     Eigenvalues ---   -0.70336   0.01345   0.01439   0.01861   0.02317
     Eigenvalues ---    0.02949   0.03733   0.04445   0.04864   0.07035
     Eigenvalues ---    0.07319   0.09133   0.10389   0.10769   0.11093
     Eigenvalues ---    0.12532   0.14094   0.14799   0.16654   0.17131
     Eigenvalues ---    0.17622   0.18397   0.21608   0.24041   0.25760
     Eigenvalues ---    0.26665   0.31833   0.33249   0.33663   0.35098
     Eigenvalues ---    0.36093   0.36735   0.37191   0.37543   0.37752
     Eigenvalues ---    0.38170   0.39648   0.55852   0.67773   0.78107
     Eigenvalues ---    0.86742   1.07422
 Eigenvectors required to have negative eigenvalues:
                          A1        R1        R6        R11       R3
   1                   -0.42723  -0.40347   0.29223  -0.28746   0.27120
                          D4        A14       D5        A17       D12
   1                    0.26394  -0.20751   0.19182  -0.18875  -0.17909
 RFO step:  Lambda0=7.495468547D-03 Lambda=-2.73843952D-02.
 Linear search not attempted -- option 19 set.
 Maximum step size (   0.100) exceeded in Quadratic search.
    -- Step size scaled by   0.404
 Iteration  1 RMS(Cart)=  0.03277360 RMS(Int)=  0.00043838
 Iteration  2 RMS(Cart)=  0.00065194 RMS(Int)=  0.00015690
 Iteration  3 RMS(Cart)=  0.00000030 RMS(Int)=  0.00015690
 Variable       Old X    -DE/DX   Delta X   Delta X   Delta X     New X
                                 (Linear)    (Quad)   (Total)
    R1        3.69175  -0.01909   0.00000   0.02491   0.02491   3.71665
    R2        2.33267   0.01216   0.00000   0.01047   0.01047   2.34314
    R3        2.73069  -0.02538   0.00000  -0.04249  -0.04249   2.68819
    R4        2.05661   0.00102   0.00000   0.00155   0.00155   2.05816
    R5        2.06012   0.00056   0.00000   0.00036   0.00036   2.06048
    R6        2.70740  -0.03000   0.00000  -0.04085  -0.04085   2.66655
    R7        2.06727  -0.00033   0.00000  -0.00169  -0.00169   2.06558
    R8        2.06089   0.00286   0.00000   0.00270   0.00270   2.06359
    R9        2.06068   0.00312   0.00000   0.00269   0.00269   2.06337
   R10        2.81006  -0.01224   0.00000  -0.01229  -0.01229   2.79777
   R11        2.76138  -0.05006   0.00000  -0.03836  -0.03836   2.72302
   R12        2.08634   0.00204   0.00000   0.00278   0.00278   2.08911
   R13        2.05070   0.00552   0.00000   0.00527   0.00527   2.05597
   R14        2.30521  -0.01883   0.00000  -0.00804  -0.00804   2.29717
   R15        2.09187   0.00655   0.00000   0.00853   0.00853   2.10040
    A1        2.14148  -0.07347   0.00000  -0.03671  -0.03671   2.10476
    A2        1.93442  -0.02081   0.00000   0.01003   0.01003   1.94444
    A3        1.65115   0.00727   0.00000  -0.01225  -0.01227   1.63888
    A4        1.58032   0.00357   0.00000  -0.01891  -0.01891   1.56141
    A5        2.05321   0.00082   0.00000   0.00826   0.00821   2.06142
    A6        2.05696   0.00661   0.00000   0.00714   0.00710   2.06407
    A7        2.05429  -0.00234   0.00000  -0.00568  -0.00585   2.04844
    A8        2.00929   0.00837   0.00000   0.02302   0.02245   2.03174
    A9        2.03028   0.00562   0.00000   0.01518   0.01461   2.04490
   A10        2.01794  -0.00380   0.00000  -0.00040  -0.00111   2.01683
   A11        2.02632   0.00282   0.00000   0.01269   0.01252   2.03884
   A12        2.08033  -0.00661   0.00000  -0.00318  -0.00335   2.07698
   A13        2.00828   0.00471   0.00000   0.00988   0.00968   2.01796
   A14        2.12693  -0.03388   0.00000   0.00761   0.00759   2.13451
   A15        2.13196   0.00985   0.00000  -0.02076  -0.02078   2.11118
   A16        2.02322   0.02348   0.00000   0.01257   0.01254   2.03576
   A17        2.08738  -0.03094   0.00000  -0.00452  -0.00455   2.08283
   A18        2.10528   0.01281   0.00000   0.00443   0.00440   2.10968
   A19        2.05271   0.01560   0.00000   0.00382   0.00379   2.05650
   A20        2.16024  -0.00101   0.00000   0.00104   0.00104   2.16128
   A21        1.99770   0.00260   0.00000   0.00312   0.00312   2.00082
   A22        2.12509  -0.00160   0.00000  -0.00414  -0.00414   2.12095
    D1        0.40480   0.00852   0.00000   0.01578   0.01578   0.42058
    D2        2.53257   0.00616   0.00000   0.02225   0.02213   2.55471
    D3       -1.69373   0.00454   0.00000   0.01407   0.01419  -1.67954
    D4       -0.72339   0.02697   0.00000  -0.01505  -0.01513  -0.73852
    D5        2.36613   0.01438   0.00000  -0.02855  -0.02847   2.33766
    D6        2.09307   0.00006   0.00000  -0.01559  -0.01560   2.07746
    D7       -1.66808   0.00333   0.00000   0.01983   0.01987  -1.64821
    D8        0.22153   0.00431   0.00000  -0.01145  -0.01148   0.21005
    D9        2.74357   0.00757   0.00000   0.02396   0.02399   2.76756
   D10       -2.40505  -0.00517   0.00000  -0.02916  -0.02920  -2.43425
   D11        0.11699  -0.00190   0.00000   0.00626   0.00627   0.12326
   D12       -0.91615   0.00445   0.00000   0.05760   0.05779  -0.85836
   D13        2.52435   0.01164   0.00000   0.04260   0.04279   2.56713
   D14        2.92539  -0.00748   0.00000   0.00782   0.00764   2.93303
   D15        0.08270  -0.00029   0.00000  -0.00717  -0.00736   0.07534
   D16        0.51459  -0.00193   0.00000  -0.02145  -0.02146   0.49314
   D17       -2.64540  -0.00249   0.00000  -0.02090  -0.02090  -2.66631
   D18        3.04275   0.00071   0.00000   0.01463   0.01464   3.05739
   D19       -0.11724   0.00015   0.00000   0.01519   0.01519  -0.10205
   D20       -0.03574   0.00376   0.00000  -0.00804  -0.00808  -0.04382
   D21        2.81583  -0.00338   0.00000   0.00667   0.00663   2.82246
   D22       -3.12832   0.01587   0.00000   0.00561   0.00565  -3.12267
   D23       -0.27675   0.00873   0.00000   0.02032   0.02036  -0.25639
         Item               Value     Threshold  Converged?
 Maximum Force            0.073466     0.000450     NO 
 RMS     Force            0.016446     0.000300     NO 
 Maximum Displacement     0.098740     0.001800     NO 
 RMS     Displacement     0.032730     0.001200     NO 
 Predicted change in Energy=-6.676629D-03
 GradGradGradGradGradGradGradGradGradGradGradGradGradGradGradGradGradGrad

                          Input orientation:                          
 ---------------------------------------------------------------------
 Center     Atomic      Atomic             Coordinates (Angstroms)
 Number     Number       Type             X           Y           Z
 ---------------------------------------------------------------------
      1          8           0        1.483598    1.024318   -0.440889
      2          6           0       -0.256197    1.565066    0.299978
      3          6           0        0.549839   -1.075865    1.160409
      4          6           0       -0.963500    0.450785    0.830725
      5          6           0        1.673273   -0.140786   -0.820365
      6          6           0        1.203952   -1.279969   -0.073128
      7          1           0        2.162792   -0.350858   -1.789073
      8          1           0        1.047919   -0.410847    1.870651
      9          1           0        1.131533   -2.233233   -0.592478
     10          1           0        0.179301    2.277053    0.999706
     11          1           0       -0.546024    1.940512   -0.681816
     12          1           0       -1.201624    0.480444    1.895919
     13          6           0       -1.947438   -0.249101   -0.025986
     14          8           0       -1.875139   -0.298301   -1.238447
     15          1           0        0.034460   -1.932790    1.599202
     16          1           0       -2.767945   -0.754129    0.528192
 ---------------------------------------------------------------------
                    Distance matrix (angstroms):
                    1          2          3          4          5
     1  O    0.000000
     2  C    1.966769   0.000000
     3  C    2.801219   2.892153   0.000000
     4  C    2.816776   1.422530   2.174751   0.000000
     5  C    1.239937   2.808550   2.461695   3.166800   0.000000
     6  C    2.350146   3.219544   1.411077   2.917243   1.440959
     7  H    2.042061   3.726447   3.438996   4.156882   1.105511
     8  H    2.755491   2.841121   1.093058   2.422739   2.775890
     9  H    3.280026   4.141177   2.179560   3.690342   2.173419
    10  H    2.312110   1.089130   3.377155   2.160972   3.374989
    11  H    2.239826   1.090357   3.700437   2.163643   3.045698
    12  H    3.600956   2.148782   2.455747   1.091889   4.003643
    13  C    3.683171   2.501549   2.885734   1.480517   3.708412
    14  O    3.696828   2.908584   3.498519   2.381951   3.576428
    15  H    3.873817   3.742654   1.092005   2.695906   3.428015
    16  H    4.709311   3.426313   3.392771   2.190746   4.681796
                    6          7          8          9         10
     6  C    0.000000
     7  H    2.174186   0.000000
     8  H    2.134946   3.826241   0.000000
     9  H    1.087971   2.457371   3.065140   0.000000
    10  H    3.853996   4.314793   2.955985   4.876933   0.000000
    11  H    3.715429   3.716730   3.818983   4.499148   1.861954
    12  H    3.572533   5.058609   2.419810   4.358874   2.436791
    13  C    3.316047   4.473569   3.549022   3.706448   3.457820
    14  O    3.435468   4.075640   4.268891   3.633362   3.982776
    15  H    2.142563   4.302640   1.848538   2.469270   4.254779
    16  H    4.051426   5.463013   4.059662   4.318516   4.254015
                   11         12         13         14         15
    11  H    0.000000
    12  H    3.034193   0.000000
    13  C    2.681134   2.186823   0.000000
    14  O    2.662456   3.299140   1.215611   0.000000
    15  H    4.532380   2.727570   3.066588   3.790828   0.000000
    16  H    3.696234   2.418307   1.111485   2.031230   3.223317
                   16
    16  H    0.000000
 Stoichiometry    C6H8O2
 Framework group  C1[X(C6H8O2)]
 Deg. of freedom    42
 Full point group                 C1      NOp   1
 Largest Abelian subgroup         C1      NOp   1
 Largest concise Abelian subgroup C1      NOp   1
                         Standard orientation:                         
 ---------------------------------------------------------------------
 Center     Atomic      Atomic             Coordinates (Angstroms)
 Number     Number       Type             X           Y           Z
 ---------------------------------------------------------------------
      1          8           0        1.474931    1.125156   -0.211869
      2          6           0       -0.308507    1.483752    0.535751
      3          6           0        0.586438   -1.220823    1.034642
      4          6           0       -0.981868    0.277240    0.874133
      5          6           0        1.726976    0.036099   -0.748407
      6          6           0        1.285817   -1.217275   -0.190916
      7          1           0        2.254264   -0.011277   -1.718910
      8          1           0        1.033160   -0.647444    1.851008
      9          1           0        1.271055   -2.086781   -0.844693
     10          1           0        0.073975    2.102649    1.346231
     11          1           0       -0.584785    1.986637   -0.391425
     12          1           0       -1.253105    0.142034    1.923119
     13          6           0       -1.907805   -0.328257   -0.109709
     14          8           0       -1.796855   -0.197391   -1.313151
     15          1           0        0.096196   -2.152024    1.326193
     16          1           0       -2.721683   -0.940330    0.335676
 ---------------------------------------------------------------------
 Rotational constants (GHZ):           2.8172106           1.7100700           1.5596116
 Standard basis: STO-3G (5D, 7F)
 There are    48 symmetry adapted cartesian basis functions of A   symmetry.
 There are    48 symmetry adapted basis functions of A   symmetry.
    48 basis functions,   144 primitive gaussians,    48 cartesian basis functions
    30 alpha electrons       30 beta electrons
       nuclear repulsion energy       359.3507465619 Hartrees.
 NAtoms=   16 NActive=   16 NUniq=   16 SFac= 1.00D+00 NAtFMM=   60 NAOKFM=F Big=F
 Integral buffers will be    131072 words long.
 Raffenetti 1 integral format.
 Two-electron integral symmetry is turned on.
 External calculation of energy, first and second derivatives.
 Running external command "~/scripts/MiMe -H 'hf 6-31g(d)' -EF 'wb97xd def2svp' -c 12 -m 48GB R"
         input file       "/local/jobs/1157663/Gau-3544882.EIn"
         output file      "/local/jobs/1157663/Gau-3544882.EOu"
         message file     "/local/jobs/1157663/Gau-3544882.EMs"
         fchk file        "/local/jobs/1157663/Gau-3544882.EFC"
         mat. el file     "/local/jobs/1157663/Gau-3544882.EUF"
 Read checkpoint file Gau-3544882_H.chk type G16
 Write formatted file Gau-3544882_H.fchk

deriv: 2

spelevel: wb97xd def2svp
gradlevel: wb97xd def2svp
hesslevel: hf 6-31g(d)

runspe: False
runforce: True
runfreq: True

Running Gaussian ...

Parsing files ...
SPE file: Gau-3544882_F.out
FORCE file: Gau-3544882_F.out
HESS file: Gau-3544882_H.out

 ExternalExternalExternalExternalExternalExternalExternalExternalExternalExternal
 Output from external command:
 "~/scripts/MiMe -H 'hf 6-31g(d)' -EF 'wb97xd def2svp' -c 12 -m 48GB R /local/jobs/1157663/Gau-3544882.EIn /local/jobs/1157663/Gau-3544882.EOu /local/jobs/1157663/Gau-3544882.EMs /local/jobs/1157663/Gau-3544882.EFC /local/jobs/1157663/Gau-3544882.EUF"
  
 --------------------------------------------------
 Force calculation at wb97xd def2svp
 Hessian calculation at hf 6-31g(d)
 ExternalExternalExternalExternalExternalExternalExternalExternalExternalExternal

 Recovered energy= -383.366610780     dipole=      0.029000000000     -0.661100000000      2.722700000000
 Energy=    -383.366611     NIter=   0.
 Dipole moment=       0.029000      -0.661100       2.722700
 ***** Axes restored to original set *****
 -------------------------------------------------------------------
 Center     Atomic                   Forces (Hartrees/Bohr)
 Number     Number              X              Y              Z
 -------------------------------------------------------------------
      1        8           0.000982937    0.021970746    0.007961062
      2        6          -0.006942670   -0.022251796    0.001817613
      3        6           0.015815643    0.001812313   -0.019316078
      4        6           0.003691853    0.007027226   -0.004897425
      5        6          -0.010044119   -0.042019616    0.016978074
      6        6          -0.004003403    0.023750273   -0.000566415
      7        1          -0.002357726    0.005040261   -0.003754589
      8        1          -0.006100782    0.004407442    0.000008328
      9        1          -0.001355641   -0.002558598   -0.002072640
     10        1           0.001857589    0.000974421   -0.001351437
     11        1           0.002338734   -0.000535110   -0.001327346
     12        1           0.001287248   -0.000829311    0.002286382
     13        6           0.012175076    0.004674516   -0.010357114
     14        8          -0.000706882    0.000888435    0.011576956
     15        1          -0.003558904    0.001011708    0.002293143
     16        1          -0.003078952   -0.003362907    0.000721487
 -------------------------------------------------------------------
 Cartesian Forces:  Max     0.042019616 RMS     0.010339115
 FormGI is forming the generalized inverse of G from B-inverse, IUseBI=4.

 GradGradGradGradGradGradGradGradGradGradGradGradGradGradGradGradGradGrad
 Berny optimization.
 Internal  Forces:  Max     0.052609616 RMS     0.011317136
 Search for a saddle point.
 Step number   3 out of a maximum of   50
 All quantities printed in internal units (Hartrees-Bohrs-Radians)
 Swapping is turned off.
 Second derivative matrix not updated -- analytic derivatives used.
 ITU=  0  0  0
     Eigenvalues ---   -0.55805   0.01390   0.01598   0.02030   0.02316
     Eigenvalues ---    0.02951   0.03850   0.04661   0.05080   0.07049
     Eigenvalues ---    0.07448   0.09316   0.10678   0.11018   0.11311
     Eigenvalues ---    0.12930   0.14170   0.14933   0.16911   0.17504
     Eigenvalues ---    0.17734   0.18396   0.21885   0.24536   0.26362
     Eigenvalues ---    0.27024   0.32501   0.33293   0.33798   0.36035
     Eigenvalues ---    0.36495   0.36773   0.37169   0.37461   0.37589
     Eigenvalues ---    0.38311   0.43905   0.59890   0.69461   0.77757
     Eigenvalues ---    0.88971   1.08599
 Eigenvectors required to have negative eigenvalues:
                          R1        A1        R6        R11       R3
   1                   -0.44642  -0.38391   0.29778  -0.29673   0.27551
                          D4        D12       R2        D5        A14
   1                    0.24730  -0.19949   0.18591   0.18333  -0.17949
 RFO step:  Lambda0=4.215419754D-03 Lambda=-1.42926614D-02.
 Linear search not attempted -- option 19 set.
 Maximum step size (   0.100) exceeded in Quadratic search.
    -- Step size scaled by   0.612
 Iteration  1 RMS(Cart)=  0.04376285 RMS(Int)=  0.00086179
 Iteration  2 RMS(Cart)=  0.00162867 RMS(Int)=  0.00025437
 Iteration  3 RMS(Cart)=  0.00000157 RMS(Int)=  0.00025437
 Iteration  4 RMS(Cart)=  0.00000000 RMS(Int)=  0.00025437
 Variable       Old X    -DE/DX   Delta X   Delta X   Delta X     New X
                                 (Linear)    (Quad)   (Total)
    R1        3.71665  -0.01366   0.00000   0.01849   0.01849   3.73514
    R2        2.34314   0.00823   0.00000   0.01298   0.01298   2.35612
    R3        2.68819  -0.01348   0.00000  -0.03452  -0.03452   2.65367
    R4        2.05816   0.00051   0.00000   0.00135   0.00135   2.05951
    R5        2.06048   0.00039   0.00000   0.00011   0.00011   2.06059
    R6        2.66655  -0.01668   0.00000  -0.03446  -0.03446   2.63209
    R7        2.06558  -0.00009   0.00000  -0.00223  -0.00223   2.06335
    R8        2.06359   0.00181   0.00000   0.00245   0.00245   2.06604
    R9        2.06337   0.00193   0.00000   0.00213   0.00213   2.06551
   R10        2.79777  -0.00774   0.00000  -0.01258  -0.01258   2.78519
   R11        2.72302  -0.03292   0.00000  -0.03682  -0.03682   2.68619
   R12        2.08911   0.00129   0.00000   0.00230   0.00230   2.09141
   R13        2.05597   0.00332   0.00000   0.00462   0.00462   2.06059
   R14        2.29717  -0.01163   0.00000  -0.00713  -0.00713   2.29004
   R15        2.10040   0.00416   0.00000   0.00866   0.00866   2.10906
    A1        2.10476  -0.05261   0.00000  -0.04113  -0.04113   2.06363
    A2        1.94444  -0.01528   0.00000   0.01027   0.01028   1.95472
    A3        1.63888   0.00557   0.00000  -0.01490  -0.01491   1.62397
    A4        1.56141   0.00208   0.00000  -0.01933  -0.01932   1.54209
    A5        2.06142   0.00095   0.00000   0.01000   0.00994   2.07136
    A6        2.06407   0.00470   0.00000   0.00709   0.00705   2.07111
    A7        2.04844  -0.00190   0.00000  -0.00662  -0.00682   2.04161
    A8        2.03174   0.00567   0.00000   0.02353   0.02260   2.05434
    A9        2.04490   0.00447   0.00000   0.01964   0.01872   2.06362
   A10        2.01683  -0.00304   0.00000   0.00121   0.00012   2.01695
   A11        2.03884   0.00238   0.00000   0.01701   0.01659   2.05543
   A12        2.07698  -0.00504   0.00000  -0.00392  -0.00432   2.07266
   A13        2.01796   0.00362   0.00000   0.01461   0.01416   2.03213
   A14        2.13451  -0.02423   0.00000   0.00451   0.00446   2.13898
   A15        2.11118   0.00684   0.00000  -0.02258  -0.02262   2.08856
   A16        2.03576   0.01688   0.00000   0.01711   0.01706   2.05282
   A17        2.08283  -0.02179   0.00000  -0.01042  -0.01047   2.07236
   A18        2.10968   0.00905   0.00000   0.00709   0.00704   2.11671
   A19        2.05650   0.01114   0.00000   0.00807   0.00802   2.06451
   A20        2.16128  -0.00147   0.00000   0.00029   0.00029   2.16157
   A21        2.00082   0.00245   0.00000   0.00435   0.00435   2.00517
   A22        2.12095  -0.00098   0.00000  -0.00466  -0.00466   2.11629
    D1        0.42058   0.00609   0.00000   0.03905   0.03905   0.45962
    D2        2.55471   0.00496   0.00000   0.04610   0.04596   2.60066
    D3       -1.67954   0.00335   0.00000   0.03770   0.03785  -1.64169
    D4       -0.73852   0.01805   0.00000  -0.03515  -0.03527  -0.77379
    D5        2.33766   0.00920   0.00000  -0.05268  -0.05255   2.28512
    D6        2.07746   0.00030   0.00000  -0.02804  -0.02808   2.04938
    D7       -1.64821   0.00325   0.00000   0.02580   0.02587  -1.62234
    D8        0.21005   0.00305   0.00000  -0.02181  -0.02186   0.18819
    D9        2.76756   0.00599   0.00000   0.03203   0.03209   2.79966
   D10       -2.43425  -0.00431   0.00000  -0.04203  -0.04210  -2.47635
   D11        0.12326  -0.00137   0.00000   0.01182   0.01185   0.13511
   D12       -0.85836   0.00437   0.00000   0.08218   0.08244  -0.77592
   D13        2.56713   0.00914   0.00000   0.06172   0.06197   2.62911
   D14        2.93303  -0.00514   0.00000   0.01519   0.01493   2.94796
   D15        0.07534  -0.00037   0.00000  -0.00527  -0.00553   0.06980
   D16        0.49314  -0.00163   0.00000  -0.03521  -0.03523   0.45790
   D17       -2.66631  -0.00237   0.00000  -0.03610  -0.03612  -2.70243
   D18        3.05739   0.00093   0.00000   0.01889   0.01891   3.07630
   D19       -0.10205   0.00018   0.00000   0.01799   0.01802  -0.08403
   D20       -0.04382   0.00245   0.00000  -0.00735  -0.00742  -0.05123
   D21        2.82246  -0.00230   0.00000   0.01245   0.01239   2.83485
   D22       -3.12267   0.01121   0.00000   0.01086   0.01092  -3.11175
   D23       -0.25639   0.00646   0.00000   0.03066   0.03072  -0.22566
         Item               Value     Threshold  Converged?
 Maximum Force            0.052610     0.000450     NO 
 RMS     Force            0.011317     0.000300     NO 
 Maximum Displacement     0.134401     0.001800     NO 
 RMS     Displacement     0.043428     0.001200     NO 
 Predicted change in Energy=-4.530949D-03
 GradGradGradGradGradGradGradGradGradGradGradGradGradGradGradGradGradGrad

                          Input orientation:                          
 ---------------------------------------------------------------------
 Center     Atomic      Atomic             Coordinates (Angstroms)
 Number     Number       Type             X           Y           Z
 ---------------------------------------------------------------------
      1          8           0        1.504573    1.019371   -0.406615
      2          6           0       -0.256976    1.552099    0.314431
      3          6           0        0.561762   -1.061057    1.156795
      4          6           0       -0.964004    0.457457    0.837712
      5          6           0        1.647936   -0.152438   -0.807658
      6          6           0        1.165338   -1.274283   -0.080233
      7          1           0        2.098062   -0.340177   -1.801130
      8          1           0        1.046707   -0.365959    1.845177
      9          1           0        1.060412   -2.224271   -0.605137
     10          1           0        0.179104    2.272260    1.006505
     11          1           0       -0.518338    1.916863   -0.679371
     12          1           0       -1.201627    0.467669    1.904540
     13          6           0       -1.906964   -0.261484   -0.037619
     14          8           0       -1.810094   -0.302433   -1.244886
     15          1           0        0.031508   -1.895103    1.624246
     16          1           0       -2.728599   -0.796215    0.495844
 ---------------------------------------------------------------------
                    Distance matrix (angstroms):
                    1          2          3          4          5
     1  O    0.000000
     2  C    1.976553   0.000000
     3  C    2.767910   2.865047   0.000000
     4  C    2.820988   1.404262   2.176158   0.000000
     5  C    1.246805   2.791634   2.421661   3.146657   0.000000
     6  C    2.341464   3.188600   1.392842   2.894071   1.421473
     7  H    2.035994   3.688158   3.410163   4.120190   1.106728
     8  H    2.683161   2.778799   1.091880   2.394987   2.728480
     9  H    3.279924   4.103910   2.169360   3.656739   2.163028
    10  H    2.307273   1.089847   3.358574   2.151441   3.365682
    11  H    2.229811   1.090415   3.661438   2.151749   2.998534
    12  H    3.601296   2.144015   2.450646   1.093018   3.982532
    13  C    3.662695   2.476990   2.856668   1.473857   3.638979
    14  O    3.665635   2.878008   3.459665   2.372871   3.488787
    15  H    3.845579   3.698924   1.093303   2.672867   3.400570
    16  H    4.693670   3.414148   3.366523   2.191429   4.611684
                    6          7          8          9         10
     6  C    0.000000
     7  H    2.168874   0.000000
     8  H    2.132212   3.794940   0.000000
     9  H    1.090418   2.461082   3.075313   0.000000
    10  H    3.838180   4.288362   2.901088   4.857251   0.000000
    11  H    3.657478   3.632922   3.746196   4.432488   1.858739
    12  H    3.546300   5.027181   2.398638   4.319935   2.443242
    13  C    3.235215   4.376802   3.504285   3.602767   3.444087
    14  O    3.339776   3.947722   4.208781   3.513195   3.956604
    15  H    2.139214   4.292044   1.848707   2.477326   4.215484
    16  H    3.965244   5.364767   4.032215   4.196202   4.258057
                   11         12         13         14         15
    11  H    0.000000
    12  H    3.040336   0.000000
    13  C    2.661827   2.191152   0.000000
    14  O    2.629395   3.298814   1.211839   0.000000
    15  H    4.487768   2.679902   3.031201   3.762979   0.000000
    16  H    3.691500   2.431763   1.116066   2.029190   3.177899
                   16
    16  H    0.000000
 Stoichiometry    C6H8O2
 Framework group  C1[X(C6H8O2)]
 Deg. of freedom    42
 Full point group                 C1      NOp   1
 Largest Abelian subgroup         C1      NOp   1
 Largest concise Abelian subgroup C1      NOp   1
                         Standard orientation:                         
 ---------------------------------------------------------------------
 Center     Atomic      Atomic             Coordinates (Angstroms)
 Number     Number       Type             X           Y           Z
 ---------------------------------------------------------------------
      1          8           0        1.496110    1.092726   -0.244626
      2          6           0       -0.302069    1.500240    0.467588
      3          6           0        0.581018   -1.153573    1.088819
      4          6           0       -0.985905    0.339814    0.864744
      5          6           0        1.690406   -0.031255   -0.748054
      6          6           0        1.225976   -1.230894   -0.143277
      7          1           0        2.174360   -0.110848   -1.740173
      8          1           0        1.022551   -0.511310    1.853507
      9          1           0        1.168164   -2.130273   -0.757107
     10          1           0        0.089691    2.165573    1.236757
     11          1           0       -0.547675    1.948271   -0.495714
     12          1           0       -1.253589    0.242500    1.919999
     13          6           0       -1.878950   -0.322936   -0.102463
     14          8           0       -1.746894   -0.247430   -1.304717
     15          1           0        0.066498   -2.043926    1.460103
     16          1           0       -2.696592   -0.930725    0.353232
 ---------------------------------------------------------------------
 Rotational constants (GHZ):           2.8394555           1.7522997           1.6034658
 Standard basis: STO-3G (5D, 7F)
 There are    48 symmetry adapted cartesian basis functions of A   symmetry.
 There are    48 symmetry adapted basis functions of A   symmetry.
    48 basis functions,   144 primitive gaussians,    48 cartesian basis functions
    30 alpha electrons       30 beta electrons
       nuclear repulsion energy       361.9830637709 Hartrees.
 NAtoms=   16 NActive=   16 NUniq=   16 SFac= 1.00D+00 NAtFMM=   60 NAOKFM=F Big=F
 Integral buffers will be    131072 words long.
 Raffenetti 1 integral format.
 Two-electron integral symmetry is turned on.
 External calculation of energy, first and second derivatives.
 Running external command "~/scripts/MiMe -H 'hf 6-31g(d)' -EF 'wb97xd def2svp' -c 12 -m 48GB R"
         input file       "/local/jobs/1157663/Gau-3544882.EIn"
         output file      "/local/jobs/1157663/Gau-3544882.EOu"
         message file     "/local/jobs/1157663/Gau-3544882.EMs"
         fchk file        "/local/jobs/1157663/Gau-3544882.EFC"
         mat. el file     "/local/jobs/1157663/Gau-3544882.EUF"
 Read checkpoint file Gau-3544882_H.chk type G16
 Write formatted file Gau-3544882_H.fchk

deriv: 2

spelevel: wb97xd def2svp
gradlevel: wb97xd def2svp
hesslevel: hf 6-31g(d)

runspe: False
runforce: True
runfreq: True

Running Gaussian ...

Parsing files ...
SPE file: Gau-3544882_F.out
FORCE file: Gau-3544882_F.out
HESS file: Gau-3544882_H.out

 ExternalExternalExternalExternalExternalExternalExternalExternalExternalExternal
 Output from external command:
 "~/scripts/MiMe -H 'hf 6-31g(d)' -EF 'wb97xd def2svp' -c 12 -m 48GB R /local/jobs/1157663/Gau-3544882.EIn /local/jobs/1157663/Gau-3544882.EOu /local/jobs/1157663/Gau-3544882.EMs /local/jobs/1157663/Gau-3544882.EFC /local/jobs/1157663/Gau-3544882.EUF"
  
 --------------------------------------------------
 Force calculation at wb97xd def2svp
 Hessian calculation at hf 6-31g(d)
 ExternalExternalExternalExternalExternalExternalExternalExternalExternalExternal

 Recovered energy= -383.371398264     dipole=     -0.050200000000     -0.684700000000      2.717300000000
 Energy=    -383.371398     NIter=   0.
 Dipole moment=      -0.050200      -0.684700       2.717300
 ***** Axes restored to original set *****
 -------------------------------------------------------------------
 Center     Atomic                   Forces (Hartrees/Bohr)
 Number     Number              X              Y              Z
 -------------------------------------------------------------------
      1        8           0.001487341    0.010067761    0.006619727
      2        6          -0.002050249   -0.008459569   -0.000640192
      3        6           0.007614263   -0.000098737   -0.006651501
      4        6          -0.000095880    0.001857935   -0.000459200
      5        6          -0.004620041   -0.019775115    0.005767669
      6        6          -0.001255692    0.010145982   -0.002401387
      7        1          -0.002017331    0.003089537   -0.002101066
      8        1          -0.003903810    0.003252819   -0.000330064
      9        1          -0.001084229   -0.000838848   -0.000929081
     10        1           0.000941184    0.000666478   -0.001196353
     11        1           0.001682351   -0.000679581   -0.000954822
     12        1           0.001021635   -0.000736576    0.001065506
     13        6           0.005211538    0.001917715   -0.004013198
     14        8           0.000085203    0.000607582    0.004774277
     15        1          -0.001897706    0.001045670    0.001574549
     16        1          -0.001118578   -0.002063053   -0.000124868
 -------------------------------------------------------------------
 Cartesian Forces:  Max     0.019775115 RMS     0.004620201
 FormGI is forming the generalized inverse of G from B-inverse, IUseBI=4.

 GradGradGradGradGradGradGradGradGradGradGradGradGradGradGradGradGradGrad
 Berny optimization.
 Internal  Forces:  Max     0.029328939 RMS     0.005984640
 Search for a saddle point.
 Step number   4 out of a maximum of   50
 All quantities printed in internal units (Hartrees-Bohrs-Radians)
 Swapping is turned off.
 Second derivative matrix not updated -- analytic derivatives used.
 ITU=  0  0  0  0
     Eigenvalues ---   -0.41301   0.01318   0.01780   0.02173   0.02316
     Eigenvalues ---    0.02934   0.03993   0.04880   0.05258   0.07109
     Eigenvalues ---    0.07665   0.09506   0.10716   0.11073   0.11909
     Eigenvalues ---    0.13434   0.14215   0.15006   0.17056   0.17790
     Eigenvalues ---    0.18291   0.18495   0.22311   0.25031   0.26961
     Eigenvalues ---    0.27417   0.32058   0.33275   0.34855   0.36208
     Eigenvalues ---    0.36428   0.36677   0.36966   0.37321   0.37502
     Eigenvalues ---    0.40432   0.48145   0.62663   0.70255   0.79587
     Eigenvalues ---    0.90925   1.12493
 Eigenvectors required to have negative eigenvalues:
                          R1        A1        R11       R6        R3
   1                   -0.50262  -0.31813  -0.29949   0.29452   0.27378
                          D4        D12       R2        D5        D13
   1                    0.22520  -0.22460   0.20273   0.17046  -0.15402
 RFO step:  Lambda0=1.371918768D-03 Lambda=-5.30109904D-03.
 Linear search not attempted -- option 19 set.
 Iteration  1 RMS(Cart)=  0.05589255 RMS(Int)=  0.00166139
 Iteration  2 RMS(Cart)=  0.00433215 RMS(Int)=  0.00033719
 Iteration  3 RMS(Cart)=  0.00000845 RMS(Int)=  0.00033715
 Iteration  4 RMS(Cart)=  0.00000000 RMS(Int)=  0.00033715
 Variable       Old X    -DE/DX   Delta X   Delta X   Delta X     New X
                                 (Linear)    (Quad)   (Total)
    R1        3.73514  -0.00748   0.00000  -0.00557  -0.00557   3.72958
    R2        2.35612   0.00379   0.00000   0.01385   0.01385   2.36997
    R3        2.65367  -0.00334   0.00000  -0.01745  -0.01745   2.63623
    R4        2.05951   0.00006   0.00000   0.00060   0.00060   2.06011
    R5        2.06059   0.00024   0.00000  -0.00017  -0.00017   2.06041
    R6        2.63209  -0.00495   0.00000  -0.02042  -0.02042   2.61167
    R7        2.06335   0.00013   0.00000  -0.00249  -0.00249   2.06087
    R8        2.06604   0.00080   0.00000   0.00135   0.00135   2.06739
    R9        2.06551   0.00081   0.00000   0.00075   0.00075   2.06626
   R10        2.78519  -0.00328   0.00000  -0.01039  -0.01039   2.77480
   R11        2.68619  -0.01495   0.00000  -0.02650  -0.02650   2.65970
   R12        2.09141   0.00054   0.00000   0.00060   0.00060   2.09202
   R13        2.06059   0.00128   0.00000   0.00235   0.00235   2.06294
   R14        2.29004  -0.00477   0.00000  -0.00371  -0.00371   2.28633
   R15        2.10906   0.00175   0.00000   0.00606   0.00606   2.11512
    A1        2.06363  -0.02933   0.00000  -0.04178  -0.04178   2.02185
    A2        1.95472  -0.00897   0.00000   0.00625   0.00625   1.96097
    A3        1.62397   0.00359   0.00000  -0.01476  -0.01476   1.60921
    A4        1.54209   0.00072   0.00000  -0.00754  -0.00754   1.53455
    A5        2.07136   0.00096   0.00000   0.01054   0.01051   2.08188
    A6        2.07111   0.00243   0.00000   0.00242   0.00239   2.07350
    A7        2.04161  -0.00121   0.00000  -0.00653  -0.00662   2.03500
    A8        2.05434   0.00267   0.00000   0.01814   0.01692   2.07126
    A9        2.06362   0.00309   0.00000   0.02336   0.02214   2.08576
   A10        2.01695  -0.00191   0.00000   0.00405   0.00267   2.01962
   A11        2.05543   0.00177   0.00000   0.02023   0.01953   2.07496
   A12        2.07266  -0.00343   0.00000  -0.00646  -0.00714   2.06552
   A13        2.03213   0.00238   0.00000   0.01877   0.01803   2.05016
   A14        2.13898  -0.01397   0.00000  -0.00540  -0.00545   2.13352
   A15        2.08856   0.00393   0.00000  -0.01727  -0.01731   2.07125
   A16        2.05282   0.00968   0.00000   0.02139   0.02134   2.07416
   A17        2.07236  -0.01215   0.00000  -0.01908  -0.01912   2.05324
   A18        2.11671   0.00502   0.00000   0.00942   0.00938   2.12609
   A19        2.06451   0.00639   0.00000   0.01374   0.01371   2.07822
   A20        2.16157  -0.00180   0.00000  -0.00208  -0.00208   2.15949
   A21        2.00517   0.00212   0.00000   0.00656   0.00656   2.01173
   A22        2.11629  -0.00034   0.00000  -0.00456  -0.00457   2.11172
    D1        0.45962   0.00325   0.00000   0.08807   0.08808   0.54770
    D2        2.60066   0.00328   0.00000   0.09436   0.09430   2.69497
    D3       -1.64169   0.00208   0.00000   0.08755   0.08761  -1.55408
    D4       -0.77379   0.00820   0.00000  -0.07931  -0.07944  -0.85323
    D5        2.28512   0.00357   0.00000  -0.09704  -0.09690   2.18822
    D6        2.04938   0.00055   0.00000  -0.04981  -0.04988   1.99950
    D7       -1.62234   0.00271   0.00000   0.02040   0.02047  -1.60187
    D8        0.18819   0.00159   0.00000  -0.04139  -0.04145   0.14674
    D9        2.79966   0.00375   0.00000   0.02882   0.02890   2.82855
   D10       -2.47635  -0.00297   0.00000  -0.05405  -0.05412  -2.53047
   D11        0.13511  -0.00082   0.00000   0.01616   0.01623   0.15134
   D12       -0.77592   0.00354   0.00000   0.10340   0.10368  -0.67224
   D13        2.62911   0.00586   0.00000   0.08363   0.08391   2.71302
   D14        2.94796  -0.00267   0.00000   0.02135   0.02107   2.96903
   D15        0.06980  -0.00036   0.00000   0.00158   0.00130   0.07110
   D16        0.45790  -0.00109   0.00000  -0.05448  -0.05452   0.40338
   D17       -2.70243  -0.00198   0.00000  -0.05931  -0.05935  -2.76178
   D18        3.07630   0.00088   0.00000   0.01538   0.01542   3.09172
   D19       -0.08403  -0.00001   0.00000   0.01055   0.01059  -0.07344
   D20       -0.05123   0.00117   0.00000   0.00491   0.00484  -0.04640
   D21        2.83485  -0.00117   0.00000   0.02362   0.02357   2.85842
   D22       -3.11175   0.00594   0.00000   0.02400   0.02406  -3.08769
   D23       -0.22566   0.00360   0.00000   0.04272   0.04279  -0.18287
         Item               Value     Threshold  Converged?
 Maximum Force            0.029329     0.000450     NO 
 RMS     Force            0.005985     0.000300     NO 
 Maximum Displacement     0.166141     0.001800     NO 
 RMS     Displacement     0.054608     0.001200     NO 
 Predicted change in Energy=-2.175720D-03
 GradGradGradGradGradGradGradGradGradGradGradGradGradGradGradGradGradGrad

                          Input orientation:                          
 ---------------------------------------------------------------------
 Center     Atomic      Atomic             Coordinates (Angstroms)
 Number     Number       Type             X           Y           Z
 ---------------------------------------------------------------------
      1          8           0        1.530184    1.006100   -0.338906
      2          6           0       -0.250297    1.544507    0.320739
      3          6           0        0.573598   -1.057058    1.159050
      4          6           0       -0.968315    0.470399    0.846904
      5          6           0        1.615693   -0.160287   -0.791766
      6          6           0        1.119704   -1.275885   -0.091514
      7          1           0        2.010144   -0.304847   -1.816004
      8          1           0        1.045123   -0.324511    1.815077
      9          1           0        0.974195   -2.216263   -0.626532
     10          1           0        0.177825    2.283017    0.998807
     11          1           0       -0.478275    1.884070   -0.689967
     12          1           0       -1.204981    0.465508    1.914390
     13          6           0       -1.860935   -0.276783   -0.048097
     14          8           0       -1.734865   -0.306743   -1.251011
     15          1           0        0.034756   -1.866242    1.660792
     16          1           0       -2.674753   -0.852683    0.460637
 ---------------------------------------------------------------------
                    Distance matrix (angstroms):
                    1          2          3          4          5
     1  O    0.000000
     2  C    1.973608   0.000000
     3  C    2.723150   2.854770   0.000000
     4  C    2.817023   1.395030   2.192728   0.000000
     5  C    1.254134   2.761505   2.386597   3.124116   0.000000
     6  C    2.331770   3.162510   1.382037   2.879229   1.407451
     7  H    2.032428   3.618753   3.388279   4.069804   1.107047
     8  H    2.577877   2.721100   1.090565   2.371323   2.673603
     9  H    3.282602   4.066952   2.166226   3.628017   2.160060
    10  H    2.291040   1.090165   3.367255   2.149952   3.353110
    11  H    2.219906   1.090323   3.629812   2.144896   2.928217
    12  H    3.584789   2.148345   2.460100   1.093417   3.958674
    13  C    3.637314   2.459125   2.827187   1.468359   3.557184
    14  O    3.635388   2.846308   3.420581   2.364909   3.385054
    15  H    3.805975   3.675624   1.094018   2.669917   3.380042
    16  H    4.666459   3.412342   3.328865   2.193554   4.522815
                    6          7          8          9         10
     6  C    0.000000
     7  H    2.170176   0.000000
     8  H    2.132080   3.757180   0.000000
     9  H    1.091663   2.478215   3.089532   0.000000
    10  H    3.839494   4.239999   2.866653   4.849685   0.000000
    11  H    3.591239   3.500220   3.670669   4.350451   1.855151
    12  H    3.529910   4.984608   2.386831   4.289171   2.460443
    13  C    3.143930   4.255765   3.452371   3.483408   3.435859
    14  O    3.229897   3.787389   4.138785   3.372721   3.927712
    15  H    2.143877   4.292811   1.849752   2.497380   4.204170
    16  H    3.857704   5.237507   3.993864   4.044269   4.273107
                   11         12         13         14         15
    11  H    0.000000
    12  H    3.053375   0.000000
    13  C    2.644435   2.198324   0.000000
    14  O    2.587171   3.301048   1.209874   0.000000
    15  H    4.455795   2.652983   3.006713   3.747291   0.000000
    16  H    3.692996   2.451787   1.119272   2.027604   3.131951
                   16
    16  H    0.000000
 Stoichiometry    C6H8O2
 Framework group  C1[X(C6H8O2)]
 Deg. of freedom    42
 Full point group                 C1      NOp   1
 Largest Abelian subgroup         C1      NOp   1
 Largest concise Abelian subgroup C1      NOp   1
                         Standard orientation:                         
 ---------------------------------------------------------------------
 Center     Atomic      Atomic             Coordinates (Angstroms)
 Number     Number       Type             X           Y           Z
 ---------------------------------------------------------------------
      1          8           0        1.520305    1.045164   -0.269588
      2          6           0       -0.284370    1.527073    0.367624
      3          6           0        0.579538   -1.078261    1.152233
      4          6           0       -0.988995    0.423832    0.849779
[...]
 Vibration     2          0.634              1.853              2.224
 Vibration     3          0.673              1.732              1.611
 Vibration     4          0.718              1.601              1.225
 Vibration     5          0.727              1.576              1.167
 Vibration     6          0.755              1.499              1.013
 Vibration     7          0.806              1.369              0.807
 Vibration     8          0.889              1.176              0.579
 Vibration     9          0.935              1.078              0.488
                       Q            Log10(Q)             Ln(Q)
 Total Bot       0.719186D-48        -48.143159       -110.853720
 Total V=0       0.168310D+15         14.226110         32.756830
 Vib (Bot)       0.534585D-61        -61.271983       -141.083955
 Vib (Bot)    1  0.147851D+01          0.169823          0.391032
 Vib (Bot)    2  0.105080D+01          0.021518          0.049548
 Vib (Bot)    3  0.722782D+00         -0.140992         -0.324647
 Vib (Bot)    4  0.551473D+00         -0.258476         -0.595162
 Vib (Bot)    5  0.527543D+00         -0.277742         -0.639525
 Vib (Bot)    6  0.465393D+00         -0.332181         -0.764874
 Vib (Bot)    7  0.385200D+00         -0.414314         -0.953994
 Vib (Bot)    8  0.298717D+00         -0.524740         -1.208258
 Vib (Bot)    9  0.263814D+00         -0.578703         -1.332512
 Vib (V=0)       0.125108D+02          1.097286          2.526595
 Vib (V=0)    1  0.206076D+01          0.314028          0.723076
 Vib (V=0)    2  0.166369D+01          0.221072          0.509037
 Vib (V=0)    3  0.137887D+01          0.139524          0.321265
 Vib (V=0)    4  0.124439D+01          0.094958          0.218649
 Vib (V=0)    5  0.122684D+01          0.088789          0.204445
 Vib (V=0)    6  0.118307D+01          0.073012          0.168116
 Vib (V=0)    7  0.113117D+01          0.053529          0.123255
 Vib (V=0)    8  0.108244D+01          0.034402          0.079214
 Vib (V=0)    9  0.106533D+01          0.027484          0.063284
 Electronic      0.100000D+01          0.000000          0.000000
 Translational   0.466215D+08          7.668586         17.657571
 Rotational      0.288561D+06          5.460238         12.572663
 ***** Axes restored to original set *****
 -------------------------------------------------------------------
 Center     Atomic                   Forces (Hartrees/Bohr)
 Number     Number              X              Y              Z
 -------------------------------------------------------------------
      1        8           0.000010445   -0.000006624   -0.000006490
      2        6          -0.000006632   -0.000006795    0.000001284
      3        6           0.000005778   -0.000013231    0.000001664
      4        6           0.000001559    0.000017471   -0.000003427
      5        6           0.000001070    0.000009524    0.000002816
      6        6          -0.000005264   -0.000005935    0.000006789
      7        1          -0.000009845   -0.000005603   -0.000003354
      8        1           0.000002654    0.000009129   -0.000012690
      9        1          -0.000005355   -0.000003032    0.000006366
     10        1           0.000004758   -0.000004516    0.000001364
     11        1          -0.000001292    0.000005149   -0.000001141
     12        1          -0.000003209   -0.000002879   -0.000000880
     13        6          -0.000007017   -0.000004347    0.000005244
     14        8           0.000003064    0.000023246    0.000001406
     15        1           0.000002288    0.000003996    0.000009789
     16        1           0.000006996   -0.000015552   -0.000008739
 -------------------------------------------------------------------
 Cartesian Forces:  Max     0.000023246 RMS     0.000007529
 Unable to Open any file for archive entry.
 1\1\GINC-NODE-004\Freq\External='~/scripts/MiMe -H 'hf 6-31g(d)' -EF '
 wb97xd def2svp' -c 12 -m 48GB'\ZDO\C6H8O2\JP2658\16-Jan-2024\0\\# exte
 rnal="~/scripts/MiMe -H 'hf 6-31g(d)' -EF 'wb97xd def2svp' -c 12 -m 48
 GB" opt=(calcall,ts,noeigen,maxcycles=50,maxstep=10,nomicro)\\*****\\0
 ,1\O,1.5400199109,0.9850627802,-0.268644056\C,-0.2311395019,1.54445173
 69,0.3219834569\C,0.5784245239,-1.0596196467,1.1737251523\C,-0.9614085
 725,0.4774098788,0.854467257\C,1.573604301,-0.1628306762,-0.7838663793
 \C,1.0825598122,-1.2848767432,-0.0946799538\H,1.9011749126,-0.26409172
 4,-1.8354756254\H,1.0531793758,-0.3011282249,1.7965582353\H,0.89751573
 96,-2.2147344883,-0.6352032773\H,0.1712600263,2.3101109127,0.985066337
 3\H,-0.4446201881,1.8525438292,-0.7018508352\H,-1.2105352441,0.4704825
 537,1.9187202427\C,-1.8134531063,-0.28732276,-0.0637411378\O,-1.666540
 8832,-0.2829225085,-1.2655544434\H,0.039391971,-1.8487398504,1.7058353
 687\H,-2.6006330773,-0.9214950694,0.4152596581\\Version=ES64L-G16RevC.
 01\HF=-383.3748814\RMSD=0.000e+00\RMSF=7.529e-06\ZeroPoint=0.1355949\T
 hermal=0.1423453\ETot=-383.2325361\HTot=-383.2315919\GTot=-383.270215\
 Dipole=-0.2004484,-0.6055882,2.5813055\PG=C01 [X(C6H8O2)]\NImag=1\\0.0
 8266091,0.05881374,0.54975837,0.00161437,0.16828751,0.17187080,0.06484
 450,-0.11967754,-0.07376090,0.20265491,-0.00401798,-0.03517183,-0.0053
 3531,0.21326755,0.64787484,-0.04581066,0.05308007,0.01678272,0.1425431
 3,-0.03984971,0.66804305,-0.04274326,0.06467252,0.03910387,0.07924410,
 0.02245123,-0.03788638,0.30912881,0.02784847,-0.05293204,-0.02611842,-
 0.05274652,-0.02268653,0.02955300,0.27474340,0.50586897,0.01439821,-0.
 04532756,-0.02932240,-0.03702155,-0.00388942,0.01305727,-0.10755981,0.
 04637828,0.74451721,-0.02012779,-0.00568211,0.00127202,-0.15732268,-0.
 15205589,0.05625368,0.01929058,-0.03885942,-0.01340166,0.38709194,-0.0
 6480979,0.09287544,0.05052333,-0.01975516,-0.26189748,0.03014610,-0.09
 053789,0.05644565,0.03242583,0.28400573,0.37010164,0.02395152,-0.02780
 774,-0.01863389,0.01949865,0.08294153,-0.16170281,0.03106367,-0.026818
 03,-0.02627956,-0.06856471,0.01299653,0.71948667,-0.11897820,0.0221277
 9,0.03043021,0.03241051,0.01706079,-0.00944766,-0.02963536,0.00820267,
 0.03514609,-0.00047434,-0.03036534,0.01222258,0.32025963,-0.05690684,-
 0.40707004,-0.11843440,0.15289525,0.00514711,-0.07311329,-0.08993801,0
 .07918235,0.06896712,0.01730311,-0.11057428,0.03688749,0.04145379,0.75
 244644,0.01728782,-0.18730502,-0.20460446,0.01055767,-0.00593442,-0.01
 032448,0.02330195,0.02991856,-0.02392376,-0.00144758,0.00054628,-0.001
 44728,-0.17649826,0.07252983,0.72183583,0.03661181,-0.05424701,-0.0197
 9100,-0.04837915,-0.00693999,0.02242453,-0.08193461,-0.03824454,0.0959
 7298,-0.02338373,0.05652441,-0.01296638,-0.10593418,-0.04016659,0.0675
 8270,0.26000929,0.00608157,-0.10874720,-0.02112370,-0.03922775,-0.0059
 1027,0.01874029,0.02123155,-0.15127716,-0.08133383,-0.00659871,0.02400
 009,-0.01294576,-0.06881554,-0.23086271,0.11026823,0.13377071,0.718967
 90,-0.03905655,0.07419042,0.07819369,0.08360583,0.01476244,-0.03808374
 ,0.05294325,-0.00129272,-0.36440089,0.02883215,-0.08734103,0.02947054,
 0.02290451,-0.01239285,-0.20701550,-0.15010390,0.11417694,0.65980213,0
 .01511507,0.00780242,0.00451055,-0.00055926,-0.00021853,0.00095227,0.0
 0373363,-0.00376461,0.00229419,0.00416285,0.00186810,-0.00027399,-0.09
 261757,-0.00449358,0.06657981,0.01000213,0.00143347,0.01376724,0.06351
 328,0.01400274,-0.01326158,-0.04638194,-0.00513703,0.00012211,0.000356
 72,-0.00252663,-0.00512273,0.00236077,0.00038394,0.00162506,-0.0005778
 2,0.00158170,-0.07602052,-0.00079966,-0.00814305,0.01005645,0.02432322
 ,-0.00157338,0.08254908,0.00810010,-0.02235813,-0.01260611,-0.00403134
 ,0.00055829,0.00109616,0.00345405,0.00301542,0.00044520,0.00196980,0.0
 0152993,-0.00001403,0.07221661,0.00339886,-0.28451560,0.00484379,-0.00
 586044,-0.01020381,-0.08598338,0.02017893,0.30668642,0.00513826,-0.008
 77911,-0.00401258,-0.01091160,-0.00277975,0.00428141,-0.09650808,-0.10
 856360,-0.07441264,-0.01643291,0.01414423,-0.01161554,-0.00028275,0.01
 318751,-0.00065117,0.00429640,0.00715945,0.02222452,-0.00018407,0.0001
 3164,-0.00033873,0.11033984,-0.00361059,0.00627674,0.00413019,0.009785
 15,0.00154522,-0.00050024,-0.10636060,-0.19526236,-0.11042594,0.014240
 83,-0.00958513,0.00925320,0.00035798,-0.01052215,0.00215221,0.00428390
 ,0.00160792,-0.01491098,-0.00029534,-0.00002304,-0.00037552,0.09612235
 ,0.21581330,0.00219724,-0.00160407,0.00097172,-0.00614823,-0.00033127,
 0.00166321,-0.05764609,-0.11702299,-0.16241281,-0.00491034,0.00711048,
 -0.00358909,0.00023176,0.00092890,-0.00124810,-0.01506370,-0.02574927,
 -0.00773471,0.00007847,-0.00006568,0.00039157,0.06737502,0.12527678,0.
 16213430,0.00856096,-0.01032434,-0.00034606,-0.00528502,-0.00147430,0.
 00345089,0.01043181,0.00930999,0.00341829,-0.00194731,0.00515613,-0.00
 122333,-0.00050461,0.00149189,-0.01287175,-0.06196901,-0.05835974,-0.0
 0683666,-0.00138693,0.00091965,-0.00015067,0.00349542,-0.00307224,0.00
 282184,0.04970733,-0.00465986,-0.00311071,0.00472243,0.00050047,0.0008
 6525,-0.00069676,-0.00200173,0.00331816,0.00293950,0.00135205,-0.00126
 505,0.00049008,-0.00042685,-0.01870226,-0.01885377,-0.04927142,-0.2650
 9201,-0.11870023,0.00084895,0.00015871,0.00142612,-0.00132589,0.001942
 47,0.00035615,0.05464393,0.28185165,0.00342232,0.00201985,-0.00273796,
 -0.00101719,-0.00038480,0.00071184,-0.00836756,-0.02896694,-0.01381936
 ,-0.00042057,0.00172118,-0.00048786,0.00204698,0.02027603,0.01341117,-
 0.01154714,-0.12265026,-0.13120715,-0.00103929,-0.00053473,0.00005436,
 0.00449945,-0.00177823,-0.00423772,0.01348515,0.12895849,0.13748651,-0
 .00664026,0.01853315,0.01365247,-0.08872020,-0.08153660,-0.07625258,-0
 .00369865,0.00224764,0.00201774,0.00015967,-0.01778685,-0.00858229,-0.
 00412174,-0.00570631,0.00102180,0.00151025,0.00234283,-0.00335328,-0.0
 0025620,0.00070569,0.00037280,0.00049431,-0.00070115,-0.00000308,0.000
 24842,-0.00000554,0.00001825,0.09837488,0.00296193,-0.00661652,-0.0051
 9145,-0.08543829,-0.20699106,-0.11396445,0.00092318,-0.00089194,-0.001
 16945,-0.00978189,-0.00787022,-0.02071994,0.00200668,0.00233785,-0.000
 13420,-0.00048151,-0.00091152,0.00157126,0.00002677,-0.00021848,-0.000
 08584,0.00016524,-0.00021898,0.00020243,-0.00011194,0.00001610,0.00003
 959,0.08925943,0.21038487,0.00069083,-0.00154119,-0.00082462,-0.069660
 61,-0.12024767,-0.18122110,0.00018446,0.00023225,-0.00008514,0.0059161
 4,0.01277299,0.01439324,0.00025462,0.00041668,0.00011511,0.00016452,-0
 .00021825,-0.00017182,0.00016591,-0.00000130,0.00009642,-0.00007275,-0
 .00000524,0.00005939,0.00000934,0.00002542,-0.00002271,0.07220832,0.12
 908112,0.17901465,-0.02333160,0.01956727,0.00348917,-0.04784292,0.0121
 8135,-0.06426169,-0.00807878,0.00429957,0.00344071,0.00667569,-0.01902
 753,0.01858897,-0.00472239,-0.01336849,-0.00339356,0.00389704,0.004482
 72,-0.00691064,0.00013331,0.00027826,0.00030188,0.00083327,-0.00013922
 ,0.00036385,0.00081611,-0.00026144,0.00018977,0.00212688,0.00235729,-0
 .01012344,0.06764131,0.01260173,-0.00990997,-0.00213666,-0.00439138,-0
 .09382001,0.07638773,0.00337718,-0.00350847,-0.00130690,0.00388030,0.0
 0700886,0.02519209,0.00359219,0.00710234,0.00211951,-0.00199938,-0.002
 28996,0.00362033,-0.00028008,-0.00011855,-0.00031691,-0.00070338,0.000
 13035,-0.00024395,-0.00039191,0.00006588,-0.00008188,-0.00560503,0.012
 15671,-0.02149074,-0.00862422,0.08602929,0.00814995,-0.00763801,0.0002
 4078,-0.06156212,0.07722916,-0.32096598,0.00276590,-0.00186964,-0.0013
 0457,0.00016639,0.00735303,-0.00809705,0.00230480,0.00443406,0.0022665
 8,-0.00143321,-0.00137928,0.00210792,0.00002787,-0.00009602,-0.0001261
 8,-0.00023056,-0.00004662,-0.00010387,-0.00031681,0.00000559,-0.000021
 10,-0.00164835,0.00582800,-0.01105284,0.05392587,-0.08236538,0.3381540
 9,-0.00830052,0.00843594,0.00607643,0.01035528,0.00623836,0.01179462,-
 0.01239099,0.00929481,0.00930915,-0.06648203,-0.03217521,0.06921463,-0
 .00288172,-0.01159024,-0.00002248,0.00339253,0.00356263,-0.00847391,0.
 00025262,0.00032949,0.00023084,0.00050783,-0.00070345,0.00141351,0.000
 49594,-0.00006869,0.00008055,-0.00296493,0.00214315,0.00005886,0.00261
 298,-0.00358751,-0.00098915,0.06838734,0.00585692,-0.00823369,-0.00387
 216,-0.01504453,-0.00285972,0.03539640,0.01145576,-0.00853319,-0.00857
 263,-0.02102236,-0.03840526,-0.01186789,0.00309875,0.00914440,-0.00087
 597,-0.00324153,-0.00297536,0.00828866,-0.00060822,-0.00013185,-0.0001
 7064,-0.00126977,0.00153063,-0.00070880,-0.00033148,0.00012194,-0.0000
 8376,0.00336565,-0.00031290,-0.00093665,-0.00494149,-0.00274204,0.0022
 7699,0.01640398,0.05343934,-0.00165485,0.00112568,0.00140079,0.0026950
 8,-0.00038736,-0.00909366,-0.00321280,0.00165612,0.00001284,0.05903306
 ,-0.00579411,-0.32461109,-0.00049203,-0.00137642,-0.00027510,0.0008160
 5,0.00044950,-0.00034786,-0.00013431,0.00005231,0.00006474,0.00006297,
 0.00077824,0.00077067,0.00017978,-0.00002523,0.00013895,-0.00059946,0.
 00085230,0.00116282,0.00147577,0.00081965,0.00017662,-0.06422378,-0.00
 015343,0.34633997,0.00317463,0.00120631,0.00119462,-0.01830140,-0.0151
 9436,-0.00908752,-0.02078072,0.01368312,-0.00316715,-0.15737165,-0.086
 91310,-0.05112766,-0.00245437,-0.00503572,0.00131245,0.00103140,0.0032
 9359,-0.00700499,-0.00070012,-0.00010926,-0.00084468,0.00133446,-0.001
 18938,0.00104510,0.00070076,-0.00050066,-0.00017355,0.00508026,-0.0047
 3972,0.00032214,-0.00270669,0.00145033,0.00058646,0.00829087,0.0124403
 1,0.01113499,0.49220181,0.00719639,-0.00343222,-0.00055870,-0.03462730
 ,-0.02579324,-0.01276262,-0.00239147,0.01000667,0.00677203,-0.06542170
 ,-0.13811820,-0.04696039,0.00156123,-0.00223812,0.00099994,0.00743007,
 0.00310529,-0.00511227,-0.00165295,-0.00015999,-0.00102652,0.00244347,
 -0.00333928,0.00063380,0.00065203,-0.00092010,-0.00034768,-0.00601757,
 -0.00114498,0.00343704,0.00296367,-0.00128183,-0.00214755,0.00560114,0
 .00107786,0.00701150,0.19382583,0.42106418,0.01451682,-0.00654978,-0.0
 0496317,-0.01661716,-0.00559500,0.03384753,-0.02201029,0.01665246,0.00
 597290,-0.01549153,-0.02958536,-0.16644149,0.00536250,-0.00181332,0.00
 467100,0.00776769,0.00526460,-0.01377715,-0.00181271,-0.00050255,-0.00
 220565,0.00318932,-0.00250418,0.00033549,0.00159813,-0.00238601,0.0002
 9112,0.00168895,0.00487402,-0.00331283,0.00452155,0.00235324,-0.002281
 32,-0.02251130,-0.01517932,-0.01263581,-0.08666353,-0.00744013,1.03922
 608,0.00092453,-0.00074382,-0.00038321,-0.00352008,-0.00158731,0.00347
 106,-0.00245266,0.00069962,0.00350246,0.02727946,0.00575179,-0.0275429
 5,0.00282948,-0.00202060,0.00109120,0.00094102,0.00212041,-0.00708077,
 -0.00026839,-0.00003720,-0.00036367,0.00039780,-0.00031936,-0.00026340
 ,0.00021787,-0.00079549,0.00028173,-0.00069239,0.00139887,-0.00103809,
 0.00050706,0.00039795,-0.00156852,-0.00204133,-0.00554540,-0.00363432,
 -0.12740415,-0.02661238,0.08773474,0.09210594,0.00082320,-0.00093506,-
 0.00165290,0.00048330,-0.00233392,0.00107545,0.00390944,-0.00309192,-0
 .00204558,-0.00128007,0.01794558,-0.03228796,0.00170723,0.00180489,0.0
 0065495,-0.00154139,-0.00160437,0.00409036,0.00011604,-0.00002107,0.00
 015527,-0.00053406,0.00086862,-0.00011310,-0.00043797,0.00087866,0.000
 16264,0.00013578,0.00131388,-0.00149523,0.00069352,0.00064118,-0.00197
 892,-0.00452080,-0.00026308,-0.00385406,-0.02402881,-0.10847619,0.0088
 9362,0.03210725,0.07441155,-0.00816813,0.00269209,0.00323825,0.0158668
 0,0.00976814,-0.01225697,0.01343111,-0.01382018,-0.00655314,-0.0362657
 7,-0.02596429,-0.06264737,-0.00178973,0.00224012,-0.00376265,-0.002761
 69,-0.00392275,0.00932213,0.00090344,0.00022719,0.00168762,-0.00260428
 ,0.00263685,-0.00043284,-0.00121768,0.00155313,-0.00008474,-0.00044681
 ,-0.00032600,0.00143851,-0.00176533,-0.00227851,0.00107883,-0.00324525
 ,-0.00413630,-0.00394168,0.09722260,0.01788390,-0.78334496,-0.09041868
 ,0.00275895,0.89312552,0.00201816,-0.00038538,-0.00199885,-0.00510379,
 -0.00086910,0.00141706,-0.12626894,-0.10583621,0.06579712,0.00231319,0
 .00954068,-0.00379222,0.00600318,0.00113038,0.00593490,0.00082978,-0.0
 1240620,0.00326244,-0.00090477,-0.00079142,0.00020782,-0.00233885,-0.0
 0854907,0.00872830,-0.00341137,0.00190129,-0.00150321,0.00020294,0.000
 05705,-0.00001984,0.00083289,0.00001039,-0.00023023,0.00090571,-0.0003
 7309,-0.00014535,0.00135757,0.00082622,-0.00038819,-0.00052939,-0.0002
 9914,0.00017436,0.12441621,-0.00008758,-0.00098200,0.00195304,0.000375
 00,0.00018739,-0.00014882,-0.10834608,-0.21142627,0.09406550,-0.000929
 50,-0.00274362,0.00208063,-0.00261254,0.00065816,-0.00484161,0.0021469
 7,0.01169800,-0.00470850,0.00065553,0.00045014,-0.00015476,-0.00947961
 ,-0.01095530,0.01134972,0.00231485,-0.00017810,0.00158269,-0.00008211,
 0.00007444,0.00001587,-0.00013989,-0.00005908,0.00003192,-0.00002142,-
 0.00032452,-0.00039696,-0.00085064,-0.00121088,0.00002469,0.00047845,0
 .00020989,0.00006968,0.11626748,0.21422626,-0.00008994,-0.00064675,0.0
 0102472,-0.00124095,-0.00056663,0.00044892,0.06979180,0.08805321,-0.13
 595725,-0.00112498,0.00250221,-0.00146951,0.00514620,-0.00347671,-0.00
 487867,0.01424385,0.02633335,-0.00663420,0.00007844,0.00145351,-0.0008
 7621,-0.00788220,-0.01341626,0.01338016,-0.00197611,0.00011859,0.00059
 073,0.00000037,0.00012535,-0.00001545,0.00014457,-0.00001806,0.0000231
 9,0.00011702,-0.00034273,0.00015589,0.00088202,0.00145266,0.00006858,-
 0.00039132,-0.00040879,-0.00019996,-0.07739507,-0.10089979,0.13426812,
 0.00107280,-0.00131983,-0.00105110,-0.00356320,-0.00452545,-0.00384216
 ,0.00266314,-0.00231439,0.00026588,-0.00343093,-0.01562020,0.01114906,
 0.00110444,0.00176444,0.00021448,-0.00092096,-0.00007099,0.00128079,-0
 .00003559,-0.00001513,0.00001477,-0.00017932,0.00015019,-0.00022025,-0
 .00017039,0.00007088,0.00004432,-0.00110323,-0.00074625,0.00093959,0.0
 0060585,0.00027283,0.00005173,-0.00013959,-0.00024351,-0.00130081,-0.1
 8345265,-0.08577667,0.03911503,0.01170523,-0.00733351,0.02108502,-0.00
 032250,0.00031109,-0.00030372,0.17616692,-0.00209406,0.00149232,0.0011
 8915,-0.00126121,0.00172215,-0.00369986,-0.00066184,-0.00008918,0.0001
 6227,-0.01953431,0.00045693,0.01014398,-0.00053052,-0.00183346,-0.0004
 4485,0.00012034,0.00023492,-0.00056507,0.00013542,0.00011625,0.0000859
 4,0.00008129,0.00019100,-0.00001913,0.00001545,0.00004940,0.00006782,0
 .00085098,-0.00110726,-0.00004509,-0.00032138,0.00059530,0.00036268,0.
 00065785,-0.00053257,-0.00075774,-0.08733784,-0.14913899,0.03349302,-0
 .00529279,0.01865136,0.01061800,-0.00022388,0.00037551,-0.00026316,0.1
 1539650,0.12881630,0.00045096,-0.00061737,-0.00003087,-0.00370711,-0.0
 0273796,-0.00200196,0.00064289,0.00044963,0.00005347,-0.01181611,-0.01
 094310,0.01207061,-0.00003918,0.00052789,-0.00030408,-0.00014909,-0.00
 004937,0.00068042,-0.00011450,0.00000705,0.00002510,0.00018775,-0.0002
 6424,0.00005264,-0.00002434,0.00006649,-0.00006609,-0.00009486,-0.0009
 8274,0.00042636,0.00001256,-0.00025358,-0.00009509,0.00117027,0.000938
 21,0.00068191,0.04436871,0.03816499,-0.09545033,0.03660373,0.02604533,
 -0.03666653,-0.00004905,-0.00002327,0.00007095,-0.06744263,-0.05032795
 ,0.12055349\\-0.00001045,0.00000662,0.00000649,0.00000663,0.00000680,-
 0.00000128,-0.00000578,0.00001323,-0.00000166,-0.00000156,-0.00001747,
 0.00000343,-0.00000107,-0.00000952,-0.00000282,0.00000526,0.00000593,-
 0.00000679,0.00000985,0.00000560,0.00000335,-0.00000265,-0.00000913,0.
 00001269,0.00000535,0.00000303,-0.00000637,-0.00000476,0.00000452,-0.0
 0000136,0.00000129,-0.00000515,0.00000114,0.00000321,0.00000288,0.0000
 0088,0.00000702,0.00000435,-0.00000524,-0.00000306,-0.00002325,-0.0000
 0141,-0.00000229,-0.00000400,-0.00000979,-0.00000700,0.00001555,0.0000
 0874\\\@
 The archive entry for this job was punched.


 IF AT FIRST YOU DON'T SUCCEED, TRY LOOKING IN 
 THE WASTEBASKET FOR THE DIRECTIONS.
 Job cpu time:       0 days  1 hours  9 minutes 43.3 seconds.
 Elapsed time:       0 days  0 hours 10 minutes 54.7 seconds.
 File lengths (MBytes):  RWF=      6 Int=      0 D2E=      0 Chk=      1 Scr=      1
 Normal termination of Gaussian 16 at Tue Jan 16 20:58:49 2024.
