Unloading slurm/anatra/current
  ERROR: No such file or directory on
    '/cm/local/modulefiles/slurm/anatra/current'
environment: line 0: unalias: gv: not found
environment: line 0: unalias: sl: not found
 Entering Gaussian System, Link 0=g16
 Initial command:
 /apps/gaussian/g16/C.01/g16/l1.exe "/local/jobs/1157666/Gau-2035181.inp" -scrdir="/local/jobs/1157666/"
 Entering Link 1 = /apps/gaussian/g16/C.01/g16/l1.exe PID=   2035184.
  
 Copyright (c) 1988-2019, Gaussian, Inc.  All Rights Reserved.
  
 This is part of the Gaussian(R) 16 program.  It is based on
 the Gaussian(R) 09 system (copyright 2009, Gaussian, Inc.),
 the Gaussian(R) 03 system (copyright 2003, Gaussian, Inc.),
 the Gaussian(R) 98 system (copyright 1998, Gaussian, Inc.),
 the Gaussian(R) 94 system (copyright 1995, Gaussian, Inc.),
 the Gaussian 92(TM) system (copyright 1992, Gaussian, Inc.),
 the Gaussian 90(TM) system (copyright 1990, Gaussian, Inc.),
 the Gaussian 88(TM) system (copyright 1988, Gaussian, Inc.),
 the Gaussian 86(TM) system (copyright 1986, Carnegie Mellon
 University), and the Gaussian 82(TM) system (copyright 1983,
 Carnegie Mellon University). Gaussian is a federally registered
 trademark of Gaussian, Inc.
  
 This software contains proprietary and confidential information,
 including trade secrets, belonging to Gaussian, Inc.
  
 This software is provided under written license and may be
 used, copied, transmitted, or stored only in accord with that
 written license.
  
 The following legend is applicable only to US Government
 contracts under FAR:
  
                    RESTRICTED RIGHTS LEGEND
  
 Use, reproduction and disclosure by the US Government is
 subject to restrictions as set forth in subparagraphs (a)
 and (c) of the Commercial Computer Software - Restricted
 Rights clause in FAR 52.227-19.
  
 Gaussian, Inc.
 340 Quinnipiac St., Bldg. 40, Wallingford CT 06492
  
  
 ---------------------------------------------------------------
 Warning -- This program may not be used in any manner that
 competes with the business of Gaussian, Inc. or will provide
 assistance to any competitor of Gaussian, Inc.  The licensee
 of this program is prohibited from giving any competitor of
 Gaussian, Inc. access to this program.  By using this program,
 the user acknowledges that Gaussian, Inc. is engaged in the
 business of creating and licensing software in the field of
 computational chemistry and represents and warrants to the
 licensee that it is not a competitor of Gaussian, Inc. and that
 it will not use this program in any manner prohibited above.
 ---------------------------------------------------------------
  

 Cite this work as:
 Gaussian 16, Revision C.01,
 M. J. Frisch, G. W. Trucks, H. B. Schlegel, G. E. Scuseria, 
 M. A. Robb, J. R. Cheeseman, G. Scalmani, V. Barone, 
 G. A. Petersson, H. Nakatsuji, X. Li, M. Caricato, A. V. Marenich, 
 J. Bloino, B. G. Janesko, R. Gomperts, B. Mennucci, H. P. Hratchian, 
 J. V. Ortiz, A. F. Izmaylov, J. L. Sonnenberg, D. Williams-Young, 
 F. Ding, F. Lipparini, F. Egidi, J. Goings, B. Peng, A. Petrone, 
 T. Henderson, D. Ranasinghe, V. G. Zakrzewski, J. Gao, N. Rega, 
 G. Zheng, W. Liang, M. Hada, M. Ehara, K. Toyota, R. Fukuda, 
 J. Hasegawa, M. Ishida, T. Nakajima, Y. Honda, O. Kitao, H. Nakai, 
 T. Vreven, K. Throssell, J. A. Montgomery, Jr., J. E. Peralta, 
 F. Ogliaro, M. J. Bearpark, J. J. Heyd, E. N. Brothers, K. N. Kudin, 
 V. N. Staroverov, T. A. Keith, R. Kobayashi, J. Normand, 
 K. Raghavachari, A. P. Rendell, J. C. Burant, S. S. Iyengar, 
 J. Tomasi, M. Cossi, J. M. Millam, M. Klene, C. Adamo, R. Cammi, 
 J. W. Ochterski, R. L. Martin, K. Morokuma, O. Farkas, 
 J. B. Foresman, and D. J. Fox, Gaussian, Inc., Wallingford CT, 2019.
 
 ******************************************
 Gaussian 16:  ES64L-G16RevC.01  3-Jul-2019
                16-Jan-2024 
 ******************************************
 %nprocshared=12
 Will use up to   12 processors via shared memory.
 %mem=48GB
 ----------------------------------------------------------------------
 # external="~/scripts/MiMe -H 'hf 6-31g(d)' -EF 'wb97xd def2svp' -c 12
  -m 48GB" opt=(calcall,ts,noeigen,maxcycles=50,maxstep=10,nomicro)
 ----------------------------------------------------------------------
 1/5=1,6=50,8=10,10=4,11=1,18=20,26=1,38=1/1,3;
 2/9=110,12=2,17=6,18=5,40=1/2;
 3/11=9,25=1,30=1,41=9900000,43=2,71=2,140=1/1;
 4/20=17,22=2,24=3,113=1,114=1/2;
 6/7=2,8=2,9=2,10=2,18=1/1;
 7/25=1,44=-1/16;
 1/5=1,6=50,8=10,10=4,11=1,18=20,26=1/3(3);
 2/9=110/2;
 7/8=1,9=1,25=1,44=-1/16;
 99//99;
 2/9=110/2;
 3/11=9,25=1,30=1,41=9900000,43=2,71=2,140=1/1;
 4/16=2,20=17,22=2,24=3,113=1,114=1/2;
 7/25=1,44=-1/16;
 1/5=1,6=50,8=10,10=4,11=1,18=20,26=1/3(-4);
 2/9=110/2;
 6/7=2,8=2,9=2,10=2,18=1/1;
 7/8=1,9=1,25=1,44=-1/16;
 99//99;
 -----
 *****
 -----
 Symbolic Z-matrix:
 Charge =  0 Multiplicity = 1
 C                    -1.7636    0.7699    0.2683 
 C                    -0.1675   -0.738     1.1357 
 C                     0.7533    2.4397    0.2956 
 C                     1.1138   -0.1249    1.2214 
 C                    -1.0805    1.2934   -0.9068 
 C                     0.0402    2.0307   -0.887 
 H                     1.791     2.7443    0.2033 
 H                     0.2454    2.5838    1.2414 
 H                     0.5118    2.2904   -1.8343 
 H                    -1.4816    0.9954   -1.8757 
 H                    -1.6872    1.3437    1.1913 
 H                    -0.8179   -0.9253    1.9752 
 H                     1.5485    0.3896    2.0581 
 O                     1.1261   -1.5056   -0.5878 
 C                    -0.0814   -1.6867    0.0162 
 C                     1.8935   -0.602     0.0816 
 O                    -0.9323   -2.5015   -0.2865 
 O                     3.0294   -0.2639   -0.1903 
 C                    -3.0576    0.0356    0.0627 
 H                    -3.2259   -0.6598    0.891 
 H                    -3.8936    0.741     0.0377 
 H                    -3.0574   -0.5413   -0.8673 
 
 Add virtual bond connecting atoms C2         and C1         Dist= 4.46D+00.

 GradGradGradGradGradGradGradGradGradGradGradGradGradGradGradGradGradGrad
 Berny optimization.
 Initialization pass.
                           ----------------------------
                           !    Initial Parameters    !
                           ! (Angstroms and Degrees)  !
 --------------------------                            --------------------------
 ! Name  Definition              Value          Derivative Info.                !
 --------------------------------------------------------------------------------
 ! R1    R(1,2)                  2.3609         calculate D2E/DX2 analytically  !
 ! R2    R(1,5)                  1.4565         calculate D2E/DX2 analytically  !
 ! R3    R(1,11)                 1.0895         calculate D2E/DX2 analytically  !
 ! R4    R(1,19)                 1.502          calculate D2E/DX2 analytically  !
 ! R5    R(2,4)                  1.423          calculate D2E/DX2 analytically  !
 ! R6    R(2,12)                 1.0784         calculate D2E/DX2 analytically  !
 ! R7    R(2,15)                 1.4699         calculate D2E/DX2 analytically  !
 ! R8    R(3,6)                  1.4403         calculate D2E/DX2 analytically  !
 ! R9    R(3,7)                  1.0854         calculate D2E/DX2 analytically  !
 ! R10   R(3,8)                  1.0832         calculate D2E/DX2 analytically  !
 ! R11   R(4,13)                 1.0741         calculate D2E/DX2 analytically  !
 ! R12   R(4,16)                 1.4611         calculate D2E/DX2 analytically  !
 ! R13   R(5,6)                  1.3416         calculate D2E/DX2 analytically  !
 ! R14   R(5,10)                 1.0902         calculate D2E/DX2 analytically  !
 ! R15   R(6,9)                  1.0896         calculate D2E/DX2 analytically  !
 ! R16   R(14,15)                1.3622         calculate D2E/DX2 analytically  !
 ! R17   R(14,16)                1.3614         calculate D2E/DX2 analytically  !
 ! R18   R(15,17)                1.2164         calculate D2E/DX2 analytically  !
 ! R19   R(16,18)                1.2159         calculate D2E/DX2 analytically  !
 ! R20   R(19,20)                1.0945         calculate D2E/DX2 analytically  !
 ! R21   R(19,21)                1.0941         calculate D2E/DX2 analytically  !
 ! R22   R(19,22)                1.0944         calculate D2E/DX2 analytically  !
 ! A1    A(2,1,5)              102.0583         calculate D2E/DX2 analytically  !
 ! A2    A(2,1,11)              88.7231         calculate D2E/DX2 analytically  !
 ! A3    A(2,1,19)             108.6926         calculate D2E/DX2 analytically  !
 ! A4    A(5,1,11)             117.4711         calculate D2E/DX2 analytically  !
 ! A5    A(5,1,19)             117.9905         calculate D2E/DX2 analytically  !
 ! A6    A(11,1,19)            115.713          calculate D2E/DX2 analytically  !
 ! A7    A(1,2,4)              110.8352         calculate D2E/DX2 analytically  !
 ! A8    A(1,2,12)              89.3813         calculate D2E/DX2 analytically  !
 ! A9    A(1,2,15)              99.9044         calculate D2E/DX2 analytically  !
 ! A10   A(4,2,12)             124.8216         calculate D2E/DX2 analytically  !
 ! A11   A(4,2,15)             105.7353         calculate D2E/DX2 analytically  !
 ! A12   A(12,2,15)            121.0729         calculate D2E/DX2 analytically  !
 ! A13   A(6,3,7)              118.8962         calculate D2E/DX2 analytically  !
 ! A14   A(6,3,8)              121.5058         calculate D2E/DX2 analytically  !
 ! A15   A(7,3,8)              119.026          calculate D2E/DX2 analytically  !
 ! A16   A(2,4,13)             128.1473         calculate D2E/DX2 analytically  !
 ! A17   A(2,4,16)             107.0278         calculate D2E/DX2 analytically  !
 ! A18   A(13,4,16)            123.2384         calculate D2E/DX2 analytically  !
 ! A19   A(1,5,6)              125.2655         calculate D2E/DX2 analytically  !
 ! A20   A(1,5,10)             116.5022         calculate D2E/DX2 analytically  !
 ! A21   A(6,5,10)             118.0784         calculate D2E/DX2 analytically  !
 ! A22   A(3,6,5)              125.5749         calculate D2E/DX2 analytically  !
 ! A23   A(3,6,9)              115.5874         calculate D2E/DX2 analytically  !
 ! A24   A(5,6,9)              118.6657         calculate D2E/DX2 analytically  !
 ! A25   A(15,14,16)           111.7078         calculate D2E/DX2 analytically  !
 ! A26   A(2,15,14)            107.6862         calculate D2E/DX2 analytically  !
 ! A27   A(2,15,17)            125.5125         calculate D2E/DX2 analytically  !
 ! A28   A(14,15,17)           126.7837         calculate D2E/DX2 analytically  !
 ! A29   A(4,16,14)            107.4277         calculate D2E/DX2 analytically  !
 ! A30   A(4,16,18)            125.6035         calculate D2E/DX2 analytically  !
 ! A31   A(14,16,18)           126.9537         calculate D2E/DX2 analytically  !
 ! A32   A(1,19,20)            109.8463         calculate D2E/DX2 analytically  !
 ! A33   A(1,19,21)            110.256          calculate D2E/DX2 analytically  !
 ! A34   A(1,19,22)            111.9551         calculate D2E/DX2 analytically  !
 ! A35   A(20,19,21)           108.0242         calculate D2E/DX2 analytically  !
 ! A36   A(20,19,22)           107.9507         calculate D2E/DX2 analytically  !
 ! A37   A(21,19,22)           108.6978         calculate D2E/DX2 analytically  !
 ! D1    D(5,1,2,4)             48.732          calculate D2E/DX2 analytically  !
 ! D2    D(5,1,2,12)           176.0978         calculate D2E/DX2 analytically  !
 ! D3    D(5,1,2,15)           -62.4302         calculate D2E/DX2 analytically  !
 ! D4    D(11,1,2,4)           -69.1119         calculate D2E/DX2 analytically  !
 ! D5    D(11,1,2,12)           58.2539         calculate D2E/DX2 analytically  !
 ! D6    D(11,1,2,15)          179.7259         calculate D2E/DX2 analytically  !
 ! D7    D(19,1,2,4)           174.1062         calculate D2E/DX2 analytically  !
 ! D8    D(19,1,2,12)          -58.528          calculate D2E/DX2 analytically  !
 ! D9    D(19,1,2,15)           62.944          calculate D2E/DX2 analytically  !
 ! D10   D(2,1,5,6)            -64.8161         calculate D2E/DX2 analytically  !
 ! D11   D(2,1,5,10)           110.5683         calculate D2E/DX2 analytically  !
 ! D12   D(11,1,5,6)            30.082          calculate D2E/DX2 analytically  !
 ! D13   D(11,1,5,10)         -154.5336         calculate D2E/DX2 analytically  !
 ! D14   D(19,1,5,6)           176.1929         calculate D2E/DX2 analytically  !
 ! D15   D(19,1,5,10)           -8.4227         calculate D2E/DX2 analytically  !
 ! D16   D(2,1,19,20)           39.3806         calculate D2E/DX2 analytically  !
 ! D17   D(2,1,19,21)          158.3171         calculate D2E/DX2 analytically  !
 ! D18   D(2,1,19,22)          -80.5386         calculate D2E/DX2 analytically  !
 ! D19   D(5,1,19,20)          154.8215         calculate D2E/DX2 analytically  !
 ! D20   D(5,1,19,21)          -86.242          calculate D2E/DX2 analytically  !
 ! D21   D(5,1,19,22)           34.9023         calculate D2E/DX2 analytically  !
 ! D22   D(11,1,19,20)         -58.4829         calculate D2E/DX2 analytically  !
 ! D23   D(11,1,19,21)          60.4536         calculate D2E/DX2 analytically  !
 ! D24   D(11,1,19,22)        -178.4022         calculate D2E/DX2 analytically  !
 ! D25   D(1,2,4,13)            92.6643         calculate D2E/DX2 analytically  !
 ! D26   D(1,2,4,16)          -101.5268         calculate D2E/DX2 analytically  !
 ! D27   D(12,2,4,13)          -11.8511         calculate D2E/DX2 analytically  !
 ! D28   D(12,2,4,16)          153.9578         calculate D2E/DX2 analytically  !
 ! D29   D(15,2,4,13)         -159.9723         calculate D2E/DX2 analytically  !
 ! D30   D(15,2,4,16)            5.8366         calculate D2E/DX2 analytically  !
 ! D31   D(1,2,15,14)          108.5901         calculate D2E/DX2 analytically  !
 ! D32   D(1,2,15,17)          -72.8508         calculate D2E/DX2 analytically  !
 ! D33   D(4,2,15,14)           -6.5173         calculate D2E/DX2 analytically  !
 ! D34   D(4,2,15,17)          172.0418         calculate D2E/DX2 analytically  !
 ! D35   D(12,2,15,14)        -156.1071         calculate D2E/DX2 analytically  !
 ! D36   D(12,2,15,17)          22.452          calculate D2E/DX2 analytically  !
 ! D37   D(7,3,6,5)            160.3092         calculate D2E/DX2 analytically  !
 ! D38   D(7,3,6,9)            -14.8361         calculate D2E/DX2 analytically  !
 ! D39   D(8,3,6,5)            -28.4499         calculate D2E/DX2 analytically  !
 ! D40   D(8,3,6,9)            156.4048         calculate D2E/DX2 analytically  !
 ! D41   D(2,4,16,14)           -3.2395         calculate D2E/DX2 analytically  !
 ! D42   D(2,4,16,18)          178.0984         calculate D2E/DX2 analytically  !
 ! D43   D(13,4,16,14)         163.4334         calculate D2E/DX2 analytically  !
 ! D44   D(13,4,16,18)         -15.2287         calculate D2E/DX2 analytically  !
 ! D45   D(1,5,6,3)             -0.5253         calculate D2E/DX2 analytically  !
 ! D46   D(1,5,6,9)            174.4842         calculate D2E/DX2 analytically  !
 ! D47   D(10,5,6,3)          -175.8436         calculate D2E/DX2 analytically  !
 ! D48   D(10,5,6,9)            -0.8341         calculate D2E/DX2 analytically  !
 ! D49   D(16,14,15,2)           4.7089         calculate D2E/DX2 analytically  !
 ! D50   D(16,14,15,17)       -173.8266         calculate D2E/DX2 analytically  !
 ! D51   D(15,14,16,4)          -0.9927         calculate D2E/DX2 analytically  !
 ! D52   D(15,14,16,18)        177.646          calculate D2E/DX2 analytically  !
 --------------------------------------------------------------------------------
 Trust Radius=1.00D-01 FncErr=1.00D-07 GrdErr=1.00D-07 EigMax=2.50D+02 EigMin=1.00D-04
 Number of steps in this run=     50 maximum allowed number of steps=    132.
 Search for a saddle point of order  1.
 GradGradGradGradGradGradGradGradGradGradGradGradGradGradGradGradGradGrad

                          Input orientation:                          
 ---------------------------------------------------------------------
 Center     Atomic      Atomic             Coordinates (Angstroms)
 Number     Number       Type             X           Y           Z
 ---------------------------------------------------------------------
      1          6           0       -1.763600    0.769900    0.268300
      2          6           0       -0.167500   -0.738000    1.135700
      3          6           0        0.753300    2.439700    0.295600
      4          6           0        1.113800   -0.124900    1.221400
      5          6           0       -1.080500    1.293400   -0.906800
      6          6           0        0.040200    2.030700   -0.887000
      7          1           0        1.791000    2.744300    0.203300
      8          1           0        0.245400    2.583800    1.241400
      9          1           0        0.511800    2.290400   -1.834300
     10          1           0       -1.481600    0.995400   -1.875700
     11          1           0       -1.687200    1.343700    1.191300
     12          1           0       -0.817900   -0.925300    1.975200
     13          1           0        1.548500    0.389600    2.058100
     14          8           0        1.126100   -1.505600   -0.587800
     15          6           0       -0.081400   -1.686700    0.016200
     16          6           0        1.893500   -0.602000    0.081600
     17          8           0       -0.932300   -2.501500   -0.286500
     18          8           0        3.029400   -0.263900   -0.190300
     19          6           0       -3.057600    0.035600    0.062700
     20          1           0       -3.225900   -0.659800    0.891000
     21          1           0       -3.893600    0.741000    0.037700
     22          1           0       -3.057400   -0.541300   -0.867300
 ---------------------------------------------------------------------
                    Distance matrix (angstroms):
                    1          2          3          4          5
     1  C    0.000000
     2  C    2.360864   0.000000
     3  C    3.020557   3.413417   0.000000
     4  C    3.160458   1.423013   2.750316   0.000000
     5  C    1.456550   3.021914   2.474387   3.369831   0.000000
     6  C    2.485564   3.435135   1.440255   3.200715   1.341630
     7  H    4.066652   4.102622   1.085413   3.118884   3.403373
     8  H    2.876324   3.349032   1.083174   2.844569   2.835120
     9  H    3.451129   4.295760   2.148741   3.941241   2.095157
    10  H    2.174192   3.714844   3.434432   4.193233   1.090162
    11  H    1.089501   2.577994   2.821265   3.162798   2.184637
    12  H    2.584871   1.078361   4.075899   2.222683   3.646575
    13  H    3.783916   2.250991   2.818095   1.074123   4.064373
    14  O    3.776397   2.287589   4.060144   2.275893   3.578442
    15  C    2.988015   1.469941   4.219238   2.306562   3.275840
    16  C    3.910415   2.318910   3.255425   1.461061   3.662534
    17  O    3.420661   2.391130   5.253146   3.479729   3.848117
    18  O    4.924622   3.493310   3.567378   2.383640   4.453070
    19  C    1.501967   3.178437   4.511862   4.332312   2.535925
    20  H    2.137784   3.069170   5.078921   4.385006   3.413183
    21  H    2.142641   4.156545   4.954369   5.217757   3.018403
    22  H    2.163967   3.521679   4.975955   4.683478   2.697372
                    6          7          8          9         10
     6  C    0.000000
     7  H    2.182494   0.000000
     8  H    2.208645   1.868767   0.000000
     9  H    1.089600   2.448304   3.101126   0.000000
    10  H    2.089318   4.253328   3.901520   2.377474   0.000000
    11  H    2.788406   3.877589   2.296802   3.858251   3.093553
    12  H    4.203149   4.838590   3.739365   5.159566   4.354195
    13  H    3.693480   3.007275   2.679474   4.454050   5.002328
    14  O    3.711350   4.373738   4.565610   4.042368   3.835855
    15  C    3.827482   4.814006   4.454782   4.426461   3.568404
    16  C    3.362145   3.350081   3.769707   3.734400   4.215923
    17  O    4.674098   5.930825   5.438909   5.238646   3.880154
    18  O    3.832218   3.276862   4.231999   3.945313   4.977502
    19  C    3.805091   5.555695   4.335028   4.628536   2.676264
    20  H    4.589933   6.101648   4.763785   5.486469   3.665638
    21  H    4.241837   6.029537   4.687870   5.031160   3.089266
    22  H    4.026251   5.953850   5.012121   4.657553   2.421046
                   11         12         13         14         15
    11  H    0.000000
    12  H    2.553144   0.000000
    13  H    3.483016   2.708447   0.000000
    14  O    4.381594   3.268769   3.281919   0.000000
    15  C    3.625297   2.227071   3.337207   1.362230   0.000000
    16  C    4.223576   3.322941   2.238046   1.361430   2.254125
    17  O    4.187998   2.759127   4.473251   2.306428   1.216370
    18  O    5.171026   4.464141   2.770457   2.307028   3.426963
    19  C    2.205189   3.097941   5.032206   4.505751   3.438931
    20  H    2.543971   2.654137   5.025759   4.673557   3.421649
    21  H    2.561687   3.998799   5.815664   5.534966   4.519630
    22  H    3.109422   3.639041   5.535238   4.302286   3.308941
                   16         17         18         19         20
    16  C    0.000000
    17  O    3.424725   0.000000
    18  O    1.215940   4.550953   0.000000
    19  C    4.992022   3.328020   6.099613   0.000000
    20  H    5.183312   3.168433   6.360403   1.094526   0.000000
    21  H    5.941052   4.403204   6.999267   1.094125   1.770928
    22  H    5.041379   2.948858   6.130613   1.094401   1.770326
                   21         22
    21  H    0.000000
    22  H    1.778356   0.000000
 Stoichiometry    C9H10O3
 Framework group  C1[X(C9H10O3)]
 Deg. of freedom    60
 Full point group                 C1      NOp   1
 Largest Abelian subgroup         C1      NOp   1
 Largest concise Abelian subgroup C1      NOp   1
                         Standard orientation:                         
 ---------------------------------------------------------------------
 Center     Atomic      Atomic             Coordinates (Angstroms)
 Number     Number       Type             X           Y           Z
 ---------------------------------------------------------------------
      1          6           0       -1.863769    0.578273    0.323083
      2          6           0       -0.066985   -0.753794    1.078623
      3          6           0        0.423099    2.550827    0.378113
      4          6           0        1.129016    0.012251    1.166500
      5          6           0       -1.285318    1.238571   -0.839216
      6          6           0       -0.266047    2.110378   -0.807390
      7          1           0        1.411272    2.988616    0.278232
      8          1           0       -0.071980    2.584946    1.340920
      9          1           0        0.142248    2.471813   -1.750729
     10          1           0       -1.672979    0.937702   -1.812689
     11          1           0       -1.834058    1.113353    1.271671
     12          1           0       -0.664732   -1.061144    1.921889
     13          1           0        1.519059    0.538074    2.018039
     14          8           0        1.263650   -1.269638   -0.709219
     15          6           0        0.106016   -1.630526   -0.088483
     16          6           0        1.930002   -0.308253   -0.012652
     17          8           0       -0.643948   -2.531663   -0.412618
     18          8           0        3.006277    0.183584   -0.292361
     19          6           0       -3.060518   -0.303866    0.109713
     20          1           0       -3.116646   -1.052952    0.905771
     21          1           0       -3.978906    0.290144    0.138447
     22          1           0       -3.014076   -0.831971   -0.847712
 ---------------------------------------------------------------------
 Rotational constants (GHZ):           1.1711735           0.9350118           0.6241298
 Standard basis: STO-3G (5D, 7F)
 There are    70 symmetry adapted cartesian basis functions of A   symmetry.
 There are    70 symmetry adapted basis functions of A   symmetry.
    70 basis functions,   210 primitive gaussians,    70 cartesian basis functions
    44 alpha electrons       44 beta electrons
       nuclear repulsion energy       695.2888441617 Hartrees.
 NAtoms=   22 NActive=   22 NUniq=   22 SFac= 1.00D+00 NAtFMM=   60 NAOKFM=F Big=F
 Integral buffers will be    131072 words long.
 Raffenetti 1 integral format.
 Two-electron integral symmetry is turned on.
 External calculation of energy, first and second derivatives.
 Running external command "~/scripts/MiMe -H 'hf 6-31g(d)' -EF 'wb97xd def2svp' -c 12 -m 48GB R"
         input file       "/local/jobs/1157666/Gau-2035184.EIn"
         output file      "/local/jobs/1157666/Gau-2035184.EOu"
         message file     "/local/jobs/1157666/Gau-2035184.EMs"
         fchk file        "/local/jobs/1157666/Gau-2035184.EFC"
         mat. el file     "/local/jobs/1157666/Gau-2035184.EUF"
 Read checkpoint file Gau-2035184_H.chk type G16
 Write formatted file Gau-2035184_H.fchk

deriv: 2

spelevel: wb97xd def2svp
gradlevel: wb97xd def2svp
hesslevel: hf 6-31g(d)

runspe: False
runforce: True
runfreq: True

Running Gaussian ...

Parsing files ...
SPE file: Gau-2035184_F.out
FORCE file: Gau-2035184_F.out
HESS file: Gau-2035184_H.out

 ExternalExternalExternalExternalExternalExternalExternalExternalExternalExternal
 Output from external command:
 "~/scripts/MiMe -H 'hf 6-31g(d)' -EF 'wb97xd def2svp' -c 12 -m 48GB R /local/jobs/1157666/Gau-2035184.EIn /local/jobs/1157666/Gau-2035184.EOu /local/jobs/1157666/Gau-2035184.EMs /local/jobs/1157666/Gau-2035184.EFC /local/jobs/1157666/Gau-2035184.EUF"
  
 --------------------------------------------------
 Force calculation at wb97xd def2svp
 Hessian calculation at hf 6-31g(d)
 ExternalExternalExternalExternalExternalExternalExternalExternalExternalExternal

 Recovered energy= -573.941726387     dipole=     -3.222100000000      3.139800000000      2.688900000000
 Energy=    -573.941726     NIter=   0.
 Dipole moment=      -3.222100       3.139800       2.688900
 ***** Axes restored to original set *****
 -------------------------------------------------------------------
 Center     Atomic                   Forces (Hartrees/Bohr)
 Number     Number              X              Y              Z
 -------------------------------------------------------------------
      1        6           0.012273947    0.025258595   -0.059938500
      2        6           0.052378418    0.028526631    0.009739413
      3        6          -0.026814780   -0.025624729   -0.049211987
      4        6          -0.057689340   -0.015490685   -0.002001586
      5        6          -0.079741623   -0.048744934    0.048668419
      6        6           0.082553465    0.052195939    0.048884367
      7        1           0.002325957    0.007386340    0.000027821
      8        1          -0.000612829   -0.005516827    0.006994137
      9        1           0.004874828   -0.005375675   -0.003303508
     10        1          -0.000122781   -0.005027901   -0.002029151
     11        1           0.007925370   -0.004009035    0.005647462
     12        1          -0.008986867    0.001338317    0.003109308
     13        1           0.004392131    0.005755217    0.006211963
     14        8           0.004451073   -0.014813358   -0.029321671
     15        6          -0.041183683   -0.018769492    0.006150786
     16        6           0.038119703    0.030265849    0.012923938
     17        8           0.037581314    0.021740138   -0.003330862
     18        8          -0.034972153   -0.023044354   -0.006259621
     19        6           0.010235194   -0.005241796    0.006779912
     20        1          -0.003633732   -0.003166072    0.001769250
     21        1          -0.003990841    0.003748943    0.000598038
     22        1           0.000637229   -0.001391111   -0.002107930
 -------------------------------------------------------------------
 Cartesian Forces:  Max     0.082553465 RMS     0.027140098
 FormGI is forming the generalized inverse of G from B-inverse, IUseBI=4.

 GradGradGradGradGradGradGradGradGradGradGradGradGradGradGradGradGradGrad
 Berny optimization.
 Internal  Forces:  Max     0.064786580 RMS     0.013715773
 Search for a saddle point.
 Step number   1 out of a maximum of   50
 All quantities printed in internal units (Hartrees-Bohrs-Radians)
 Swapping is turned off.
 Second derivative matrix not updated -- analytic derivatives used.
 ITU=  0
     Eigenvalues ---   -0.09603   0.00675   0.01236   0.01729   0.01849
     Eigenvalues ---    0.02145   0.02256   0.02662   0.02719   0.03107
     Eigenvalues ---    0.03236   0.03818   0.04129   0.05141   0.05372
     Eigenvalues ---    0.05532   0.05705   0.05895   0.06166   0.06659
     Eigenvalues ---    0.08033   0.08537   0.09933   0.11870   0.12720
     Eigenvalues ---    0.14498   0.14587   0.15832   0.16055   0.17444
     Eigenvalues ---    0.18000   0.18730   0.19239   0.20154   0.21707
     Eigenvalues ---    0.22605   0.27747   0.29855   0.30936   0.32999
     Eigenvalues ---    0.35115   0.35157   0.35824   0.36363   0.36743
     Eigenvalues ---    0.36920   0.37023   0.37256   0.38145   0.38409
     Eigenvalues ---    0.39012   0.39991   0.40312   0.41053   0.41920
     Eigenvalues ---    0.44125   0.55870   0.70584   0.84962   0.85978
 Eigenvectors required to have negative eigenvalues:
                          R1        D10       D39       R5        R8
   1                   -0.64434   0.24092  -0.22646   0.20023   0.17944
                          D47       D12       R2        D11       A3
   1                    0.17520   0.17431   0.17383   0.16967   0.15897
 RFO step:  Lambda0=2.275349582D-03 Lambda=-5.12271881D-02.
 Linear search not attempted -- option 19 set.
 Maximum step size (   0.100) exceeded in Quadratic search.
    -- Step size scaled by   0.290
 Iteration  1 RMS(Cart)=  0.04448744 RMS(Int)=  0.00026113
 Iteration  2 RMS(Cart)=  0.00053102 RMS(Int)=  0.00003609
 Iteration  3 RMS(Cart)=  0.00000018 RMS(Int)=  0.00003609
 Variable       Old X    -DE/DX   Delta X   Delta X   Delta X     New X
                                 (Linear)    (Quad)   (Total)
    R1        4.46139  -0.01492   0.00000  -0.05115  -0.05115   4.41023
    R2        2.75248  -0.05964   0.00000  -0.03952  -0.03952   2.71296
    R3        2.05886   0.00323   0.00000   0.00208   0.00208   2.06094
    R4        2.83831  -0.00080   0.00000  -0.00124  -0.00124   2.83706
    R5        2.68910  -0.04141   0.00000  -0.02103  -0.02104   2.66807
    R6        2.03781   0.00761   0.00000   0.00526   0.00526   2.04307
    R7        2.77779   0.01161   0.00000   0.00578   0.00579   2.78358
    R8        2.72169  -0.05381   0.00000  -0.03427  -0.03427   2.68742
    R9        2.05113   0.00429   0.00000   0.00343   0.00343   2.05456
   R10        2.04690   0.00566   0.00000   0.00347   0.00347   2.05037
   R11        2.02980   0.00937   0.00000   0.00603   0.00603   2.03583
   R12        2.76101   0.01274   0.00000   0.00944   0.00943   2.77044
   R13        2.53531   0.06479   0.00000   0.02600   0.02600   2.56131
   R14        2.06011   0.00322   0.00000   0.00224   0.00224   2.06235
   R15        2.05905   0.00370   0.00000   0.00219   0.00219   2.06123
   R16        2.57424   0.00137   0.00000   0.00640   0.00641   2.58065
   R17        2.57273   0.00684   0.00000   0.00812   0.00812   2.58085
   R18        2.29861  -0.04002   0.00000  -0.01347  -0.01347   2.28513
   R19        2.29779  -0.03768   0.00000  -0.01356  -0.01356   2.28423
   R20        2.06835   0.00391   0.00000   0.00235   0.00235   2.07071
   R21        2.06760   0.00545   0.00000   0.00373   0.00373   2.07132
   R22        2.06812   0.00253   0.00000   0.00173   0.00173   2.06985
    A1        1.78125  -0.02049   0.00000  -0.01685  -0.01685   1.76440
    A2        1.54851  -0.00462   0.00000  -0.01294  -0.01295   1.53556
    A3        1.89704   0.01311   0.00000   0.00729   0.00734   1.90438
    A4        2.05026  -0.00102   0.00000   0.00228   0.00206   2.05231
    A5        2.05932   0.00925   0.00000   0.01128   0.01126   2.07058
    A6        2.01957  -0.00197   0.00000  -0.00140  -0.00142   2.01815
    A7        1.93444  -0.00778   0.00000   0.00096   0.00096   1.93540
    A8        1.56000   0.00408   0.00000   0.00460   0.00459   1.56459
    A9        1.74366  -0.00443   0.00000  -0.01498  -0.01497   1.72869
   A10        2.17855  -0.00030   0.00000   0.00066   0.00066   2.17920
   A11        1.84543   0.00527   0.00000   0.00514   0.00513   1.85056
   A12        2.11312  -0.00100   0.00000  -0.00160  -0.00161   2.11151
   A13        2.07513   0.00118   0.00000   0.00276   0.00271   2.07784
   A14        2.12068   0.00056   0.00000   0.00168   0.00162   2.12230
   A15        2.07740  -0.00165   0.00000  -0.00712  -0.00717   2.07022
   A16        2.23659  -0.00036   0.00000  -0.00090  -0.00093   2.23566
   A17        1.86799   0.00195   0.00000   0.00271   0.00267   1.87066
   A18        2.15092  -0.00151   0.00000  -0.00502  -0.00503   2.14588
   A19        2.18629  -0.01248   0.00000  -0.00776  -0.00781   2.17849
   A20        2.03335   0.00476   0.00000   0.00640   0.00635   2.03970
   A21        2.06086   0.00728   0.00000   0.00016   0.00011   2.06097
   A22        2.19170  -0.00848   0.00000  -0.00733  -0.00737   2.18433
   A23        2.01738   0.00412   0.00000   0.00840   0.00836   2.02574
   A24        2.07111   0.00395   0.00000  -0.00213  -0.00216   2.06895
   A25        1.94967  -0.01565   0.00000  -0.00644  -0.00644   1.94323
   A26        1.87948   0.00425   0.00000  -0.00028  -0.00029   1.87919
   A27        2.19061   0.01754   0.00000   0.01796   0.01796   2.20856
   A28        2.21279  -0.02172   0.00000  -0.01754  -0.01755   2.19524
   A29        1.87497   0.00453   0.00000  -0.00059  -0.00060   1.87436
   A30        2.19219   0.01990   0.00000   0.01981   0.01982   2.21201
   A31        2.21576  -0.02439   0.00000  -0.01916  -0.01916   2.19661
   A32        1.91718   0.00511   0.00000   0.00681   0.00681   1.92399
   A33        1.92433  -0.00124   0.00000  -0.00279  -0.00279   1.92154
   A34        1.95399  -0.00148   0.00000  -0.00207  -0.00207   1.95191
   A35        1.88538  -0.00184   0.00000  -0.00182  -0.00182   1.88356
   A36        1.88410  -0.00150   0.00000  -0.00106  -0.00106   1.88303
   A37        1.89713   0.00088   0.00000   0.00092   0.00091   1.89805
    D1        0.85053  -0.00142   0.00000   0.00112   0.00119   0.85172
    D2        3.07349  -0.00198   0.00000   0.00428   0.00436   3.07785
    D3       -1.08961  -0.00261   0.00000   0.00215   0.00222  -1.08739
    D4       -1.20623   0.00249   0.00000   0.00323   0.00315  -1.20308
    D5        1.01672   0.00192   0.00000   0.00639   0.00633   1.02305
    D6        3.13681   0.00130   0.00000   0.00427   0.00419   3.14099
    D7        3.03873   0.00438   0.00000   0.00841   0.00842   3.04714
    D8       -1.02151   0.00381   0.00000   0.01158   0.01159  -1.00992
    D9        1.09858   0.00318   0.00000   0.00945   0.00945   1.10803
   D10       -1.13125   0.01665   0.00000   0.03238   0.03237  -1.09888
   D11        1.92978   0.01046   0.00000   0.01443   0.01440   1.94418
   D12        0.52503  -0.00003   0.00000   0.00890   0.00888   0.53391
   D13       -2.69712  -0.00621   0.00000  -0.00905  -0.00910  -2.70622
   D14        3.07515   0.01010   0.00000   0.02940   0.02946   3.10461
   D15       -0.14700   0.00391   0.00000   0.01145   0.01149  -0.13552
   D16        0.68732   0.00402   0.00000  -0.00108  -0.00110   0.68623
   D17        2.76316   0.00416   0.00000  -0.00082  -0.00083   2.76232
   D18       -1.40566   0.00343   0.00000  -0.00298  -0.00300  -1.40866
   D19        2.70215  -0.00687   0.00000  -0.01036  -0.01034   2.69181
   D20       -1.50521  -0.00673   0.00000  -0.01010  -0.01008  -1.51528
   D21        0.60916  -0.00746   0.00000  -0.01226  -0.01224   0.59692
   D22       -1.02072   0.00330   0.00000   0.01091   0.01091  -1.00981
   D23        1.05511   0.00345   0.00000   0.01118   0.01117   1.06628
   D24       -3.11371   0.00272   0.00000   0.00901   0.00900  -3.10470
   D25        1.61730   0.00220   0.00000   0.02031   0.02032   1.63762
   D26       -1.77198   0.00240   0.00000   0.00559   0.00559  -1.76639
   D27       -0.20684   0.00324   0.00000   0.01295   0.01297  -0.19387
   D28        2.68707   0.00344   0.00000  -0.00178  -0.00176   2.68531
   D29       -2.79204  -0.00355   0.00000   0.00603   0.00603  -2.78601
   D30        0.10187  -0.00334   0.00000  -0.00870  -0.00870   0.09317
   D31        1.89526  -0.00680   0.00000  -0.00113  -0.00115   1.89411
   D32       -1.27149  -0.00449   0.00000   0.00414   0.00416  -1.26733
   D33       -0.11375   0.00170   0.00000   0.00204   0.00205  -0.11170
   D34        3.00270   0.00401   0.00000   0.00731   0.00735   3.01005
   D35       -2.72458  -0.00494   0.00000  -0.00533  -0.00533  -2.72991
   D36        0.39186  -0.00262   0.00000  -0.00006  -0.00002   0.39184
   D37        2.79792   0.00279   0.00000   0.01795   0.01793   2.81585
   D38       -0.25894   0.00831   0.00000   0.03290   0.03292  -0.22602
   D39       -0.49654   0.00330   0.00000  -0.00305  -0.00307  -0.49961
   D40        2.72978   0.00882   0.00000   0.01190   0.01192   2.74170
   D41       -0.05654   0.00270   0.00000   0.01234   0.01235  -0.04419
   D42        3.10840   0.00118   0.00000   0.00969   0.00968   3.11808
   D43        2.85245   0.00306   0.00000  -0.00084  -0.00081   2.85164
   D44       -0.26579   0.00154   0.00000  -0.00349  -0.00348  -0.26927
   D45       -0.00917   0.00431   0.00000   0.00835   0.00835  -0.00082
   D46        3.04532  -0.00137   0.00000  -0.00657  -0.00653   3.03880
   D47       -3.06905   0.01071   0.00000   0.02631   0.02627  -3.04278
   D48       -0.01456   0.00502   0.00000   0.01139   0.01139  -0.00317
   D49        0.08219  -0.00138   0.00000   0.00527   0.00526   0.08744
   D50       -3.03385  -0.00447   0.00000  -0.00075  -0.00066  -3.03450
   D51       -0.01733  -0.00150   0.00000  -0.01138  -0.01132  -0.02864
   D52        3.10051   0.00082   0.00000  -0.00801  -0.00801   3.09250
         Item               Value     Threshold  Converged?
 Maximum Force            0.064787     0.000450     NO 
 RMS     Force            0.013716     0.000300     NO 
 Maximum Displacement     0.170996     0.001800     NO 
 RMS     Displacement     0.044504     0.001200     NO 
 Predicted change in Energy=-1.251840D-02
 GradGradGradGradGradGradGradGradGradGradGradGradGradGradGradGradGradGrad

                          Input orientation:                          
 ---------------------------------------------------------------------
 Center     Atomic      Atomic             Coordinates (Angstroms)
 Number     Number       Type             X           Y           Z
 ---------------------------------------------------------------------
      1          6           0       -1.768950    0.768738    0.260293
      2          6           0       -0.172348   -0.694234    1.130448
      3          6           0        0.769269    2.355760    0.310165
      4          6           0        1.091764   -0.070457    1.210005
      5          6           0       -1.083931    1.267717   -0.898511
      6          6           0        0.065452    1.985428   -0.868785
      7          1           0        1.811842    2.653813    0.230981
      8          1           0        0.257375    2.502003    1.255588
      9          1           0        0.551342    2.230670   -1.814046
     10          1           0       -1.477089    0.967362   -1.871265
     11          1           0       -1.687263    1.345134    1.182526
     12          1           0       -0.819855   -0.888318    1.974212
     13          1           0        1.527819    0.443023    2.050720
     14          8           0        1.115399   -1.448634   -0.609781
     15          6           0       -0.088480   -1.641335    0.005410
     16          6           0        1.879991   -0.541912    0.067317
     17          8           0       -0.920529   -2.460176   -0.309956
     18          8           0        3.007525   -0.212965   -0.218287
     19          6           0       -3.061246    0.028896    0.069153
     20          1           0       -3.230565   -0.660197    0.904135
     21          1           0       -3.898834    0.735301    0.039696
     22          1           0       -3.062189   -0.557115   -0.856217
 ---------------------------------------------------------------------
                    Distance matrix (angstroms):
                    1          2          3          4          5
     1  C    0.000000
     2  C    2.333794   0.000000
     3  C    2.993941   3.295750   0.000000
     4  C    3.128879   1.411880   2.607728   0.000000
     5  C    1.435639   2.965959   2.465580   3.312129   0.000000
     6  C    2.473900   3.351727   1.422120   3.098605   1.355387
     7  H    4.046781   3.994430   1.087227   2.983060   3.403309
     8  H    2.846192   3.227422   1.085011   2.704780   2.821827
     9  H    3.438587   4.212936   2.139021   3.838245   2.107035
    10  H    2.160596   3.670631   3.425260   4.143706   1.091346
    11  H    1.090604   2.541004   2.795877   3.118917   2.168114
    12  H    2.565958   1.081144   3.977237   2.215219   3.601495
    13  H    3.765688   2.242950   2.695086   1.077315   4.024838
    14  O    3.740754   2.292555   3.929315   2.282882   3.506990
    15  C    2.949135   1.473005   4.099436   2.304709   3.204775
    16  C    3.881986   2.316365   3.112744   1.466052   3.604499
    17  O    3.386870   2.398560   5.141324   3.474243   3.777604
    18  O    4.899744   3.487449   3.447811   2.393840   4.403991
    19  C    1.501310   3.161487   4.488344   4.308005   2.526030
    20  H    2.143060   3.066769   5.044549   4.373086   3.402121
    21  H    2.141539   4.137634   4.948760   5.188925   3.014529
    22  H    2.162626   3.509533   4.952308   4.664915   2.691711
                    6          7          8          9         10
     6  C    0.000000
     7  H    2.169354   0.000000
     8  H    2.194686   1.867949   0.000000
     9  H    1.090757   2.439271   3.095592   0.000000
    10  H    2.102584   4.252131   3.891105   2.390345   0.000000
    11  H    2.773060   3.855102   2.263912   3.843821   3.084238
    12  H    4.138215   4.744615   3.629204   5.095014   4.320093
    13  H    3.611238   2.877448   2.546695   4.368707   4.968537
    14  O    3.600313   4.245231   4.452341   3.912249   3.761565
    15  C    3.733809   4.702170   4.341637   4.325762   3.500777
    16  C    3.249044   3.200638   3.648327   3.604447   4.160046
    17  O    4.587794   5.823345   5.334942   5.141277   3.807291
    18  O    3.729863   3.138458   4.136023   3.814529   4.923136
    19  C    3.805783   5.537451   4.305477   4.630878   2.674975
    20  H    4.583264   6.071381   4.721097   5.481646   3.664215
    21  H    4.254847   6.027363   4.676934   5.047430   3.093619
    22  H    4.030735   5.937022   4.983716   4.663345   2.422167
                   11         12         13         14         15
    11  H    0.000000
    12  H    2.523385   0.000000
    13  H    3.450263   2.699981   0.000000
    14  O    4.344239   3.276612   3.290399   0.000000
    15  C    3.586182   2.231171   3.337703   1.365621   0.000000
    16  C    4.186876   3.323464   2.242322   1.365726   2.255536
    17  O    4.158818   2.774581   4.471663   2.293059   1.209241
    18  O    5.141107   4.462285   2.787157   2.293531   3.416947
    19  C    2.204521   3.081294   5.015738   4.482010   3.410436
    20  H    2.545709   2.647382   5.017367   4.669152   3.412190
    21  H    2.563007   3.982287   5.794671   5.507625   4.490921
    22  H    3.108930   3.626168   5.524376   4.278759   3.280378
                   16         17         18         19         20
    16  C    0.000000
    17  O    3.415404   0.000000
    18  O    1.208763   4.526364   0.000000
    19  C    4.974098   3.304826   6.080387   0.000000
    20  H    5.179965   3.170206   6.354024   1.095771   0.000000
    21  H    5.918349   4.382195   6.975928   1.096097   1.772358
    22  H    5.027752   2.916634   6.112841   1.095317   1.771388
                   21         22
    21  H    0.000000
    22  H    1.781284   0.000000
 Stoichiometry    C9H10O3
 Framework group  C1[X(C9H10O3)]
 Deg. of freedom    60
 Full point group                 C1      NOp   1
 Largest Abelian subgroup         C1      NOp   1
 Largest concise Abelian subgroup C1      NOp   1
                         Standard orientation:                         
 ---------------------------------------------------------------------
 Center     Atomic      Atomic             Coordinates (Angstroms)
 Number     Number       Type             X           Y           Z
 ---------------------------------------------------------------------
      1          6           0       -1.831052    0.672643    0.300956
      2          6           0       -0.120881   -0.706173    1.088851
      3          6           0        0.592295    2.429535    0.367268
      4          6           0        1.098559    0.000743    1.170330
      5          6           0       -1.204642    1.259546   -0.849789
      6          6           0       -0.107073    2.053925   -0.812659
      7          1           0        1.610125    2.802047    0.281710
      8          1           0        0.089977    2.505611    1.325985
      9          1           0        0.342340    2.366315   -1.756157
     10          1           0       -1.594968    0.967865   -1.826315
     11          1           0       -1.771394    1.219673    1.242559
     12          1           0       -0.736991   -0.975143    1.935572
     13          1           0        1.514430    0.512642    2.022162
     14          8           0        1.181779   -1.305893   -0.699786
     15          6           0        0.006195   -1.603936   -0.072018
     16          6           0        1.895079   -0.373206   -0.002286
     17          8           0       -0.773427   -2.466756   -0.403672
     18          8           0        2.991521    0.043461   -0.294369
     19          6           0       -3.072774   -0.147916    0.104129
     20          1           0       -3.177991   -0.876795    0.915535
     21          1           0       -3.957450    0.499119    0.115188
     22          1           0       -3.051293   -0.698803   -0.842328
 ---------------------------------------------------------------------
 Rotational constants (GHZ):           1.2178235           0.9435560           0.6412602
 Standard basis: STO-3G (5D, 7F)
 There are    70 symmetry adapted cartesian basis functions of A   symmetry.
 There are    70 symmetry adapted basis functions of A   symmetry.
    70 basis functions,   210 primitive gaussians,    70 cartesian basis functions
    44 alpha electrons       44 beta electrons
       nuclear repulsion energy       701.1549648765 Hartrees.
 NAtoms=   22 NActive=   22 NUniq=   22 SFac= 1.00D+00 NAtFMM=   60 NAOKFM=F Big=F
 Integral buffers will be    131072 words long.
 Raffenetti 1 integral format.
 Two-electron integral symmetry is turned on.
 External calculation of energy, first and second derivatives.
 Running external command "~/scripts/MiMe -H 'hf 6-31g(d)' -EF 'wb97xd def2svp' -c 12 -m 48GB R"
         input file       "/local/jobs/1157666/Gau-2035184.EIn"
         output file      "/local/jobs/1157666/Gau-2035184.EOu"
         message file     "/local/jobs/1157666/Gau-2035184.EMs"
         fchk file        "/local/jobs/1157666/Gau-2035184.EFC"
         mat. el file     "/local/jobs/1157666/Gau-2035184.EUF"
 Read checkpoint file Gau-2035184_H.chk type G16
 Write formatted file Gau-2035184_H.fchk

deriv: 2

spelevel: wb97xd def2svp
gradlevel: wb97xd def2svp
hesslevel: hf 6-31g(d)

runspe: False
runforce: True
runfreq: True

Running Gaussian ...

Parsing files ...
SPE file: Gau-2035184_F.out
FORCE file: Gau-2035184_F.out
HESS file: Gau-2035184_H.out

 ExternalExternalExternalExternalExternalExternalExternalExternalExternalExternal
 Output from external command:
 "~/scripts/MiMe -H 'hf 6-31g(d)' -EF 'wb97xd def2svp' -c 12 -m 48GB R /local/jobs/1157666/Gau-2035184.EIn /local/jobs/1157666/Gau-2035184.EOu /local/jobs/1157666/Gau-2035184.EMs /local/jobs/1157666/Gau-2035184.EFC /local/jobs/1157666/Gau-2035184.EUF"
  
 --------------------------------------------------
 Force calculation at wb97xd def2svp
 Hessian calculation at hf 6-31g(d)
 ExternalExternalExternalExternalExternalExternalExternalExternalExternalExternal

 Recovered energy= -573.954406190     dipole=     -3.038400000000      3.333100000000      2.725800000000
 Energy=    -573.954406     NIter=   0.
 Dipole moment=      -3.038400       3.333100       2.725800
 ***** Axes restored to original set *****
 -------------------------------------------------------------------
 Center     Atomic                   Forces (Hartrees/Bohr)
 Number     Number              X              Y              Z
 -------------------------------------------------------------------
      1        6           0.008719189    0.019741571   -0.046585656
      2        6           0.039825007    0.021742935    0.008728978
      3        6          -0.019973080   -0.020601939   -0.037174659
      4        6          -0.044624046   -0.009844142   -0.002078358
      5        6          -0.061630198   -0.034272094    0.036414814
      6        6           0.063057788    0.039039102    0.036835909
      7        1           0.001361734    0.006699095    0.000393439
      8        1          -0.000369275   -0.004284020    0.005161227
      9        1           0.003922565   -0.005454673   -0.002549545
     10        1           0.000393051   -0.004172175   -0.001525587
     11        1           0.006813730   -0.003826177    0.004680014
     12        1          -0.007207816    0.001016853    0.001791820
     13        1           0.003764786    0.003270799    0.004842708
     14        8           0.003261676   -0.010467814   -0.023172203
     15        6          -0.031215916   -0.014283383    0.005430935
     16        6           0.028926624    0.022725180    0.010684753
     17        8           0.027885040    0.016045099   -0.003052517
     18        8          -0.025664151   -0.017598345   -0.005079330
     19        6           0.008142201   -0.004797112    0.006064916
     20        1          -0.002904053   -0.002364651    0.001320793
     21        1          -0.003010121    0.002780068    0.000464411
     22        1           0.000525265   -0.001094178   -0.001596863
 -------------------------------------------------------------------
 Cartesian Forces:  Max     0.063057788 RMS     0.020637489
 FormGI is forming the generalized inverse of G from B-inverse, IUseBI=4.

 GradGradGradGradGradGradGradGradGradGradGradGradGradGradGradGradGradGrad
 Berny optimization.
 Internal  Forces:  Max     0.048918926 RMS     0.010427160
 Search for a saddle point.
 Step number   2 out of a maximum of   50
 All quantities printed in internal units (Hartrees-Bohrs-Radians)
 Swapping is turned off.
 Second derivative matrix not updated -- analytic derivatives used.
 ITU=  0  0
     Eigenvalues ---   -0.09624   0.00676   0.01242   0.01764   0.01900
     Eigenvalues ---    0.02199   0.02358   0.02808   0.02888   0.03140
     Eigenvalues ---    0.03288   0.03997   0.04337   0.05481   0.05636
     Eigenvalues ---    0.05745   0.05790   0.05974   0.06282   0.06939
     Eigenvalues ---    0.08143   0.09668   0.11174   0.11901   0.12945
     Eigenvalues ---    0.14734   0.15381   0.15940   0.16440   0.17690
     Eigenvalues ---    0.18366   0.18797   0.19588   0.20236   0.21955
     Eigenvalues ---    0.23951   0.27697   0.30153   0.30777   0.34659
     Eigenvalues ---    0.34990   0.35364   0.35806   0.36532   0.36689
     Eigenvalues ---    0.36815   0.37076   0.37208   0.38009   0.38547
     Eigenvalues ---    0.39267   0.40294   0.41233   0.41385   0.44425
     Eigenvalues ---    0.46767   0.60200   0.69412   0.88975   0.90102
 Eigenvectors required to have negative eigenvalues:
                          R1        D39       R5        D10       R8
   1                   -0.64436  -0.25474   0.20926   0.20835   0.18419
                          R2        R13       D12       D40       D47
   1                    0.17414  -0.17413   0.17376  -0.16151   0.15174
 RFO step:  Lambda0=1.921843761D-03 Lambda=-3.05124516D-02.
 Linear search not attempted -- option 19 set.
 Maximum step size (   0.100) exceeded in Quadratic search.
    -- Step size scaled by   0.361
 Iteration  1 RMS(Cart)=  0.03826027 RMS(Int)=  0.00022557
 Iteration  2 RMS(Cart)=  0.00042747 RMS(Int)=  0.00004526
 Iteration  3 RMS(Cart)=  0.00000012 RMS(Int)=  0.00004526
 Variable       Old X    -DE/DX   Delta X   Delta X   Delta X     New X
                                 (Linear)    (Quad)   (Total)
    R1        4.41023  -0.01207   0.00000  -0.06001  -0.06001   4.35022
    R2        2.71296  -0.04464   0.00000  -0.03269  -0.03269   2.68028
    R3        2.06094   0.00245   0.00000   0.00203   0.00203   2.06297
    R4        2.83706  -0.00047   0.00000  -0.00123  -0.00123   2.83583
    R5        2.66807  -0.03086   0.00000  -0.01706  -0.01705   2.65102
    R6        2.04307   0.00553   0.00000   0.00502   0.00502   2.04809
    R7        2.78358   0.00902   0.00000   0.00593   0.00594   2.78951
    R8        2.68742  -0.04034   0.00000  -0.02864  -0.02864   2.65877
    R9        2.05456   0.00311   0.00000   0.00329   0.00329   2.05786
   R10        2.05037   0.00409   0.00000   0.00321   0.00321   2.05358
   R11        2.03583   0.00686   0.00000   0.00597   0.00597   2.04180
   R12        2.77044   0.00994   0.00000   0.00937   0.00937   2.77981
   R13        2.56131   0.04892   0.00000   0.02522   0.02522   2.58653
   R14        2.06235   0.00237   0.00000   0.00211   0.00211   2.06445
   R15        2.06123   0.00273   0.00000   0.00193   0.00193   2.06316
   R16        2.58065   0.00152   0.00000   0.00704   0.00703   2.58768
   R17        2.58085   0.00543   0.00000   0.00847   0.00846   2.58931
   R18        2.28513  -0.02925   0.00000  -0.01184  -0.01184   2.27329
   R19        2.28423  -0.02753   0.00000  -0.01204  -0.01204   2.27220
   R20        2.07071   0.00294   0.00000   0.00208   0.00208   2.07279
   R21        2.07132   0.00408   0.00000   0.00384   0.00384   2.07517
   R22        2.06985   0.00193   0.00000   0.00166   0.00166   2.07151
    A1        1.76440  -0.01621   0.00000  -0.00918  -0.00915   1.75525
    A2        1.53556  -0.00386   0.00000  -0.01426  -0.01428   1.52129
    A3        1.90438   0.00997   0.00000  -0.00197  -0.00193   1.90245
    A4        2.05231  -0.00102   0.00000   0.00168   0.00151   2.05382
    A5        2.07058   0.00769   0.00000   0.01239   0.01233   2.08291
    A6        2.01815  -0.00160   0.00000  -0.00091  -0.00102   2.01713
    A7        1.93540  -0.00579   0.00000   0.00179   0.00179   1.93719
    A8        1.56459   0.00324   0.00000   0.00476   0.00474   1.56933
    A9        1.72869  -0.00406   0.00000  -0.01566  -0.01566   1.71303
   A10        2.17920  -0.00009   0.00000   0.00192   0.00191   2.18111
   A11        1.85056   0.00405   0.00000   0.00460   0.00459   1.85515
   A12        2.11151  -0.00078   0.00000  -0.00266  -0.00268   2.10884
   A13        2.07784   0.00125   0.00000   0.00289   0.00274   2.08057
   A14        2.12230   0.00037   0.00000   0.00109   0.00093   2.12323
   A15        2.07022  -0.00167   0.00000  -0.00897  -0.00913   2.06109
   A16        2.23566  -0.00023   0.00000  -0.00192  -0.00202   2.23364
   A17        1.87066   0.00148   0.00000   0.00249   0.00239   1.87305
   A18        2.14588  -0.00130   0.00000  -0.00641  -0.00649   2.13940
   A19        2.17849  -0.01028   0.00000  -0.00899  -0.00907   2.16942
   A20        2.03970   0.00427   0.00000   0.00702   0.00695   2.04664
   A21        2.06097   0.00552   0.00000   0.00010   0.00003   2.06100
   A22        2.18433  -0.00762   0.00000  -0.00966  -0.00971   2.17462
   A23        2.02574   0.00393   0.00000   0.01004   0.00998   2.03573
   A24        2.06895   0.00327   0.00000  -0.00201  -0.00206   2.06689
   A25        1.94323  -0.01154   0.00000  -0.00570  -0.00574   1.93748
   A26        1.87919   0.00301   0.00000  -0.00041  -0.00042   1.87877
   A27        2.20856   0.01414   0.00000   0.01903   0.01903   2.22759
   A28        2.19524  -0.01711   0.00000  -0.01850  -0.01850   2.17674
   A29        1.87436   0.00325   0.00000  -0.00070  -0.00073   1.87364
   A30        2.21201   0.01590   0.00000   0.02025   0.02026   2.23227
   A31        2.19661  -0.01912   0.00000  -0.01944  -0.01944   2.17717
   A32        1.92399   0.00407   0.00000   0.00788   0.00788   1.93187
   A33        1.92154  -0.00092   0.00000  -0.00330  -0.00330   1.91824
   A34        1.95191  -0.00121   0.00000  -0.00222  -0.00223   1.94969
   A35        1.88356  -0.00151   0.00000  -0.00208  -0.00207   1.88149
   A36        1.88303  -0.00118   0.00000  -0.00084  -0.00084   1.88219
   A37        1.89805   0.00069   0.00000   0.00052   0.00052   1.89856
    D1        0.85172  -0.00101   0.00000   0.00148   0.00151   0.85323
    D2        3.07785  -0.00122   0.00000   0.00639   0.00642   3.08427
    D3       -1.08739  -0.00179   0.00000   0.00315   0.00317  -1.08423
    D4       -1.20308   0.00184   0.00000   0.00324   0.00322  -1.19986
    D5        1.02305   0.00163   0.00000   0.00815   0.00813   1.03118
    D6        3.14099   0.00107   0.00000   0.00491   0.00488  -3.13731
    D7        3.04714   0.00365   0.00000   0.00975   0.00975   3.05689
    D8       -1.00992   0.00344   0.00000   0.01466   0.01467  -0.99525
    D9        1.10803   0.00287   0.00000   0.01142   0.01141   1.11944
   D10       -1.09888   0.01343   0.00000   0.02902   0.02902  -1.06986
   D11        1.94418   0.00795   0.00000   0.00630   0.00627   1.95045
   D12        0.53391   0.00007   0.00000   0.00806   0.00805   0.54196
   D13       -2.70622  -0.00541   0.00000  -0.01466  -0.01470  -2.72092
   D14        3.10461   0.00874   0.00000   0.03168   0.03173   3.13634
   D15       -0.13552   0.00326   0.00000   0.00896   0.00898  -0.12654
   D16        0.68623   0.00304   0.00000  -0.00394  -0.00393   0.68230
   D17        2.76232   0.00313   0.00000  -0.00365  -0.00365   2.75867
   D18       -1.40866   0.00257   0.00000  -0.00674  -0.00673  -1.41539
   D19        2.69181  -0.00561   0.00000  -0.00954  -0.00954   2.68226
   D20       -1.51528  -0.00552   0.00000  -0.00926  -0.00927  -1.52455
   D21        0.59692  -0.00608   0.00000  -0.01235  -0.01235   0.58457
   D22       -1.00981   0.00300   0.00000   0.01434   0.01434  -0.99547
   D23        1.06628   0.00309   0.00000   0.01462   0.01462   1.08090
   D24       -3.10470   0.00253   0.00000   0.01154   0.01154  -3.09316
   D25        1.63762   0.00259   0.00000   0.02906   0.02908   1.66670
   D26       -1.76639   0.00224   0.00000   0.00399   0.00400  -1.76239
   D27       -0.19387   0.00304   0.00000   0.02004   0.02007  -0.17381
   D28        2.68531   0.00268   0.00000  -0.00503  -0.00502   2.68029
   D29       -2.78601  -0.00250   0.00000   0.01406   0.01406  -2.77195
   D30        0.09317  -0.00285   0.00000  -0.01102  -0.01102   0.08215
   D31        1.89411  -0.00525   0.00000  -0.00191  -0.00194   1.89217
   D32       -1.26733  -0.00324   0.00000   0.00435   0.00437  -1.26296
   D33       -0.11170   0.00137   0.00000   0.00084   0.00084  -0.11086
   D34        3.01005   0.00337   0.00000   0.00710   0.00715   3.01720
   D35       -2.72991  -0.00408   0.00000  -0.00649  -0.00649  -2.73640
   D36        0.39184  -0.00208   0.00000  -0.00023  -0.00018   0.39166
   D37        2.81585   0.00277   0.00000   0.02558   0.02553   2.84138
   D38       -0.22602   0.00763   0.00000   0.04504   0.04506  -0.18096
   D39       -0.49961   0.00226   0.00000  -0.00887  -0.00889  -0.50850
   D40        2.74170   0.00712   0.00000   0.01060   0.01064   2.75234
   D41       -0.04419   0.00261   0.00000   0.01748   0.01748  -0.02671
   D42        3.11808   0.00113   0.00000   0.01225   0.01221   3.13029
   D43        2.85164   0.00244   0.00000  -0.00527  -0.00521   2.84643
   D44       -0.26927   0.00097   0.00000  -0.01050  -0.01049  -0.27976
   D45       -0.00082   0.00323   0.00000   0.00391   0.00390   0.00309
   D46        3.03880  -0.00173   0.00000  -0.01539  -0.01533   3.02347
   D47       -3.04278   0.00885   0.00000   0.02653   0.02648  -3.01630
   D48       -0.00317   0.00389   0.00000   0.00724   0.00724   0.00408
   D49        0.08744  -0.00077   0.00000   0.00998   0.00996   0.09740
   D50       -3.03450  -0.00320   0.00000   0.00324   0.00335  -3.03115
   D51       -0.02864  -0.00156   0.00000  -0.01736  -0.01727  -0.04592
   D52        3.09250   0.00042   0.00000  -0.01159  -0.01162   3.08088
         Item               Value     Threshold  Converged?
 Maximum Force            0.048919     0.000450     NO 
 RMS     Force            0.010427     0.000300     NO 
 Maximum Displacement     0.132959     0.001800     NO 
 RMS     Displacement     0.038297     0.001200     NO 
 Predicted change in Energy=-8.731663D-03
 GradGradGradGradGradGradGradGradGradGradGradGradGradGradGradGradGradGrad

                          Input orientation:                          
 ---------------------------------------------------------------------
 Center     Atomic      Atomic             Coordinates (Angstroms)
 Number     Number       Type             X           Y           Z
 ---------------------------------------------------------------------
      1          6           0       -1.768876    0.769064    0.251596
      2          6           0       -0.182157   -0.652148    1.124439
      3          6           0        0.780241    2.285401    0.322818
      4          6           0        1.069224   -0.022604    1.200126
      5          6           0       -1.085784    1.248833   -0.895095
      6          6           0        0.089406    1.949422   -0.855914
      7          1           0        1.824811    2.586509    0.259074
      8          1           0        0.260232    2.438111    1.264734
      9          1           0        0.591058    2.175961   -1.798786
     10          1           0       -1.469721    0.942591   -1.870943
     11          1           0       -1.679997    1.346965    1.173491
     12          1           0       -0.829087   -0.852117    1.970679
     13          1           0        1.509858    0.481146    2.048362
     14          8           0        1.098915   -1.395801   -0.632089
     15          6           0       -0.102613   -1.597062   -0.006852
     16          6           0        1.866152   -0.493502    0.056869
     17          8           0       -0.918364   -2.416900   -0.337857
     18          8           0        2.988788   -0.181163   -0.239582
     19          6           0       -3.056376    0.017544    0.079752
     20          1           0       -3.221887   -0.665281    0.922061
     21          1           0       -3.898709    0.721343    0.047597
     22          1           0       -3.058616   -0.577810   -0.840681
 ---------------------------------------------------------------------
                    Distance matrix (angstroms):
                    1          2          3          4          5
     1  C    0.000000
     2  C    2.302037   0.000000
     3  C    2.966875   3.193431   0.000000
     4  C    3.095361   1.402858   2.485974   0.000000
     5  C    1.418342   2.916983   2.457607   3.263520   0.000000
     6  C    2.464353   3.280809   1.406962   3.012678   1.368734
     7  H    4.027127   3.907131   1.088970   2.874710   3.404857
     8  H    2.815927   3.124915   1.086710   2.591093   2.809093
     9  H    3.428223   4.140206   2.132831   3.749107   2.118496
    10  H    2.150529   3.629507   3.417316   4.099916   1.092461
    11  H    1.091677   2.498477   2.767143   3.071587   2.154476
    12  H    2.542967   1.083803   3.892224   2.210301   3.562660
    13  H    3.749849   2.236271   2.600996   1.080475   3.998830
    14  O    3.700239   2.297728   3.816366   2.289883   3.440374
    15  C    2.905475   1.476147   3.995201   2.304109   3.139223
    16  C    3.852976   2.315263   2.995369   1.471012   3.557513
    17  O    3.349805   2.407210   5.043152   3.471102   3.711623
    18  O    4.876429   3.483859   3.358260   2.404709   4.367692
    19  C    1.500656   3.130654   4.463394   4.275211   2.519847
    20  H    2.148979   3.046488   5.008258   4.347872   3.395413
    21  H    2.140112   4.105950   4.941113   5.153847   3.013214
    22  H    2.161149   3.484427   4.928339   4.638125   2.689173
                    6          7          8          9         10
     6  C    0.000000
     7  H    2.158867   0.000000
     8  H    2.182922   1.865820   0.000000
     9  H    1.091780   2.434231   3.092463   0.000000
    10  H    2.115389   4.253631   3.880952   2.402753   0.000000
    11  H    2.759026   3.828356   2.227872   3.831365   3.078361
    12  H    4.084345   4.668717   3.537029   5.039339   4.288292
    13  H    3.550822   2.780881   2.450582   4.303155   4.944874
    14  O    3.501389   4.144863   4.358923   3.791647   3.687917
    15  C    3.651757   4.613887   4.246318   4.234136   3.434190
    16  C    3.155611   3.086918   3.554191   3.492185   4.111797
    17  O    4.510959   5.737198   5.246763   5.050450   3.733702
    18  O    3.650435   3.043601   4.070453   3.706246   4.878777
    19  C    3.808355   5.518852   4.273549   4.635887   2.679252
    20  H    4.578485   6.040104   4.676925   5.478524   3.668270
    21  H    4.269610   6.023475   4.661062   5.067845   3.103180
    22  H    4.036976   5.922013   4.954120   4.671332   2.428507
                   11         12         13         14         15
    11  H    0.000000
    12  H    2.489081   0.000000
    13  H    3.419097   2.693379   0.000000
    14  O    4.301772   3.284385   3.297973   0.000000
    15  C    3.542407   2.234578   3.338102   1.369342   0.000000
    16  C    4.148414   3.324994   2.245647   1.370204   2.257862
    17  O    4.126856   2.790314   4.470903   2.280050   1.202974
    18  O    5.111704   4.462242   2.803673   2.280576   3.408181
    19  C    2.204097   3.048399   4.994081   4.446426   3.367368
    20  H    2.547504   2.619161   4.997226   4.649556   3.385405
    21  H    2.565486   3.949253   5.771772   5.469965   4.448405
    22  H    3.108413   3.598581   5.508077   4.242367   3.236062
                   16         17         18         19         20
    16  C    0.000000
    17  O    3.407168   0.000000
    18  O    1.202394   4.502667   0.000000
    19  C    4.949038   3.266804   6.056853   0.000000
    20  H    5.163933   3.156229   6.336898   1.096872   0.000000
    21  H    5.891482   4.345067   6.952309   1.098131   1.773556
    22  H    5.006600   2.866315   6.090135   1.096196   1.772447
                   21         22
    21  H    0.000000
    22  H    1.783982   0.000000
 Stoichiometry    C9H10O3
 Framework group  C1[X(C9H10O3)]
 Deg. of freedom    60
 Full point group                 C1      NOp   1
 Largest Abelian subgroup         C1      NOp   1
 Largest concise Abelian subgroup C1      NOp   1
                         Standard orientation:                         
 ---------------------------------------------------------------------
 Center     Atomic      Atomic             Coordinates (Angstroms)
 Number     Number       Type             X           Y           Z
 ---------------------------------------------------------------------
      1          6           0       -1.799314    0.738260    0.278956
      2          6           0       -0.161979   -0.657337    1.097992
      3          6           0        0.706520    2.324827    0.356097
      4          6           0        1.071927    0.005794    1.173793
      5          6           0       -1.144748    1.264576   -0.863947
      6          6           0        0.010526    1.997390   -0.822002
      7          1           0        1.741244    2.657151    0.287069
      8          1           0        0.194431    2.440100    1.307630
      9          1           0        0.493510    2.260600   -1.765098
     10          1           0       -1.532251    0.970807   -1.842217
     11          1           0       -1.715110    1.296338    1.213418
     12          1           0       -0.792153   -0.895853    1.946885
     13          1           0        1.508878    0.501597    2.028591
     14          8           0        1.117174   -1.321943   -0.691316
     15          6           0       -0.070109   -1.572362   -0.056694
     16          6           0        1.867251   -0.414721    0.009963
     17          8           0       -0.866454   -2.407098   -0.397571
     18          8           0        2.976721   -0.063395   -0.292357
     19          6           0       -3.067089   -0.045504    0.104518
     20          1           0       -3.202447   -0.752664    0.932004
     21          1           0       -3.929364    0.634457    0.099545
     22          1           0       -3.064182   -0.618577   -0.829947
 ---------------------------------------------------------------------
 Rotational constants (GHZ):           1.2623247           0.9513014           0.6576210
 Standard basis: STO-3G (5D, 7F)
 There are    70 symmetry adapted cartesian basis functions of A   symmetry.
 There are    70 symmetry adapted basis functions of A   symmetry.
    70 basis functions,   210 primitive gaussians,    70 cartesian basis functions
    44 alpha electrons       44 beta electrons
       nuclear repulsion energy       706.6556879541 Hartrees.
 NAtoms=   22 NActive=   22 NUniq=   22 SFac= 1.00D+00 NAtFMM=   60 NAOKFM=F Big=F
 Integral buffers will be    131072 words long.
 Raffenetti 1 integral format.
 Two-electron integral symmetry is turned on.
 External calculation of energy, first and second derivatives.
 Running external command "~/scripts/MiMe -H 'hf 6-31g(d)' -EF 'wb97xd def2svp' -c 12 -m 48GB R"
         input file       "/local/jobs/1157666/Gau-2035184.EIn"
         output file      "/local/jobs/1157666/Gau-2035184.EOu"
         message file     "/local/jobs/1157666/Gau-2035184.EMs"
         fchk file        "/local/jobs/1157666/Gau-2035184.EFC"
         mat. el file     "/local/jobs/1157666/Gau-2035184.EUF"
 Read checkpoint file Gau-2035184_H.chk type G16
 Write formatted file Gau-2035184_H.fchk

deriv: 2

spelevel: wb97xd def2svp
gradlevel: wb97xd def2svp
hesslevel: hf 6-31g(d)

runspe: False
runforce: True
runfreq: True

Running Gaussian ...

Parsing files ...
SPE file: Gau-2035184_F.out
FORCE file: Gau-2035184_F.out
HESS file: Gau-2035184_H.out

 ExternalExternalExternalExternalExternalExternalExternalExternalExternalExternal
 Output from external command:
 "~/scripts/MiMe -H 'hf 6-31g(d)' -EF 'wb97xd def2svp' -c 12 -m 48GB R /local/jobs/1157666/Gau-2035184.EIn /local/jobs/1157666/Gau-2035184.EOu /local/jobs/1157666/Gau-2035184.EMs /local/jobs/1157666/Gau-2035184.EFC /local/jobs/1157666/Gau-2035184.EUF"
  
 --------------------------------------------------
 Force calculation at wb97xd def2svp
 Hessian calculation at hf 6-31g(d)
 ExternalExternalExternalExternalExternalExternalExternalExternalExternalExternal

 Recovered energy= -573.963296412     dipole=     -2.895300000000      3.481200000000      2.765100000000
 Energy=    -573.963296     NIter=   0.
 Dipole moment=      -2.895300       3.481200       2.765100
 ***** Axes restored to original set *****
 -------------------------------------------------------------------
 Center     Atomic                   Forces (Hartrees/Bohr)
 Number     Number              X              Y              Z
 -------------------------------------------------------------------
      1        6           0.005287446    0.013988680   -0.032773625
      2        6           0.027455234    0.014719107    0.007206650
      3        6          -0.013109174   -0.015649612   -0.025190540
      4        6          -0.031611263   -0.004352336   -0.002205685
      5        6          -0.043222320   -0.021621420    0.024522618
      6        6           0.043501799    0.027310201    0.024736841
      7        1           0.000482628    0.005722264    0.000623944
      8        1          -0.000322773   -0.002803830    0.003363830
      9        1           0.002947903   -0.005081598   -0.001748665
     10        1           0.000720411   -0.003298599   -0.000985548
     11        1           0.005471067   -0.003303794    0.003531867
     12        1          -0.005279808    0.000712423    0.000692756
     13        1           0.003109373    0.000927472    0.003565600
     14        8           0.002025338   -0.006358161   -0.016807287
     15        6          -0.021447511   -0.009912801    0.004458827
     16        6           0.020144548    0.015027223    0.008264578
     17        8           0.018845533    0.010537351   -0.002518961
     18        8          -0.017008428   -0.012195283   -0.003834310
     19        6           0.005878582   -0.003818663    0.004931460
     20        1          -0.002096312   -0.001582830    0.000934814
     21        1          -0.002077189    0.001775189    0.000312515
     22        1           0.000304918   -0.000740985   -0.001081676
 -------------------------------------------------------------------
 Cartesian Forces:  Max     0.043501799 RMS     0.014254538
 FormGI is forming the generalized inverse of G from B-inverse, IUseBI=4.

 GradGradGradGradGradGradGradGradGradGradGradGradGradGradGradGradGradGrad
 Berny optimization.
 Internal  Forces:  Max     0.033679295 RMS     0.007177515
 Search for a saddle point.
 Step number   3 out of a maximum of   50
 All quantities printed in internal units (Hartrees-Bohrs-Radians)
 Swapping is turned off.
 Second derivative matrix not updated -- analytic derivatives used.
 ITU=  0  0  0
     Eigenvalues ---   -0.10507   0.00676   0.01221   0.01774   0.01944
     Eigenvalues ---    0.02249   0.02450   0.02913   0.03087   0.03154
     Eigenvalues ---    0.03347   0.04142   0.04503   0.05600   0.05745
     Eigenvalues ---    0.05852   0.06091   0.06293   0.06424   0.07214
     Eigenvalues ---    0.08272   0.10379   0.11894   0.12540   0.13503
     Eigenvalues ---    0.14899   0.15610   0.16019   0.16924   0.17656
     Eigenvalues ---    0.18381   0.19196   0.20316   0.20701   0.22307
     Eigenvalues ---    0.25165   0.27584   0.30219   0.30607   0.34375
     Eigenvalues ---    0.34883   0.35601   0.35876   0.36316   0.36548
     Eigenvalues ---    0.36671   0.36908   0.37340   0.37610   0.38213
     Eigenvalues ---    0.38690   0.39602   0.40663   0.45102   0.48074
     Eigenvalues ---    0.50571   0.64334   0.71615   0.92668   0.93908
 Eigenvectors required to have negative eigenvalues:
                          R1        D39       R5        R13       R8
   1                   -0.62870  -0.27227   0.22109  -0.19465   0.19267
                          D10       D40       R2        D12       D28
   1                    0.18693  -0.18467   0.17488   0.16956  -0.13696
 RFO step:  Lambda0=1.055751459D-03 Lambda=-1.58886935D-02.
 Linear search not attempted -- option 19 set.
 Maximum step size (   0.100) exceeded in Quadratic search.
    -- Step size scaled by   0.509
 Iteration  1 RMS(Cart)=  0.03465402 RMS(Int)=  0.00028105
 Iteration  2 RMS(Cart)=  0.00046562 RMS(Int)=  0.00009310
 Iteration  3 RMS(Cart)=  0.00000014 RMS(Int)=  0.00009310
 Variable       Old X    -DE/DX   Delta X   Delta X   Delta X     New X
                                 (Linear)    (Quad)   (Total)
    R1        4.35022  -0.00866   0.00000  -0.05646  -0.05646   4.29376
    R2        2.68028  -0.03001   0.00000  -0.02908  -0.02908   2.65120
    R3        2.06297   0.00168   0.00000   0.00189   0.00189   2.06486
    R4        2.83583  -0.00013   0.00000  -0.00128  -0.00128   2.83455
    R5        2.65102  -0.02063   0.00000  -0.01496  -0.01492   2.63610
    R6        2.04809   0.00356   0.00000   0.00464   0.00464   2.05273
    R7        2.78951   0.00644   0.00000   0.00605   0.00606   2.79558
    R8        2.65877  -0.02716   0.00000  -0.02495  -0.02495   2.63383
    R9        2.05786   0.00201   0.00000   0.00320   0.00320   2.06106
   R10        2.05358   0.00267   0.00000   0.00328   0.00328   2.05687
   R11        2.04180   0.00450   0.00000   0.00616   0.00616   2.04797
   R12        2.77981   0.00715   0.00000   0.01025   0.01026   2.79007
   R13        2.58653   0.03368   0.00000   0.02658   0.02658   2.61311
   R14        2.06445   0.00155   0.00000   0.00198   0.00198   2.06643
   R15        2.06316   0.00181   0.00000   0.00167   0.00167   2.06484
   R16        2.58768   0.00139   0.00000   0.00799   0.00796   2.59564
   R17        2.58931   0.00386   0.00000   0.00867   0.00863   2.59795
   R18        2.27329  -0.01927   0.00000  -0.01063  -0.01063   2.26266
   R19        2.27220  -0.01810   0.00000  -0.01106  -0.01106   2.26114
   R20        2.07279   0.00202   0.00000   0.00186   0.00186   2.07465
   R21        2.07517   0.00272   0.00000   0.00396   0.00396   2.07913
   R22        2.07151   0.00131   0.00000   0.00165   0.00165   2.07317
    A1        1.75525  -0.01138   0.00000  -0.00395  -0.00386   1.75140
    A2        1.52129  -0.00280   0.00000  -0.01939  -0.01944   1.50185
    A3        1.90245   0.00651   0.00000  -0.01052  -0.01048   1.89197
    A4        2.05382  -0.00092   0.00000   0.00151   0.00131   2.05514
    A5        2.08291   0.00580   0.00000   0.01574   0.01563   2.09854
    A6        2.01713  -0.00122   0.00000  -0.00058  -0.00088   2.01625
    A7        1.93719  -0.00355   0.00000   0.00005   0.00004   1.93723
    A8        1.56933   0.00218   0.00000   0.00325   0.00322   1.57255
    A9        1.71303  -0.00339   0.00000  -0.01634  -0.01634   1.69668
   A10        2.18111   0.00006   0.00000   0.00470   0.00469   2.18580
   A11        1.85515   0.00275   0.00000   0.00472   0.00472   1.85987
   A12        2.10884  -0.00055   0.00000  -0.00356  -0.00362   2.10522
   A13        2.08057   0.00126   0.00000   0.00307   0.00272   2.08330
   A14        2.12323  -0.00002   0.00000  -0.00017  -0.00051   2.12271
   A15        2.06109  -0.00147   0.00000  -0.01184  -0.01220   2.04889
   A16        2.23364  -0.00018   0.00000  -0.00371  -0.00402   2.22962
   A17        1.87305   0.00103   0.00000   0.00204   0.00183   1.87488
   A18        2.13940  -0.00105   0.00000  -0.00909  -0.00935   2.13005
   A19        2.16942  -0.00789   0.00000  -0.01074  -0.01087   2.15855
   A20        2.04664   0.00347   0.00000   0.00766   0.00752   2.05416
   A21        2.06100   0.00395   0.00000   0.00002  -0.00011   2.06089
   A22        2.17462  -0.00650   0.00000  -0.01215  -0.01226   2.16236
   A23        2.03573   0.00349   0.00000   0.01204   0.01191   2.04764
   A24        2.06689   0.00260   0.00000  -0.00267  -0.00278   2.06411
   A25        1.93748  -0.00766   0.00000  -0.00551  -0.00562   1.93186
   A26        1.87877   0.00194   0.00000  -0.00073  -0.00077   1.87799
   A27        2.22759   0.01045   0.00000   0.02051   0.02051   2.24811
   A28        2.17674  -0.01237   0.00000  -0.01968  -0.01967   2.15707
   A29        1.87364   0.00207   0.00000  -0.00083  -0.00087   1.87276
   A30        2.23227   0.01164   0.00000   0.02072   0.02072   2.25300
   A31        2.17717  -0.01369   0.00000  -0.01977  -0.01976   2.15741
   A32        1.93187   0.00289   0.00000   0.00900   0.00900   1.94087
[...]
 .00151100,0.00004533,-0.00017898,0.00004680,0.00013378,-0.00027116,0.0
 0013888,0.00002428,-0.00013236,0.00006450,-0.00005218,-0.00006531,0.00
 007914,0.00074562,-0.00018500,0.00099643,-0.15642315,-0.03019480,0.245
 43766,-0.00045282,0.00089266,-0.00282590,0.00229520,-0.00708084,-0.022
 77937,-0.00268944,0.00441514,-0.00706762,-0.13432765,-0.06311821,-0.10
 476394,-0.00320173,-0.00156023,0.00174376,0.00290092,0.00230901,0.0026
 3393,0.00049419,-0.00050946,0.00033566,-0.00024330,-0.00047481,-0.0002
 1364,0.00022525,-0.00026147,0.00006443,0.00001810,-0.00010775,0.000011
 25,0.00011563,-0.00021979,0.00011980,0.00006141,0.00139757,0.00035155,
 0.12558123,0.00186671,-0.00605943,0.00879363,-0.01609463,-0.00384891,-
 0.01641754,0.01016510,-0.01308689,0.01952195,-0.04539848,-0.06703124,-
 0.09399124,0.01037233,0.00494853,-0.00459741,-0.00929718,-0.00509684,-
 0.00734270,-0.00043866,0.00070418,0.00005453,0.00000783,0.00175451,0.0
 0076766,-0.00050990,0.00069294,-0.00011232,-0.00019098,0.00043577,-0.0
 0005822,-0.00066565,0.00102505,-0.00042926,0.00285032,-0.00286519,0.00
 198318,0.05817878,0.09072491,-0.00032902,0.00231096,-0.00272569,0.0068
 8406,0.00351761,0.01165717,-0.00289524,0.00421716,-0.00753218,-0.10616
 452,-0.10215193,-0.25611864,-0.00366187,-0.00162437,0.00124544,0.00325
 432,0.00157213,0.00331458,0.00041059,0.00020486,-0.00027027,-0.0001753
 9,-0.00107213,0.00110644,0.00008903,0.00000745,0.00010361,0.00012829,-
 0.00012262,0.00006307,0.00014259,-0.00030321,0.00011418,-0.00158000,0.
 00060525,-0.00037253,0.11442205,0.10033222,0.26143902,0.00333683,-0.00
 375406,0.00391507,-0.02278007,0.00050937,0.03024310,-0.00144078,0.0022
 7698,-0.00481362,0.00496007,-0.01100949,0.00314194,0.00075336,-0.00048
 578,0.00196686,0.00032718,0.00154303,-0.00133240,0.00025041,0.00085481
 ,0.00027443,0.00081336,-0.00111604,0.00014943,-0.00001163,0.00029296,-
 0.00038688,0.00030375,-0.00005604,0.00030432,-0.00039681,0.00109396,0.
 00011278,0.00313490,0.00433167,0.00410036,0.00115474,-0.00020674,0.000
 25214,0.40536367,-0.00106485,0.00020584,0.00083625,0.01120923,0.015901
 86,-0.01567759,-0.00161687,0.00532578,-0.00385933,-0.02279840,-0.01697
 450,-0.03323270,0.00068095,-0.00071388,0.00074721,0.00054308,0.0019253
 5,0.00024898,0.00028628,0.00010217,0.00006330,0.00034226,-0.00046055,-
 0.00001147,0.00028523,0.00008756,-0.00022408,-0.00005656,-0.00013199,0
 .00014303,-0.00008298,0.00059477,0.00001222,-0.00136241,-0.00062599,-0
 .00260089,0.00557385,0.00028646,-0.00448385,0.12906675,0.24066624,-0.0
 0041652,0.00089993,-0.00183547,0.03469824,-0.01194428,-0.03354612,0.00
 054245,-0.00019915,-0.00089493,-0.00767960,-0.03236970,-0.03352978,-0.
 00159798,0.00046047,0.00075856,-0.00002051,0.00068065,0.00082830,-0.00
 002259,0.00026537,-0.00005686,-0.00036609,-0.00015875,0.00051036,-0.00
 037858,-0.00065184,0.00051230,0.00079118,-0.00021146,0.00066335,0.0003
 5426,0.00001749,0.00061251,-0.00048119,-0.00581694,-0.00318110,0.00517
 507,-0.00267233,-0.00323804,-0.07546345,0.15534205,0.38320079,-0.00028
 616,0.00768770,-0.00179745,-0.09204146,0.00480754,0.03391423,-0.002658
 08,-0.00044992,0.00013382,-0.00790949,-0.02188680,-0.02486632,-0.00286
 808,0.00069709,0.00035725,0.00257989,0.00042814,0.00160644,0.00008437,
 -0.00088146,-0.00015902,-0.00021698,0.00040077,-0.00004404,-0.00022354
 ,-0.00109609,0.00061313,0.00009323,0.00034728,-0.00079548,-0.00073140,
 -0.00088147,-0.00079097,0.00117250,0.01455657,0.01480059,-0.00706585,-
 0.00503589,0.00580615,-0.12321723,0.00634539,0.05625513,0.70497176,0.0
 1671596,-0.01327818,0.00432892,-0.01892976,-0.13718646,-0.07285709,-0.
 00386316,0.00095743,-0.00501220,-0.01144159,-0.02274928,-0.01614089,0.
 00112369,-0.00166868,0.00393920,0.00046565,0.00262277,-0.00032283,0.00
 018718,-0.00051648,0.00031979,0.00024052,-0.00041500,0.00015963,0.0002
 9266,-0.00035699,0.00008164,0.00009020,0.00017929,-0.00085830,-0.00173
 589,0.00120137,-0.00031807,0.00306062,0.00808216,0.01259011,-0.0029637
 5,0.00484024,-0.00046989,0.01368545,-0.09834980,-0.04104653,0.37566609
 ,0.73552010,0.00574119,-0.00012426,-0.00011486,0.02772805,-0.06833259,
 -0.19404959,-0.01010661,0.01584127,-0.02122052,-0.02719130,-0.03997071
 ,0.00128820,-0.00455759,-0.00222031,0.00885727,0.01166012,0.01272439,0
 .00481789,0.00059202,-0.00051264,0.00026811,0.00175561,-0.00320489,0.0
 0050959,0.00097171,-0.00044541,-0.00021416,-0.00133105,0.00031640,-0.0
 0173738,-0.00107514,0.00160942,-0.00045417,-0.00432651,-0.01193914,-0.
 00974043,0.00298734,-0.00153376,-0.00121802,0.06664431,-0.03559382,-0.
 18644660,0.09901569,0.28528828,0.55085134,-0.00330151,-0.00089843,0.00
 085849,-0.02819777,0.00290273,0.02624712,-0.00234871,0.01403461,-0.002
 07840,-0.13440991,0.00787518,0.04062350,0.00051308,-0.00141740,0.00025
 958,0.00089842,0.00227011,-0.00083359,0.00020065,-0.00515748,-0.000492
 46,-0.00128114,-0.00101688,0.00032146,0.00063078,-0.00037170,0.0013125
 2,-0.00051926,0.00047110,-0.00029130,0.00037606,-0.00013807,0.00013681
 ,-0.00233211,-0.00549248,-0.00293135,0.01544050,-0.00579822,-0.0184512
 9,-0.10491125,-0.00827911,0.00212295,-0.08531781,-0.03970786,0.0053623
 1,1.11104432,-0.00041024,-0.00064096,-0.00052377,-0.01246818,0.0005489
 6,0.00947406,0.00957863,-0.01849946,0.00401887,0.03610381,-0.09320232,
 -0.06276458,0.00135329,0.00207867,-0.00190665,-0.00059522,-0.00447099,
 0.00008992,-0.00057360,-0.00105472,-0.00029066,-0.00102275,0.00030252,
 0.00056376,0.00014357,-0.00025984,0.00052616,-0.00064880,0.00010497,-0
 .00048804,0.00003960,-0.00046428,-0.00023117,-0.00777309,-0.00004234,-
 0.00573812,0.00454338,-0.00435999,-0.00448334,-0.01811419,-0.13229031,
 -0.07523392,-0.06677630,-0.01702765,0.04584053,0.15599859,0.38571174,-
 0.00279633,0.00902507,-0.01180156,0.03143022,0.00349350,-0.00281290,-0
 .00293461,0.00020907,0.00144008,0.05054021,-0.05418615,-0.18915300,-0.
 01039214,-0.00176933,0.00071207,0.00139375,0.00241537,0.00757576,0.000
 09669,0.00064224,0.00033774,-0.00047564,0.00176072,-0.00054758,0.00046
 708,0.00124416,-0.00150821,-0.00048221,-0.00049878,-0.00044734,0.00077
 438,-0.00226674,-0.00010145,-0.00028395,-0.00462511,-0.00112053,0.0137
 5772,-0.00381688,-0.01030520,-0.01250990,-0.08152143,-0.19423867,-0.04
 459450,0.01753045,0.05793653,-0.26905929,0.07753180,0.53988564,-0.0053
 1811,-0.00147457,0.00218317,0.00358446,-0.02256338,-0.01169087,0.00314
 087,-0.00382734,0.00563113,0.00508184,0.00578251,-0.00263100,0.0046327
 2,0.00194818,-0.00343467,-0.00502643,-0.00350530,-0.00323026,-0.000062
 22,0.00036168,0.00003728,-0.00016119,0.00077157,-0.00029718,-0.0001301
 0,0.00063513,-0.00023314,-0.00000527,-0.00005216,0.00064338,0.00081711
 ,-0.00008028,0.00032431,-0.00026852,-0.00016394,-0.00241522,0.00092325
 ,-0.00051405,-0.00092694,-0.08030628,-0.06786148,-0.00857627,-0.407587
 61,-0.33047259,-0.14975640,0.01506353,0.01756683,0.02489443,0.47545029
 ,-0.00548082,-0.00113764,-0.00000394,-0.03243077,-0.02371209,-0.022811
 01,0.00262013,-0.00357753,0.00581510,0.00375364,0.00509125,-0.01025596
 ,0.00459669,0.00126008,-0.00421322,-0.00422828,-0.00359952,-0.00272191
 ,-0.00008708,0.00020709,-0.00004272,-0.00017785,0.00087405,-0.00024088
 ,-0.00029603,0.00039426,-0.00005555,-0.00018062,0.00023113,0.00030829,
 0.00072645,-0.00066257,0.00023717,0.00023633,-0.00040733,-0.00145914,-
 0.00112263,-0.00284777,0.00101099,-0.05255649,-0.00990555,0.00561885,-
 0.32794544,-0.46543051,-0.17967752,0.00864321,0.01050299,0.00586912,0.
 40808950,0.49775145,-0.00224659,-0.00079582,0.00161062,-0.03249308,-0.
 03826834,0.00130892,0.00295434,-0.00467706,0.00676890,0.00628004,0.004
 06120,-0.00733849,0.00261634,0.00192526,-0.00357295,-0.00466331,-0.004
 16103,-0.00232352,-0.00006891,0.00003554,-0.00000663,-0.00047647,0.001
 09436,-0.00025560,-0.00031297,0.00025267,0.00000698,0.00045754,-0.0002
 1929,0.00081148,0.00030632,-0.00017728,0.00013588,0.00059240,0.0022570
 6,0.00154021,-0.00178309,-0.00071626,0.00079921,0.01547897,0.02264846,
 0.03488361,-0.14594827,-0.18124895,-0.19961778,0.00243308,-0.00815112,
 -0.00929173,0.15335809,0.20315530,0.17229375,0.00076214,0.00258278,-0.
 00418565,0.00274004,0.00325289,0.00983656,-0.00340294,-0.00292714,-0.0
 0132332,-0.03572804,-0.00638470,0.01960685,-0.00489835,-0.00130456,0.0
 0202189,0.00301976,0.00275846,0.00418226,0.00009390,0.00177474,0.00029
 160,0.00033140,0.00075516,-0.00020009,-0.00018665,-0.00011622,-0.00061
 511,0.00022381,-0.00045774,0.00007639,0.00031243,-0.00045961,0.0001713
 5,-0.00214354,0.00038316,-0.00020468,-0.00077400,0.00037010,0.00264419
 ,-0.08668818,-0.05132461,-0.00548537,0.02588504,0.00275776,-0.01911799
 ,-0.78132437,-0.11691692,0.21995990,-0.01173959,-0.00648938,0.00212309
 ,0.89386072,0.00009890,0.00090637,-0.00079876,0.00268030,0.00116649,-0
 .00259671,-0.00015845,0.00054343,-0.00230331,0.00662362,0.01882339,-0.
 00307417,-0.00107750,-0.00067391,0.00059934,0.00091831,0.00042458,0.00
 034155,0.00037584,0.00206027,0.00006502,0.00090645,-0.00032241,0.00009
 918,-0.00010000,0.00030738,-0.00054670,0.00022111,-0.00005572,0.000158
 66,0.00002885,-0.00007869,0.00012388,0.00157570,0.00050560,0.00143436,
 -0.00004963,-0.00025959,0.00104577,-0.06640706,-0.00535704,0.00718278,
 0.01326327,0.00205461,-0.01835352,-0.12388352,-0.12737630,0.02884434,-
 0.00670558,-0.00321910,0.00306341,0.17163668,0.11060623,0.00034343,-0.
 00267538,0.00411293,-0.00240502,-0.00382210,-0.00619263,0.00186597,-0.
 00072851,0.00191393,0.04358549,0.00747622,0.00565244,0.00432517,0.0012
 9282,-0.00104189,-0.00221122,-0.00094856,-0.00348444,-0.00008505,-0.00
 021077,-0.00050500,-0.00004654,-0.00012364,0.00010372,-0.00005604,-0.0
 0052407,0.00082709,0.00008560,0.00026092,0.00008987,-0.00034405,0.0007
 0741,-0.00009761,0.00146145,0.00154462,0.00085407,-0.00224129,0.000534
 33,0.00183435,-0.03198070,-0.00289437,0.03487650,0.00669411,-0.0057219
 8,-0.00987866,0.21466261,0.02169518,-0.18675964,-0.00407781,-0.0004067
 7,0.00223419,-0.22987175,-0.01528279,0.15545745,-0.20462602,-0.0861073
 8,-0.00658888,-0.00502471,0.00032917,-0.00018642,-0.00224897,0.0012383
 4,-0.00150388,-0.00068491,-0.00021552,-0.00023474,-0.01571804,-0.01124
 261,0.00365402,0.00594731,-0.00232088,0.00096745,0.00019907,-0.0004538
 4,0.00000458,0.00008840,-0.00030269,-0.00034763,0.00020609,0.00025517,
 -0.00012570,-0.00067005,0.00259730,-0.00147948,0.00135952,-0.00107653,
 0.00107850,0.00031999,-0.00088376,0.00028810,-0.00028524,0.00011785,0.
 00003880,-0.00132807,-0.00051881,0.00028813,-0.00070128,-0.00121129,-0
 .00183976,0.00008491,0.00048873,0.00062841,-0.00068695,0.00038697,0.00
 004807,-0.00031137,-0.00017367,0.00013280,0.56112129,-0.09003792,-0.14
 330319,-0.01128859,0.00207277,0.00100198,-0.00145442,0.00332543,-0.001
 99764,0.00049560,0.00077683,0.00140664,0.00038134,-0.01201383,-0.00139
 800,-0.00249866,-0.00402802,0.00569582,0.00173743,-0.00036304,0.001042
 46,-0.00025482,-0.00022524,0.00003729,0.00050429,-0.00039565,-0.000409
 44,-0.00007427,0.00321796,-0.00309812,-0.00071254,-0.01519412,-0.00464
 799,0.00054876,0.00078001,-0.00000930,0.00025188,0.00039666,-0.0002848
 6,-0.00015761,0.00018080,-0.00056172,-0.00007569,0.00213250,0.00351799
 ,0.00254754,-0.00007152,0.00042196,0.00011147,-0.00091820,-0.00159284,
 -0.00105359,0.00028150,-0.00010461,-0.00026647,0.00217025,0.59353472,-
 0.01177386,-0.01305240,-0.10636742,-0.00059233,-0.00068751,0.00048728,
 -0.00071511,-0.00064633,-0.00078707,0.00020279,-0.00035204,-0.00028942
 ,0.02955614,0.01614015,0.00898884,0.00258017,-0.00126270,-0.00597616,-
 0.00014874,0.00015113,0.00051000,-0.00013841,0.00042058,0.00063888,0.0
 0140361,0.00086415,0.00012549,-0.00031115,0.00208955,0.00106603,-0.026
 73838,-0.01514517,0.00162003,-0.00062308,-0.00003352,-0.00051528,0.000
 03702,-0.00008312,0.00003129,-0.00055676,-0.00048040,-0.00014100,0.001
 04411,0.00140923,0.00115100,0.00024561,0.00055821,0.00045604,-0.001393
 78,-0.00038110,-0.00178773,-0.00005507,-0.00013264,-0.00009831,-0.0082
 6653,0.00933846,0.62565956,-0.00420004,-0.01860806,0.02985117,0.000218
 38,0.00016097,0.00117742,-0.00009947,0.00033581,-0.00045230,-0.0002713
 5,-0.00065966,-0.00008120,-0.00466761,-0.00393574,-0.00230828,-0.00061
 508,0.00100633,0.00154253,-0.00000823,-0.00004426,-0.00005733,0.000047
 90,-0.00011227,0.00003050,-0.00044813,-0.00018022,-0.00001768,0.000295
 15,-0.00031530,-0.00008752,0.00105520,0.00100965,-0.00058043,-0.000702
 93,0.00007589,-0.00065644,-0.00003481,0.00005995,0.00001800,0.00040275
 ,0.00009384,-0.00013992,-0.00110076,-0.00067524,-0.00022886,-0.0002156
 6,-0.00002611,-0.00003343,0.00072763,0.00037327,-0.00007521,0.00013186
 ,0.00004436,-0.00004454,-0.06183141,-0.01631900,0.01825756,0.06741935,
 0.00000726,-0.01008042,0.01560362,0.00158567,0.00064677,0.00130109,-0.
 00071277,0.00091653,-0.00110086,-0.00054085,-0.00176545,0.00012226,-0.
 00416286,-0.00240187,-0.00116592,0.00101411,0.00145747,0.00152278,0.00
 005981,-0.00016011,-0.00003291,0.00006071,-0.00023420,0.00003402,-0.00
 019519,-0.00022175,0.00000491,0.00016012,-0.00009764,0.00015112,0.0003
 4404,0.00038526,-0.00022863,-0.00024948,0.00063870,-0.00040721,-0.0001
 0113,0.00020088,-0.00001567,-0.00016565,-0.00006483,-0.00007627,-0.000
 06802,-0.00012571,-0.00074699,0.00017411,0.00009506,-0.00005006,0.0003
 2044,0.00001364,0.00022531,-0.00015663,-0.00001387,0.00003279,-0.01856
 731,-0.14835905,0.11913285,0.02070899,0.15736743,0.00072758,-0.0037081
 3,0.00446468,-0.00094427,-0.00039441,-0.00039946,0.00038915,-0.0002739
 6,0.00032501,0.00014846,0.00086075,-0.00008333,-0.00065643,0.00055062,
 0.00003913,-0.00040508,-0.00007774,0.00019750,0.00000775,0.00006687,0.
 00000161,-0.00003215,0.00002313,-0.00003435,-0.00000118,-0.00003948,0.
 00000184,-0.00028927,0.00013720,0.00044463,0.00072530,0.00035479,0.000
 66813,-0.00009500,-0.00039245,0.00043152,0.00000748,-0.00010565,0.0000
 0872,-0.00055541,-0.00040372,0.00015534,0.00124614,0.00093459,0.000019
 78,0.00007773,0.00022281,0.00017355,-0.00122737,-0.00040804,0.00038026
 ,-0.00011040,-0.00008940,0.00002220,0.02145527,0.11978048,-0.22890817,
 -0.02176784,-0.13558532,0.24469262,-0.02635758,0.01696458,0.00102696,0
 .00021847,-0.00043827,0.00109741,-0.00113513,0.00074326,-0.00010859,-0
 .00033640,-0.00068072,0.00001716,-0.00003604,-0.00118484,-0.00119717,0
 .00061583,-0.00144268,-0.00034550,0.00008717,-0.00037038,0.00007056,0.
 00006676,-0.00002780,-0.00008451,-0.00007423,0.00005160,0.00003252,-0.
 00062774,0.00104392,0.00007745,0.00042711,-0.00071444,-0.00043367,0.00
 009430,-0.00005796,-0.00004777,-0.00015092,0.00010250,0.00008418,-0.00
 032880,0.00008875,0.00013626,-0.00021965,-0.00162113,-0.00121587,0.000
 31517,-0.00007929,-0.00007690,0.00075950,0.00061185,0.00039872,-0.0003
 4286,0.00002778,0.00016029,-0.21344614,0.12165931,-0.00920495,0.004460
 17,-0.00201744,-0.00112696,0.23476086,-0.01682749,0.01552915,-0.000402
 72,0.00022012,0.00057781,0.00113669,-0.00143828,0.00096155,-0.00120522
 ,-0.00048048,-0.00146439,0.00015855,-0.00207855,-0.00102198,0.00116926
 ,0.00203364,0.00016370,0.00020881,0.00011405,-0.00036916,0.00004852,0.
 00007232,-0.00020984,-0.00005202,0.00005860,0.00005839,0.00003246,-0.0
 0002300,0.00025917,0.00012525,0.00132527,0.00010300,-0.00009485,-0.000
 13963,0.00005402,-0.00026673,-0.00013174,0.00018071,0.00002405,0.00033
 721,0.00048410,-0.00002052,-0.00187183,-0.00230869,-0.00146630,-0.0002
 3878,-0.00020488,-0.00009647,0.00215530,0.00063198,0.00063524,0.000054
 44,0.00008420,0.00007031,0.11685636,-0.15148817,0.00447070,0.01688496,
 -0.01335459,0.00042857,-0.13234855,0.16340999,0.00004531,0.00139707,0.
 00012481,-0.00154271,-0.00013362,-0.00061187,0.00023374,-0.00055989,0.
 00082819,0.00044615,0.00127044,-0.00014417,0.00115516,0.00113946,-0.00
 017867,-0.00114047,-0.00017335,-0.00063881,0.00001475,-0.00010812,0.00
 001119,-0.00001851,0.00018047,-0.00008969,-0.00000049,-0.00002063,0.00
 000003,0.00021426,-0.00018038,-0.00007586,0.00029785,-0.00015768,-0.00
 008815,0.00020836,-0.00031514,0.00039105,0.00001293,-0.00014060,0.0000
 5380,0.00016373,0.00020011,0.00007848,-0.00039056,-0.00062191,-0.00031
 521,-0.00015515,-0.00021660,-0.00001808,0.00044378,0.00017920,0.000537
 33,0.00006859,0.00006382,0.00000980,-0.00963542,0.00480009,-0.06002870
 ,-0.02480650,0.01818155,-0.00033721,0.00952564,-0.00729624,0.05660620,
 0.00014775,-0.01986628,-0.03057293,0.00074986,0.00058600,0.00042822,-0
 .00024255,0.00007286,-0.00074303,-0.00018666,-0.00058160,0.00038407,0.
 00081706,0.00074188,-0.00085467,0.00030265,0.00078662,0.00010954,-0.00
 005638,0.00001884,0.00013525,-0.00002586,0.00001905,0.00027659,0.00004
 118,-0.00004380,0.00005172,0.00012837,-0.00019816,0.00081672,-0.005159
 35,-0.00373154,0.00030373,-0.00000041,-0.00003812,0.00005095,0.0000153
 3,0.00005893,0.00000985,0.00060807,0.00045047,0.00026442,-0.00264142,-
 0.00166352,-0.00171127,-0.00040791,-0.00041173,-0.00030388,0.00111108,
 0.00095737,0.00102090,0.00017881,0.00015423,0.00004709,-0.06176342,0.0
 0257255,0.00719116,-0.00056290,0.00250206,0.00242648,0.00125017,0.0154
 6606,0.02485957,0.06569653,0.00146368,-0.01143782,-0.01687724,-0.00032
 765,0.00018981,0.00026229,-0.00000702,-0.00014207,-0.00005862,0.000301
 66,0.00003994,-0.00009419,0.00070685,0.00098892,-0.00086205,-0.0000731
 9,0.00029440,0.00003691,-0.00000333,0.00000952,0.00009157,0.00003877,-
 0.00001470,0.00013008,0.00001841,-0.00002834,0.00003365,-0.00035678,-0
 .00013450,0.00094247,-0.00304254,-0.00092252,0.00057128,-0.00010585,-0
 .00005484,-0.00001126,-0.00000560,-0.00005348,0.00003619,-0.00030143,-
 0.00014399,0.00000979,0.00056087,0.00043748,-0.00004600,0.00010183,0.0
 0012719,0.00015364,0.00050772,-0.00086549,0.00011492,-0.00007015,-0.00
 002130,-0.00000919,-0.00136584,-0.14940396,-0.12231807,0.00012181,0.01
 515775,0.01811850,-0.00031005,-0.01207610,-0.01748806,0.00214784,0.158
 05411,-0.00137957,-0.00022566,-0.00086522,0.00012649,0.00004094,-0.000
 12759,0.00001350,0.00009774,-0.00007465,-0.00007337,0.00000881,0.00027
 485,0.00102337,0.00138525,0.00076553,-0.00040085,0.00035399,0.00020876
 ,0.00003272,-0.00012406,0.00004641,0.00004165,0.00008556,-0.00002446,-
 0.00005305,-0.00005927,-0.00000061,0.00015704,-0.00024670,0.00052531,0
 .00028772,-0.00029002,0.00115972,0.00015794,-0.00007450,0.00010667,0.0
 0001485,0.00002978,0.00000970,0.00085169,0.00074207,0.00002846,-0.0021
 0018,-0.00196317,-0.00069233,-0.00037094,-0.00049331,-0.00041153,0.002
 37534,0.00048375,0.00088309,0.00018677,0.00015589,0.00006965,0.0016243
 0,-0.12266067,-0.23583520,0.00046029,-0.01690245,-0.02226400,0.0012147
 4,0.00239264,0.00388553,-0.00419047,0.13726338,0.25233191\\0.00000693,
 -0.00000426,0.00000553,-0.00000545,0.00001001,-0.00000755,-0.00000131,
 0.00001066,-0.00000372,0.00000781,-0.00000799,0.00000481,-0.00000340,-
 0.00000192,-0.00000425,-0.00000049,-0.00000304,-0.00000011,0.00000155,
 -0.00000154,-0.00000541,0.00000123,0.00000276,-0.00000265,-0.00000241,
 -0.00000469,-0.00000387,-0.00000304,-0.00000436,0.00000104,0.00000255,
 0.00000408,-0.00000257,-0.00000057,-0.00000292,0.00000036,-0.00000516,
 0.00000511,0.00000125,0.00000456,0.00000081,0.00000140,-0.00000258,-0.
 00000157,0.00001035,-0.00000407,0.00000018,-0.00000665,0.00000175,0.00
 000136,-0.00001043,0.00000369,-0.00000320,0.00001458,0.00000009,-0.000
 00319,-0.00000048,0.00000019,0.00000364,0.00000303,0.00000139,0.000002
 02,0.00000178,-0.00000326,-0.00000194,0.00000353\\\@
 The archive entry for this job was punched.


 THE TEST OF A FIRST RATE INTELLIGENCE IS THE ABILITY TO HOLD TWO OPPOSED
 IDEAS IN THE MIND AT THE SAME TIME, AND STILL RETAIN THE ABILITY TO FUNCTION.
 ONE SHOULD, FOR EXAMPLE, BE ABLE TO SEE THAT THINGS ARE HOPELESS AND YET BE
 DETERMINED TO MAKE THEM OTHERWISE.

                                                       -- F. SCOTT FITZGERALD
 Job cpu time:       0 days  2 hours 39 minutes 51.3 seconds.
 Elapsed time:       0 days  0 hours 26 minutes  9.3 seconds.
 File lengths (MBytes):  RWF=      6 Int=      0 D2E=      0 Chk=      2 Scr=      1
 Normal termination of Gaussian 16 at Tue Jan 16 22:21:17 2024.
