Unloading slurm/anatra/current
  ERROR: No such file or directory on
    '/cm/local/modulefiles/slurm/anatra/current'
environment: line 0: unalias: gv: not found
environment: line 0: unalias: sl: not found
 Entering Gaussian System, Link 0=g16
 Initial command:
 /apps/gaussian/g16/C.01/g16/l1.exe "/local/jobs/1158398/Gau-869897.inp" -scrdir="/local/jobs/1158398/"
 Entering Link 1 = /apps/gaussian/g16/C.01/g16/l1.exe PID=    869899.
  
 Copyright (c) 1988-2019, Gaussian, Inc.  All Rights Reserved.
  
 This is part of the Gaussian(R) 16 program.  It is based on
 the Gaussian(R) 09 system (copyright 2009, Gaussian, Inc.),
 the Gaussian(R) 03 system (copyright 2003, Gaussian, Inc.),
 the Gaussian(R) 98 system (copyright 1998, Gaussian, Inc.),
 the Gaussian(R) 94 system (copyright 1995, Gaussian, Inc.),
 the Gaussian 92(TM) system (copyright 1992, Gaussian, Inc.),
 the Gaussian 90(TM) system (copyright 1990, Gaussian, Inc.),
 the Gaussian 88(TM) system (copyright 1988, Gaussian, Inc.),
 the Gaussian 86(TM) system (copyright 1986, Carnegie Mellon
 University), and the Gaussian 82(TM) system (copyright 1983,
 Carnegie Mellon University). Gaussian is a federally registered
 trademark of Gaussian, Inc.
  
 This software contains proprietary and confidential information,
 including trade secrets, belonging to Gaussian, Inc.
  
 This software is provided under written license and may be
 used, copied, transmitted, or stored only in accord with that
 written license.
  
 The following legend is applicable only to US Government
 contracts under FAR:
  
                    RESTRICTED RIGHTS LEGEND
  
 Use, reproduction and disclosure by the US Government is
 subject to restrictions as set forth in subparagraphs (a)
 and (c) of the Commercial Computer Software - Restricted
 Rights clause in FAR 52.227-19.
  
 Gaussian, Inc.
 340 Quinnipiac St., Bldg. 40, Wallingford CT 06492
  
  
 ---------------------------------------------------------------
 Warning -- This program may not be used in any manner that
 competes with the business of Gaussian, Inc. or will provide
 assistance to any competitor of Gaussian, Inc.  The licensee
 of this program is prohibited from giving any competitor of
 Gaussian, Inc. access to this program.  By using this program,
 the user acknowledges that Gaussian, Inc. is engaged in the
 business of creating and licensing software in the field of
 computational chemistry and represents and warrants to the
 licensee that it is not a competitor of Gaussian, Inc. and that
 it will not use this program in any manner prohibited above.
 ---------------------------------------------------------------
  

 Cite this work as:
 Gaussian 16, Revision C.01,
 M. J. Frisch, G. W. Trucks, H. B. Schlegel, G. E. Scuseria, 
 M. A. Robb, J. R. Cheeseman, G. Scalmani, V. Barone, 
 G. A. Petersson, H. Nakatsuji, X. Li, M. Caricato, A. V. Marenich, 
 J. Bloino, B. G. Janesko, R. Gomperts, B. Mennucci, H. P. Hratchian, 
 J. V. Ortiz, A. F. Izmaylov, J. L. Sonnenberg, D. Williams-Young, 
 F. Ding, F. Lipparini, F. Egidi, J. Goings, B. Peng, A. Petrone, 
 T. Henderson, D. Ranasinghe, V. G. Zakrzewski, J. Gao, N. Rega, 
 G. Zheng, W. Liang, M. Hada, M. Ehara, K. Toyota, R. Fukuda, 
 J. Hasegawa, M. Ishida, T. Nakajima, Y. Honda, O. Kitao, H. Nakai, 
 T. Vreven, K. Throssell, J. A. Montgomery, Jr., J. E. Peralta, 
 F. Ogliaro, M. J. Bearpark, J. J. Heyd, E. N. Brothers, K. N. Kudin, 
 V. N. Staroverov, T. A. Keith, R. Kobayashi, J. Normand, 
 K. Raghavachari, A. P. Rendell, J. C. Burant, S. S. Iyengar, 
 J. Tomasi, M. Cossi, J. M. Millam, M. Klene, C. Adamo, R. Cammi, 
 J. W. Ochterski, R. L. Martin, K. Morokuma, O. Farkas, 
 J. B. Foresman, and D. J. Fox, Gaussian, Inc., Wallingford CT, 2019.
 
 ******************************************
 Gaussian 16:  ES64L-G16RevC.01  3-Jul-2019
                20-Jan-2024 
 ******************************************
 %nprocshared=12
 Will use up to   12 processors via shared memory.
 %mem=48GB
 ----------------------------------------------------------------------
 # external="~/scripts/MiMe -H 'hf 6-31g(d)' -EF 'wb97xd def2svp' -c 12
  -m 48GB" opt=(calcall,ts,noeigen,maxcycles=50,maxstep=10,nomicro)
 ----------------------------------------------------------------------
 1/5=1,6=50,8=10,10=4,11=1,18=20,26=1,38=1/1,3;
 2/9=110,12=2,17=6,18=5,40=1/2;
 3/11=9,25=1,30=1,41=9900000,43=2,71=2,140=1/1;
 4/20=17,22=2,24=3,113=1,114=1/2;
 6/7=2,8=2,9=2,10=2,18=1/1;
 7/25=1,44=-1/16;
 1/5=1,6=50,8=10,10=4,11=1,18=20,26=1/3(3);
 2/9=110/2;
 7/8=1,9=1,25=1,44=-1/16;
 99//99;
 2/9=110/2;
 3/11=9,25=1,30=1,41=9900000,43=2,71=2,140=1/1;
 4/16=2,20=17,22=2,24=3,113=1,114=1/2;
 7/25=1,44=-1/16;
 1/5=1,6=50,8=10,10=4,11=1,18=20,26=1/3(-4);
 2/9=110/2;
 6/7=2,8=2,9=2,10=2,18=1/1;
 7/8=1,9=1,25=1,44=-1/16;
 99//99;
 ---------------
 TS-325_hf_1.out
 ---------------
 Symbolic Z-matrix:
 Charge =  0 Multiplicity = 1
 C                     0.10822   0.09638  -0.09555 
 C                    -0.32811   1.50034   0.01491 
 O                    -1.3388    1.82031   0.6519 
 C                    -0.84892  -0.88831   0.06832 
 C                    -0.57463  -0.85209   2.89315 
 H                    -0.84183  -0.38525   3.85457 
 H                    -0.37035  -1.91912   3.06008 
 H                     0.34692  -0.37682   2.52225 
 N                    -1.59875  -0.68678   1.88363 
 H                    -2.44538  -1.22984   2.0419 
 H                    -1.82637   0.30673   1.71185 
 H                    -0.51301  -1.92595   0.12466 
 Br                   -2.56386  -0.84276  -0.84563 
 C                     1.53632  -0.2887   -0.17159 
 C                     2.53808   0.42653   0.51491 
 C                     3.87392   0.0396    0.45613 
 C                     4.25373  -1.08517  -0.27688 
 C                     3.27882  -1.80713  -0.96292 
 C                     1.94504  -1.4061   -0.92312 
 H                     2.25854   1.2973    1.11303 
 H                     4.62534   0.61521   1.00221 
 H                     5.30113  -1.39135  -0.31767 
 H                     3.56066  -2.68165  -1.55434 
 H                     1.20116  -1.95544  -1.50575 
 N                     0.44615   2.44001  -0.59415 
 C                     0.17367   3.8519   -0.52357 
 H                     1.20976   2.11387  -1.17125 
 H                    -0.64718   3.99914   0.18893 
 H                     1.05646   4.41321  -0.17815 
 H                    -0.13884   4.25796  -1.49954 
 
 Add virtual bond connecting atoms N9         and C4         Dist= 3.73D+00.
 Add virtual bond connecting atoms H11        and O3         Dist= 3.61D+00.

 GradGradGradGradGradGradGradGradGradGradGradGradGradGradGradGradGradGrad
 Berny optimization.
 Initialization pass.
                           ----------------------------
                           !    Initial Parameters    !
                           ! (Angstroms and Degrees)  !
 --------------------------                            --------------------------
 ! Name  Definition              Value          Derivative Info.                !
 --------------------------------------------------------------------------------
 ! R1    R(1,2)                  1.4743         calculate D2E/DX2 analytically  !
 ! R2    R(1,4)                  1.383          calculate D2E/DX2 analytically  !
 ! R3    R(1,14)                 1.4811         calculate D2E/DX2 analytically  !
 ! R4    R(2,3)                  1.2368         calculate D2E/DX2 analytically  !
 ! R5    R(2,25)                 1.3614         calculate D2E/DX2 analytically  !
 ! R6    R(3,11)                 1.9111         calculate D2E/DX2 analytically  !
 ! R7    R(4,9)                  1.9744         calculate D2E/DX2 analytically  !
 ! R8    R(4,12)                 1.0921         calculate D2E/DX2 analytically  !
 ! R9    R(4,13)                 1.9438         calculate D2E/DX2 analytically  !
 ! R10   R(5,6)                  1.1017         calculate D2E/DX2 analytically  !
 ! R11   R(5,7)                  1.0992         calculate D2E/DX2 analytically  !
 ! R12   R(5,8)                  1.1012         calculate D2E/DX2 analytically  !
 ! R13   R(5,9)                  1.4475         calculate D2E/DX2 analytically  !
 ! R14   R(9,10)                 1.0182         calculate D2E/DX2 analytically  !
 ! R15   R(9,11)                 1.0336         calculate D2E/DX2 analytically  !
 ! R16   R(14,15)                1.4094         calculate D2E/DX2 analytically  !
 ! R17   R(14,19)                1.4073         calculate D2E/DX2 analytically  !
 ! R18   R(15,16)                1.392          calculate D2E/DX2 analytically  !
 ! R19   R(15,20)                1.0928         calculate D2E/DX2 analytically  !
 ! R20   R(16,17)                1.3952         calculate D2E/DX2 analytically  !
 ! R21   R(16,21)                1.0928         calculate D2E/DX2 analytically  !
 ! R22   R(17,18)                1.3937         calculate D2E/DX2 analytically  !
 ! R23   R(17,22)                1.092          calculate D2E/DX2 analytically  !
 ! R24   R(18,19)                1.3933         calculate D2E/DX2 analytically  !
 ! R25   R(18,23)                1.0927         calculate D2E/DX2 analytically  !
 ! R26   R(19,24)                1.093          calculate D2E/DX2 analytically  !
 ! R27   R(25,26)                1.4397         calculate D2E/DX2 analytically  !
 ! R28   R(25,27)                1.0112         calculate D2E/DX2 analytically  !
 ! R29   R(26,28)                1.0969         calculate D2E/DX2 analytically  !
 ! R30   R(26,29)                1.1017         calculate D2E/DX2 analytically  !
 ! R31   R(26,30)                1.1023         calculate D2E/DX2 analytically  !
 ! A1    A(2,1,4)              117.6664         calculate D2E/DX2 analytically  !
 ! A2    A(2,1,14)             122.4663         calculate D2E/DX2 analytically  !
 ! A3    A(4,1,14)             119.2291         calculate D2E/DX2 analytically  !
 ! A4    A(1,2,3)              121.7892         calculate D2E/DX2 analytically  !
 ! A5    A(1,2,25)             117.0933         calculate D2E/DX2 analytically  !
 ! A6    A(3,2,25)             121.1047         calculate D2E/DX2 analytically  !
 ! A7    A(2,3,11)             106.813          calculate D2E/DX2 analytically  !
 ! A8    A(1,4,9)              107.4042         calculate D2E/DX2 analytically  !
 ! A9    A(1,4,12)             118.0175         calculate D2E/DX2 analytically  !
 ! A10   A(1,4,13)             122.5616         calculate D2E/DX2 analytically  !
 ! A11   A(9,4,12)              99.5763         calculate D2E/DX2 analytically  !
 ! A12   A(9,4,13)              95.4425         calculate D2E/DX2 analytically  !
 ! A13   A(12,4,13)            108.535          calculate D2E/DX2 analytically  !
 ! A14   A(6,5,7)              108.8997         calculate D2E/DX2 analytically  !
 ! A15   A(6,5,8)              108.3012         calculate D2E/DX2 analytically  !
 ! A16   A(6,5,9)              112.87           calculate D2E/DX2 analytically  !
 ! A17   A(7,5,8)              108.3361         calculate D2E/DX2 analytically  !
 ! A18   A(7,5,9)              110.3817         calculate D2E/DX2 analytically  !
 ! A19   A(8,5,9)              107.9318         calculate D2E/DX2 analytically  !
 ! A20   A(4,9,5)              111.154          calculate D2E/DX2 analytically  !
 ! A21   A(4,9,10)             113.8446         calculate D2E/DX2 analytically  !
 ! A22   A(4,9,11)              91.6585         calculate D2E/DX2 analytically  !
 ! A23   A(5,9,10)             114.7694         calculate D2E/DX2 analytically  !
 ! A24   A(5,9,11)             112.4254         calculate D2E/DX2 analytically  !
 ! A25   A(10,9,11)            110.8165         calculate D2E/DX2 analytically  !
 ! A26   A(3,11,9)             142.8698         calculate D2E/DX2 analytically  !
 ! A27   A(1,14,15)            121.898          calculate D2E/DX2 analytically  !
 ! A28   A(1,14,19)            120.9248         calculate D2E/DX2 analytically  !
 ! A29   A(15,14,19)           117.1701         calculate D2E/DX2 analytically  !
 ! A30   A(14,15,16)           121.3642         calculate D2E/DX2 analytically  !
 ! A31   A(14,15,20)           119.2859         calculate D2E/DX2 analytically  !
 ! A32   A(16,15,20)           119.3474         calculate D2E/DX2 analytically  !
 ! A33   A(15,16,17)           120.4981         calculate D2E/DX2 analytically  !
 ! A34   A(15,16,21)           119.4963         calculate D2E/DX2 analytically  !
 ! A35   A(17,16,21)           119.999          calculate D2E/DX2 analytically  !
 ! A36   A(16,17,18)           119.0648         calculate D2E/DX2 analytically  !
 ! A37   A(16,17,22)           120.4483         calculate D2E/DX2 analytically  !
 ! A38   A(18,17,22)           120.4856         calculate D2E/DX2 analytically  !
 ! A39   A(17,18,19)           120.4288         calculate D2E/DX2 analytically  !
 ! A40   A(17,18,23)           120.0392         calculate D2E/DX2 analytically  !
 ! A41   A(19,18,23)           119.5193         calculate D2E/DX2 analytically  !
 ! A42   A(14,19,18)           121.4536         calculate D2E/DX2 analytically  !
 ! A43   A(14,19,24)           119.0837         calculate D2E/DX2 analytically  !
 ! A44   A(18,19,24)           119.4474         calculate D2E/DX2 analytically  !
 ! A45   A(2,25,26)            123.1841         calculate D2E/DX2 analytically  !
 ! A46   A(2,25,27)            117.528          calculate D2E/DX2 analytically  !
 ! A47   A(26,25,27)           119.1573         calculate D2E/DX2 analytically  !
 ! A48   A(25,26,28)           107.7659         calculate D2E/DX2 analytically  !
 ! A49   A(25,26,29)           111.308          calculate D2E/DX2 analytically  !
 ! A50   A(25,26,30)           111.8093         calculate D2E/DX2 analytically  !
 ! A51   A(28,26,29)           109.1235         calculate D2E/DX2 analytically  !
 ! A52   A(28,26,30)           108.2712         calculate D2E/DX2 analytically  !
 ! A53   A(29,26,30)           108.4873         calculate D2E/DX2 analytically  !
 ! D1    D(4,1,2,3)             24.1357         calculate D2E/DX2 analytically  !
 ! D2    D(4,1,2,25)          -157.1492         calculate D2E/DX2 analytically  !
 ! D3    D(14,1,2,3)          -146.6273         calculate D2E/DX2 analytically  !
 ! D4    D(14,1,2,25)           32.0878         calculate D2E/DX2 analytically  !
 ! D5    D(2,1,4,9)            -60.406          calculate D2E/DX2 analytically  !
 ! D6    D(2,1,4,12)          -171.7693         calculate D2E/DX2 analytically  !
 ! D7    D(2,1,4,13)            48.1425         calculate D2E/DX2 analytically  !
 ! D8    D(14,1,4,9)           110.6661         calculate D2E/DX2 analytically  !
 ! D9    D(14,1,4,12)           -0.6972         calculate D2E/DX2 analytically  !
 ! D10   D(14,1,4,13)         -140.7854         calculate D2E/DX2 analytically  !
 ! D11   D(2,1,14,15)           34.1137         calculate D2E/DX2 analytically  !
 ! D12   D(2,1,14,19)         -146.8839         calculate D2E/DX2 analytically  !
 ! D13   D(4,1,14,15)         -136.5105         calculate D2E/DX2 analytically  !
 ! D14   D(4,1,14,19)           42.4919         calculate D2E/DX2 analytically  !
 ! D15   D(1,2,3,11)            13.9919         calculate D2E/DX2 analytically  !
 ! D16   D(25,2,3,11)         -164.6722         calculate D2E/DX2 analytically  !
 ! D17   D(1,2,25,26)         -177.3687         calculate D2E/DX2 analytically  !
 ! D18   D(1,2,25,27)            6.8279         calculate D2E/DX2 analytically  !
 ! D19   D(3,2,25,26)            1.3558         calculate D2E/DX2 analytically  !
 ! D20   D(3,2,25,27)         -174.4476         calculate D2E/DX2 analytically  !
 ! D21   D(2,3,11,9)            -6.8976         calculate D2E/DX2 analytically  !
 ! D22   D(1,4,9,5)            -60.8373         calculate D2E/DX2 analytically  !
 ! D23   D(1,4,9,10)           167.6957         calculate D2E/DX2 analytically  !
 ! D24   D(1,4,9,11)            54.0237         calculate D2E/DX2 analytically  !
 ! D25   D(12,4,9,5)            62.6753         calculate D2E/DX2 analytically  !
 ! D26   D(12,4,9,10)          -68.7917         calculate D2E/DX2 analytically  !
 ! D27   D(12,4,9,11)          177.5363         calculate D2E/DX2 analytically  !
 ! D28   D(13,4,9,5)           172.5467         calculate D2E/DX2 analytically  !
 ! D29   D(13,4,9,10)           41.0797         calculate D2E/DX2 analytically  !
 ! D30   D(13,4,9,11)          -72.5923         calculate D2E/DX2 analytically  !
 ! D31   D(6,5,9,4)            158.1374         calculate D2E/DX2 analytically  !
 ! D32   D(6,5,9,10)           -70.8723         calculate D2E/DX2 analytically  !
 ! D33   D(6,5,9,11)            56.9942         calculate D2E/DX2 analytically  !
 ! D34   D(7,5,9,4)            -79.7396         calculate D2E/DX2 analytically  !
 ! D35   D(7,5,9,10)            51.2508         calculate D2E/DX2 analytically  !
 ! D36   D(7,5,9,11)           179.1172         calculate D2E/DX2 analytically  !
 ! D37   D(8,5,9,4)             38.4874         calculate D2E/DX2 analytically  !
 ! D38   D(8,5,9,10)           169.4778         calculate D2E/DX2 analytically  !
 ! D39   D(8,5,9,11)           -62.6558         calculate D2E/DX2 analytically  !
 ! D40   D(4,9,11,3)           -24.4931         calculate D2E/DX2 analytically  !
 ! D41   D(5,9,11,3)            89.2421         calculate D2E/DX2 analytically  !
 ! D42   D(10,9,11,3)         -140.832          calculate D2E/DX2 analytically  !
 ! D43   D(1,14,15,16)         178.7591         calculate D2E/DX2 analytically  !
 ! D44   D(1,14,15,20)          -0.6672         calculate D2E/DX2 analytically  !
 ! D45   D(19,14,15,16)         -0.2789         calculate D2E/DX2 analytically  !
 ! D46   D(19,14,15,20)       -179.7052         calculate D2E/DX2 analytically  !
 ! D47   D(1,14,19,18)        -177.626          calculate D2E/DX2 analytically  !
 ! D48   D(1,14,19,24)           3.8091         calculate D2E/DX2 analytically  !
 ! D49   D(15,14,19,18)          1.422          calculate D2E/DX2 analytically  !
 ! D50   D(15,14,19,24)       -177.143          calculate D2E/DX2 analytically  !
 ! D51   D(14,15,16,17)         -0.8058         calculate D2E/DX2 analytically  !
 ! D52   D(14,15,16,21)       -179.869          calculate D2E/DX2 analytically  !
 ! D53   D(20,15,16,17)        178.6202         calculate D2E/DX2 analytically  !
 ! D54   D(20,15,16,21)         -0.443          calculate D2E/DX2 analytically  !
 ! D55   D(15,16,17,18)          0.7616         calculate D2E/DX2 analytically  !
 ! D56   D(15,16,17,22)       -179.6414         calculate D2E/DX2 analytically  !
 ! D57   D(21,16,17,18)        179.8202         calculate D2E/DX2 analytically  !
 ! D58   D(21,16,17,22)         -0.5829         calculate D2E/DX2 analytically  !
 ! D59   D(16,17,18,19)          0.3695         calculate D2E/DX2 analytically  !
 ! D60   D(16,17,18,23)        179.0661         calculate D2E/DX2 analytically  !
 ! D61   D(22,17,18,19)       -179.2273         calculate D2E/DX2 analytically  !
 ! D62   D(22,17,18,23)         -0.5306         calculate D2E/DX2 analytically  !
 ! D63   D(17,18,19,14)         -1.4937         calculate D2E/DX2 analytically  !
 ! D64   D(17,18,19,24)        177.0662         calculate D2E/DX2 analytically  !
 ! D65   D(23,18,19,14)        179.8029         calculate D2E/DX2 analytically  !
 ! D66   D(23,18,19,24)         -1.6372         calculate D2E/DX2 analytically  !
 ! D67   D(2,25,26,28)           7.289          calculate D2E/DX2 analytically  !
 ! D68   D(2,25,26,29)         126.9077         calculate D2E/DX2 analytically  !
 ! D69   D(2,25,26,30)        -111.58           calculate D2E/DX2 analytically  !
 ! D70   D(27,25,26,28)       -176.9726         calculate D2E/DX2 analytically  !
 ! D71   D(27,25,26,29)        -57.3539         calculate D2E/DX2 analytically  !
 ! D72   D(27,25,26,30)         64.1583         calculate D2E/DX2 analytically  !
 --------------------------------------------------------------------------------
 Trust Radius=1.00D-01 FncErr=1.00D-07 GrdErr=1.00D-07 EigMax=2.50D+02 EigMin=1.00D-04
 Number of steps in this run=     50 maximum allowed number of steps=    180.
 Search for a saddle point of order  1.
 GradGradGradGradGradGradGradGradGradGradGradGradGradGradGradGradGradGrad

                          Input orientation:                          
 ---------------------------------------------------------------------
 Center     Atomic      Atomic             Coordinates (Angstroms)
 Number     Number       Type             X           Y           Z
 ---------------------------------------------------------------------
      1          6           0        0.108220    0.096380   -0.095550
      2          6           0       -0.328110    1.500340    0.014910
      3          8           0       -1.338800    1.820310    0.651900
      4          6           0       -0.848920   -0.888310    0.068320
      5          6           0       -0.574630   -0.852090    2.893150
      6          1           0       -0.841830   -0.385250    3.854570
      7          1           0       -0.370350   -1.919120    3.060080
      8          1           0        0.346920   -0.376820    2.522250
      9          7           0       -1.598750   -0.686780    1.883630
     10          1           0       -2.445380   -1.229840    2.041900
     11          1           0       -1.826370    0.306730    1.711850
     12          1           0       -0.513010   -1.925950    0.124660
     13         35           0       -2.563860   -0.842760   -0.845630
     14          6           0        1.536320   -0.288700   -0.171590
     15          6           0        2.538080    0.426530    0.514910
     16          6           0        3.873920    0.039600    0.456130
     17          6           0        4.253730   -1.085170   -0.276880
     18          6           0        3.278820   -1.807130   -0.962920
     19          6           0        1.945040   -1.406100   -0.923120
     20          1           0        2.258540    1.297300    1.113030
     21          1           0        4.625340    0.615210    1.002210
     22          1           0        5.301130   -1.391350   -0.317670
     23          1           0        3.560660   -2.681650   -1.554340
     24          1           0        1.201160   -1.955440   -1.505750
     25          7           0        0.446150    2.440010   -0.594150
     26          6           0        0.173670    3.851900   -0.523570
     27          1           0        1.209760    2.113870   -1.171250
     28          1           0       -0.647180    3.999140    0.188930
     29          1           0        1.056460    4.413210   -0.178150
     30          1           0       -0.138840    4.257960   -1.499540
 ---------------------------------------------------------------------
                    Distance matrix (angstroms):
                    1          2          3          4          5
     1  C    0.000000
     2  C    1.474344   0.000000
     3  O    2.371599   1.236783   0.000000
     4  C    1.382962   2.445352   2.813747   0.000000
     5  C    3.209082   3.725448   3.570557   2.838347   0.000000
     6  H    4.091211   4.308404   3.920277   3.819530   1.101664
     7  H    3.774821   4.579034   4.551985   3.200348   1.099158
     8  H    2.670912   3.204083   3.341742   2.777306   1.101228
     9  N    2.728413   3.144858   2.805394   1.974388   1.447508
    10  H    3.584470   4.005671   3.529877   2.561317   2.089743
    11  H    2.655858   2.559120   1.911058   2.254932   2.074894
    12  H    2.127026   3.433030   3.872257   1.092111   2.970103
    13  Br   2.929951   3.351004   3.291703   1.943810   4.235044
    14  C    1.481060   2.590665   3.659559   2.471125   3.763795
    15  C    2.527030   3.101308   4.122085   3.660603   4.120662
    16  C    3.806320   4.470514   5.511960   4.828730   5.150124
    17  C    4.314417   5.269085   6.370309   5.118101   5.780699
    18  C    3.798471   4.990536   6.090023   4.352692   5.534479
    19  C    2.513210   3.807165   4.865595   3.009530   4.606472
    20  H    2.743492   2.817419   3.664292   3.940129   3.976878
    21  H    4.677460   5.127854   6.094748   5.753281   5.724361
    22  H    5.406384   6.337257   7.439321   6.182649   6.717494
    23  H    4.665283   5.922341   7.009982   5.029263   6.342561
    24  H    2.719034   4.073511   5.036183   2.796299   4.870435
    25  N    2.419793   1.361401   2.263342   3.632325   4.903180
    26  C    3.780399   2.464057   2.792249   4.885245   5.861864
    27  H    2.537871   2.036772   3.147255   3.845489   5.338569
    28  H    3.985360   2.525092   2.332376   4.893099   5.554503
    29  H    4.420521   3.230962   3.626208   5.638913   6.310049
    30  H    4.398974   3.151801   3.465651   5.426462   6.752648
                    6          7          8          9         10
     6  H    0.000000
     7  H    1.790605   0.000000
     8  H    1.785574   1.783936   0.000000
     9  N    2.132710   2.100396   2.071121   0.000000
    10  H    2.563294   2.411959   2.958939   1.018207   0.000000
    11  H    2.457520   2.981967   2.418094   1.033625   1.689128
    12  H    4.048964   2.938892   2.981228   2.410052   2.809703
    13  Br   5.026588   4.607017   4.475752   2.899074   2.915767
    14  C    4.677059   4.091131   2.946050   3.769756   4.651797
    15  C    4.820385   4.520943   3.078306   4.497357   5.469016
    16  C    5.828224   5.350791   4.108769   5.702236   6.637748
    17  C    6.597234   5.763063   4.857989   6.251243   7.090539
    18  C    6.496900   5.432634   4.773702   5.757493   6.490660
    19  C    5.624509   4.635742   3.934969   4.577523   5.300773
    20  H    4.467584   4.587747   2.905662   4.405574   5.419972
    21  H    6.247145   5.967795   4.647529   6.419609   7.381074
    22  H    7.493716   6.622192   5.799880   7.276708   8.099511
    23  H    7.342457   6.109596   5.679696   6.512961   7.149350
    24  H    5.947465   4.828847   4.409824   4.575685   5.139024
    25  N    5.425136   5.746484   4.201943   4.483060   5.364467
    26  C    6.176794   6.814923   5.214318   5.434676   6.266190
    27  H    5.976076   6.055238   4.537617   5.006362   5.904640
    28  H    5.718189   6.583763   5.057830   5.073001   5.831745
    29  H    6.549164   7.253987   5.544366   6.108271   7.002537
    30  H    7.121804   7.681149   6.155643   6.166655   6.926606
                   11         12         13         14         15
    11  H    0.000000
    12  H    3.037918   0.000000
    13  Br   2.899297   2.514110   0.000000
    14  C    3.899945   2.639717   4.191991   0.000000
    15  C    4.527189   3.872416   5.430650   1.409383   0.000000
    16  C    5.843073   4.818549   6.627077   2.442578   1.391991
    17  C    6.546759   4.856949   6.845566   2.833684   2.419840
    18  C    6.138873   3.946508   5.922894   2.442978   2.778833
    19  C    4.909214   2.722149   4.544616   1.407278   2.403780
    20  H    4.245740   4.364368   5.627766   2.165005   1.092763
    21  H    6.497947   5.799158   7.564707   3.425917   2.151677
    22  H    7.602873   5.855397   7.901757   3.925681   3.410619
    23  H    6.972697   4.470449   6.433781   3.425808   3.871466
    24  H    4.963497   2.365901   3.981104   2.161096   3.397676
    25  N    3.877224   4.527503   4.460940   2.968651   3.108100
    26  C    4.643866   5.854510   5.444045   4.373245   4.289759
    27  H    4.560275   4.579024   4.804987   2.622652   2.730327
    28  H    4.164573   5.926957   5.309235   4.825269   4.797467
    29  H    5.361528   6.537574   6.416967   4.726338   4.309193
    30  H    5.364047   6.404590   5.685566   5.024115   5.089574
                   16         17         18         19         20
    16  C    0.000000
    17  C    1.395230   0.000000
    18  C    2.403801   1.393674   0.000000
    19  C    2.777221   2.418816   1.393333   0.000000
    20  H    2.150065   3.404232   3.871437   3.398906   0.000000
    21  H    1.092777   2.159967   3.397438   3.869961   2.465618
    22  H    2.164096   1.091997   2.163090   3.410297   4.305008
    23  H    3.397841   2.158935   1.092702   2.153066   4.964113
    24  H    3.869471   3.403774   2.152517   1.092973   4.307712
    25  N    4.314471   5.198579   5.118419   4.140949   2.739527
    26  C    5.402341   6.409556   6.469900   5.562729   3.681185
    27  H    3.748161   4.505498   4.438316   3.604496   2.642851
    28  H    6.015787   7.077154   7.103028   6.096957   4.073955
    29  H    5.241074   6.361169   6.651870   5.933711   3.580648
    30  H    6.141779   7.024145   6.982383   6.062705   4.619357
                   21         22         23         24         25
    21  H    0.000000
    22  H    2.495007   0.000000
    23  H    4.305668   2.494687   0.000000
    24  H    4.962168   4.305750   2.469207   0.000000
    25  N    4.831551   6.190847   6.070712   4.552036   0.000000
    26  C    5.711526   7.336546   7.431115   5.978763   1.439674
    27  H    4.316955   5.454766   5.354484   4.083044   1.011193
    28  H    6.317584   8.043408   8.085658   6.461062   2.058998
    29  H    5.343684   7.192330   7.648657   6.507162   2.106906
    30  H    6.498138   7.931254   7.864318   6.356255   2.113501
                   26         27         28         29         30
    26  C    0.000000
    27  H    2.124552   0.000000
    28  H    1.096873   2.975325   0.000000
    29  H    1.101681   2.509325   1.791254   0.000000
    30  H    1.102300   2.554137   1.782226   1.788551   0.000000
 Stoichiometry    C11H15BrN2O
 Framework group  C1[X(C11H15BrN2O)]
 Deg. of freedom    84
 Full point group                 C1      NOp   1
 Largest Abelian subgroup         C1      NOp   1
 Largest concise Abelian subgroup C1      NOp   1
                         Standard orientation:                         
 ---------------------------------------------------------------------
 Center     Atomic      Atomic             Coordinates (Angstroms)
 Number     Number       Type             X           Y           Z
 ---------------------------------------------------------------------
      1          6           0        0.108219    0.096380   -0.095550
      2          6           0       -0.328110    1.500340    0.014910
      3          8           0       -1.338800    1.820311    0.651900
      4          6           0       -0.848922   -0.888309    0.068320
      5          6           0       -0.574632   -0.852090    2.893150
      6          1           0       -0.841831   -0.385249    3.854570
      7          1           0       -0.370352   -1.919120    3.060080
      8          1           0        0.346919   -0.376820    2.522250
      9          7           0       -1.598751   -0.686779    1.883630
     10          1           0       -2.445382   -1.229839    2.041900
     11          1           0       -1.826371    0.306731    1.711850
     12          1           0       -0.513012   -1.925950    0.124660
     13         35           0       -2.563862   -0.842759   -0.845630
     14          6           0        1.536319   -0.288701   -0.171590
     15          6           0        2.538079    0.426529    0.514910
     16          6           0        3.873919    0.039598    0.456130
     17          6           0        4.253728   -1.085172   -0.276880
     18          6           0        3.278818   -1.807132   -0.962920
     19          6           0        1.945038   -1.406101   -0.923120
     20          1           0        2.258540    1.297299    1.113030
     21          1           0        4.625339    0.615208    1.002210
     22          1           0        5.301128   -1.391353   -0.317670
     23          1           0        3.560658   -2.681652   -1.554340
     24          1           0        1.201158   -1.955441   -1.505750
     25          7           0        0.446150    2.440010   -0.594150
     26          6           0        0.173671    3.851900   -0.523570
     27          1           0        1.209760    2.113869   -1.171250
     28          1           0       -0.647179    3.999140    0.188930
     29          1           0        1.056461    4.413210   -0.178150
     30          1           0       -0.138839    4.257960   -1.499540
 ---------------------------------------------------------------------
 Rotational constants (GHZ):           0.5735211           0.3056106           0.2601469
 Standard basis: STO-3G (5D, 7F)
 There are   104 symmetry adapted cartesian basis functions of A   symmetry.
 There are   103 symmetry adapted basis functions of A   symmetry.
   103 basis functions,   312 primitive gaussians,   104 cartesian basis functions
    69 alpha electrons       69 beta electrons
       nuclear repulsion energy      1352.7388468509 Hartrees.
 NAtoms=   30 NActive=   30 NUniq=   30 SFac= 1.00D+00 NAtFMM=   60 NAOKFM=F Big=F
 Integral buffers will be    131072 words long.
 Raffenetti 1 integral format.
 Two-electron integral symmetry is turned on.
 External calculation of energy, first and second derivatives.
 Running external command "~/scripts/MiMe -H 'hf 6-31g(d)' -EF 'wb97xd def2svp' -c 12 -m 48GB R"
         input file       "/local/jobs/1158398/Gau-869899.EIn"
         output file      "/local/jobs/1158398/Gau-869899.EOu"
         message file     "/local/jobs/1158398/Gau-869899.EMs"
         fchk file        "/local/jobs/1158398/Gau-869899.EFC"
         mat. el file     "/local/jobs/1158398/Gau-869899.EUF"
 Read checkpoint file Gau-869899_H.chk type G16
 Write formatted file Gau-869899_H.fchk

deriv: 2

spelevel: wb97xd def2svp
gradlevel: wb97xd def2svp
hesslevel: hf 6-31g(d)

runspe: False
runforce: True
runfreq: True

Running Gaussian ...

Parsing files ...
SPE file: Gau-869899_F.out
FORCE file: Gau-869899_F.out
HESS file: Gau-869899_H.out

 ExternalExternalExternalExternalExternalExternalExternalExternalExternalExternal
 Output from external command:
 "~/scripts/MiMe -H 'hf 6-31g(d)' -EF 'wb97xd def2svp' -c 12 -m 48GB R /local/jobs/1158398/Gau-869899.EIn /local/jobs/1158398/Gau-869899.EOu /local/jobs/1158398/Gau-869899.EMs /local/jobs/1158398/Gau-869899.EFC /local/jobs/1158398/Gau-869899.EUF"
  
 --------------------------------------------------
 Force calculation at wb97xd def2svp
 Hessian calculation at hf 6-31g(d)
 ExternalExternalExternalExternalExternalExternalExternalExternalExternalExternal

 Recovered energy= -3186.16161528     dipole=      1.245400000000     -0.917100000000      2.148400000000
 Energy=    -3186.16162     NIter=   0.
 Dipole moment=       1.245400      -0.917100       2.148400
 ***** Axes restored to original set *****
 -------------------------------------------------------------------
 Center     Atomic                   Forces (Hartrees/Bohr)
 Number     Number              X              Y              Z
 -------------------------------------------------------------------
      1        6          -0.000000889    0.000006698    0.000001474
      2        6           0.000013608   -0.000005267   -0.000009085
      3        8          -0.000008181    0.000003832    0.000006053
      4        6           0.000002091   -0.000003359   -0.000001222
      5        6           0.000000672   -0.000000179    0.000003124
      6        1          -0.000000344    0.000000871   -0.000001178
      7        1          -0.000001364    0.000000688   -0.000001250
      8        1          -0.000001339    0.000000405    0.000000984
      9        7          -0.000000154    0.000005896   -0.000003844
     10        1          -0.000003644   -0.000000376   -0.000000308
     11        1           0.000000687   -0.000001898    0.000001067
     12        1          -0.000001806    0.000001604   -0.000000369
     13       35          -0.000000845    0.000000753   -0.000001075
     14        6           0.000000381   -0.000002914   -0.000002140
     15        6          -0.000000637   -0.000002232   -0.000001445
     16        6          -0.000002078    0.000002446    0.000004345
     17        6           0.000008477    0.000002253    0.000003692
     18        6          -0.000008700   -0.000007265   -0.000005096
     19        6           0.000005673    0.000004558    0.000005633
     20        1          -0.000000290    0.000000956    0.000000350
     21        1          -0.000001058   -0.000002118   -0.000000288
     22        1          -0.000001395   -0.000001691    0.000001146
     23        1          -0.000000068   -0.000000203    0.000002027
     24        1          -0.000000645   -0.000001140   -0.000000715
     25        7          -0.000004948   -0.000002642    0.000005070
     26        6          -0.000006383   -0.000001367   -0.000000441
     27        1           0.000002398   -0.000000783   -0.000004172
     28        1           0.000011674    0.000001364    0.000003989
     29        1           0.000007472    0.000003661   -0.000008199
     30        1          -0.000008364   -0.000002553    0.000001873
 -------------------------------------------------------------------
 Cartesian Forces:  Max     0.000013608 RMS     0.000004038
 FormGI is forming the generalized inverse of G from B-inverse, IUseBI=4.

 GradGradGradGradGradGradGradGradGradGradGradGradGradGradGradGradGradGrad
 Berny optimization.
 Internal  Forces:  Max     0.000014828 RMS     0.000003975
 Search for a saddle point.
 Step number   1 out of a maximum of   50
 All quantities printed in internal units (Hartrees-Bohrs-Radians)
 Swapping is turned off.
 Second derivative matrix not updated -- analytic derivatives used.
 ITU=  0
     Eigenvalues ---   -0.05216   0.00306   0.00558   0.00694   0.00736
     Eigenvalues ---    0.01446   0.01598   0.02175   0.02413   0.02449
     Eigenvalues ---    0.02560   0.02568   0.02884   0.03039   0.03143
     Eigenvalues ---    0.03227   0.03468   0.03562   0.03722   0.04106
     Eigenvalues ---    0.04581   0.04942   0.05621   0.05710   0.06226
     Eigenvalues ---    0.06363   0.07106   0.07312   0.07813   0.08216
     Eigenvalues ---    0.08599   0.09582   0.11924   0.13429   0.14613
     Eigenvalues ---    0.14793   0.14993   0.15251   0.15596   0.16065
     Eigenvalues ---    0.16389   0.16545   0.17090   0.20343   0.20572
     Eigenvalues ---    0.21789   0.22052   0.22094   0.22243   0.22439
     Eigenvalues ---    0.22687   0.22742   0.23976   0.24453   0.25438
     Eigenvalues ---    0.29422   0.33221   0.33639   0.34128   0.34372
     Eigenvalues ---    0.34958   0.35152   0.35425   0.35917   0.36340
     Eigenvalues ---    0.36423   0.36451   0.36658   0.37095   0.37766
     Eigenvalues ---    0.40442   0.41360   0.43178   0.45412   0.46204
     Eigenvalues ---    0.46673   0.47969   0.48361   0.49613   0.50759
     Eigenvalues ---    0.51289   0.55010   0.55847   0.77538
 Eigenvectors required to have negative eigenvalues:
                          R7        R6        D10       D7        R2
   1                   -0.84616  -0.21357   0.19117   0.18432   0.12934
                          R9        A22       D3        A12       A7
   1                    0.11541   0.10221  -0.08928   0.08911  -0.08886
 RFO step:  Lambda0=9.818638957D-13 Lambda=-5.72451589D-08.
 Linear search not attempted -- option 19 set.
 Iteration  1 RMS(Cart)=  0.00025475 RMS(Int)=  0.00000011
 Iteration  2 RMS(Cart)=  0.00000011 RMS(Int)=  0.00000000
 Variable       Old X    -DE/DX   Delta X   Delta X   Delta X     New X
                                 (Linear)    (Quad)   (Total)
    R1        2.78611  -0.00000   0.00000  -0.00002  -0.00002   2.78609
    R2        2.61342   0.00000   0.00000   0.00000   0.00000   2.61342
    R3        2.79880   0.00000   0.00000   0.00000   0.00000   2.79880
    R4        2.33718   0.00001   0.00000   0.00002   0.00002   2.33720
    R5        2.57267  -0.00000   0.00000  -0.00001  -0.00001   2.57266
    R6        3.61138  -0.00000   0.00000  -0.00001  -0.00001   3.61136
    R7        3.73105   0.00000   0.00000  -0.00000  -0.00000   3.73105
    R8        2.06379  -0.00000   0.00000  -0.00001  -0.00001   2.06379
    R9        3.67327   0.00000   0.00000   0.00001   0.00001   3.67328
   R10        2.08184  -0.00000   0.00000  -0.00000  -0.00000   2.08184
   R11        2.07711  -0.00000   0.00000  -0.00000  -0.00000   2.07711
   R12        2.08102  -0.00000   0.00000  -0.00000  -0.00000   2.08102
   R13        2.73539   0.00000   0.00000   0.00001   0.00001   2.73540
   R14        1.92413   0.00000   0.00000   0.00001   0.00001   1.92414
   R15        1.95327  -0.00000   0.00000  -0.00001  -0.00001   1.95326
   R16        2.66335  -0.00000   0.00000  -0.00001  -0.00001   2.66334
   R17        2.65937  -0.00000   0.00000  -0.00001  -0.00001   2.65937
   R18        2.63048  -0.00000   0.00000   0.00000   0.00000   2.63048
   R19        2.06502   0.00000   0.00000   0.00000   0.00000   2.06502
   R20        2.63660   0.00000   0.00000   0.00000   0.00000   2.63661
   R21        2.06505  -0.00000   0.00000  -0.00001  -0.00001   2.06504
   R22        2.63366   0.00001   0.00000   0.00002   0.00002   2.63368
   R23        2.06357  -0.00000   0.00000  -0.00000  -0.00000   2.06357
   R24        2.63302  -0.00000   0.00000  -0.00001  -0.00001   2.63301
   R25        2.06491  -0.00000   0.00000  -0.00000  -0.00000   2.06490
   R26        2.06542   0.00000   0.00000   0.00001   0.00001   2.06542
   R27        2.72059   0.00000   0.00000   0.00000   0.00000   2.72059
   R28        1.91088   0.00000   0.00000   0.00001   0.00001   1.91089
   R29        2.07279  -0.00000   0.00000  -0.00001  -0.00001   2.07278
   R30        2.08188   0.00000   0.00000   0.00000   0.00000   2.08188
   R31        2.08304  -0.00000   0.00000   0.00001   0.00001   2.08305
    A1        2.05367  -0.00000   0.00000  -0.00000  -0.00000   2.05367
    A2        2.13744  -0.00000   0.00000   0.00000   0.00000   2.13744
    A3        2.08094   0.00000   0.00000  -0.00000  -0.00000   2.08094
    A4        2.12562  -0.00000   0.00000   0.00000   0.00000   2.12563
    A5        2.04366   0.00000   0.00000   0.00001   0.00001   2.04367
    A6        2.11368  -0.00000   0.00000  -0.00001  -0.00001   2.11366
    A7        1.86424   0.00000   0.00000  -0.00000  -0.00000   1.86424
    A8        1.87456   0.00000   0.00000  -0.00000  -0.00000   1.87455
    A9        2.05979   0.00000   0.00000   0.00001   0.00001   2.05980
   A10        2.13910  -0.00000   0.00000  -0.00001  -0.00001   2.13910
   A11        1.73793  -0.00000   0.00000  -0.00000  -0.00000   1.73793
   A12        1.66579   0.00000   0.00000   0.00000   0.00000   1.66579
   A13        1.89429  -0.00000   0.00000  -0.00000  -0.00000   1.89429
   A14        1.90066   0.00000   0.00000   0.00001   0.00001   1.90067
   A15        1.89021  -0.00000   0.00000  -0.00001  -0.00001   1.89021
   A16        1.96995  -0.00000   0.00000  -0.00000  -0.00000   1.96995
   A17        1.89082   0.00000   0.00000   0.00000   0.00000   1.89082
   A18        1.92652  -0.00000   0.00000  -0.00000  -0.00000   1.92652
   A19        1.88377   0.00000   0.00000  -0.00000  -0.00000   1.88376
   A20        1.94000  -0.00000   0.00000   0.00000   0.00000   1.94000
   A21        1.98696   0.00000   0.00000   0.00000   0.00000   1.98697
   A22        1.59974   0.00000   0.00000   0.00001   0.00001   1.59975
   A23        2.00310  -0.00000   0.00000  -0.00001  -0.00001   2.00310
   A24        1.96219  -0.00000   0.00000   0.00000   0.00000   1.96219
   A25        1.93411  -0.00000   0.00000  -0.00000  -0.00000   1.93411
   A26        2.49355  -0.00000   0.00000   0.00001   0.00001   2.49356
   A27        2.12752  -0.00001   0.00000  -0.00000  -0.00000   2.12752
   A28        2.11054   0.00001   0.00000   0.00001   0.00001   2.11054
   A29        2.04500  -0.00000   0.00000  -0.00000  -0.00000   2.04500
   A30        2.11820   0.00000   0.00000   0.00000   0.00000   2.11821
   A31        2.08193  -0.00000   0.00000   0.00000   0.00000   2.08193
   A32        2.08301  -0.00000   0.00000  -0.00000  -0.00000   2.08300
   A33        2.10309  -0.00000   0.00000   0.00000   0.00000   2.10309
   A34        2.08560   0.00000   0.00000   0.00000   0.00000   2.08561
   A35        2.09438   0.00000   0.00000  -0.00001  -0.00001   2.09437
   A36        2.07807  -0.00000   0.00000  -0.00001  -0.00001   2.07807
   A37        2.10222   0.00000   0.00000   0.00001   0.00001   2.10223
   A38        2.10287   0.00000   0.00000  -0.00000  -0.00000   2.10287
   A39        2.10188  -0.00000   0.00000  -0.00001  -0.00001   2.10187
   A40        2.09508  -0.00000   0.00000   0.00000   0.00000   2.09508
   A41        2.08601   0.00000   0.00000   0.00001   0.00001   2.08601
   A42        2.11976   0.00000   0.00000   0.00001   0.00001   2.11978
   A43        2.07840  -0.00000   0.00000  -0.00000  -0.00000   2.07840
   A44        2.08475  -0.00000   0.00000  -0.00001  -0.00001   2.08474
   A45        2.14997   0.00000   0.00000  -0.00001  -0.00001   2.14996
   A46        2.05125  -0.00000   0.00000   0.00000   0.00000   2.05125
   A47        2.07969  -0.00000   0.00000  -0.00001  -0.00001   2.07968
   A48        1.88087   0.00000   0.00000   0.00002   0.00002   1.88089
   A49        1.94269   0.00000   0.00000  -0.00005  -0.00005   1.94264
   A50        1.95144  -0.00000   0.00000   0.00004   0.00004   1.95148
   A51        1.90456  -0.00000   0.00000   0.00001   0.00001   1.90458
   A52        1.88969   0.00000   0.00000  -0.00003  -0.00003   1.88966
   A53        1.89346   0.00000   0.00000   0.00000   0.00000   1.89347
    D1        0.42125   0.00001   0.00000   0.00004   0.00004   0.42129
    D2       -2.74277   0.00001   0.00000   0.00002   0.00002  -2.74275
    D3       -2.55913   0.00001   0.00000   0.00005   0.00005  -2.55908
    D4        0.56004   0.00001   0.00000   0.00003   0.00003   0.56007
    D5       -1.05428  -0.00000   0.00000  -0.00001  -0.00001  -1.05429
    D6       -2.99794  -0.00000   0.00000  -0.00001  -0.00001  -2.99795
    D7        0.84025   0.00000   0.00000  -0.00001  -0.00001   0.84024
    D8        1.93149  -0.00000   0.00000  -0.00002  -0.00002   1.93147
    D9       -0.01217  -0.00000   0.00000  -0.00001  -0.00001  -0.01218
   D10       -2.45717  -0.00000   0.00000  -0.00002  -0.00002  -2.45719
   D11        0.59540   0.00000   0.00000  -0.00004  -0.00004   0.59536
   D12       -2.56361  -0.00000   0.00000  -0.00005  -0.00005  -2.56366
   D13       -2.38256   0.00000   0.00000  -0.00003  -0.00003  -2.38258
   D14        0.74162   0.00000   0.00000  -0.00004  -0.00004   0.74159
   D15        0.24420  -0.00001   0.00000  -0.00003  -0.00003   0.24417
   D16       -2.87407  -0.00001   0.00000  -0.00002  -0.00002  -2.87409
   D17       -3.09567   0.00000   0.00000  -0.00009  -0.00009  -3.09576
   D18        0.11917   0.00001   0.00000   0.00016   0.00016   0.11933
   D19        0.02366   0.00001   0.00000  -0.00011  -0.00011   0.02355
   D20       -3.04468   0.00001   0.00000   0.00014   0.00014  -3.04454
   D21       -0.12038   0.00000   0.00000  -0.00001  -0.00001  -0.12039
   D22       -1.06181  -0.00000   0.00000  -0.00003  -0.00003  -1.06184
   D23        2.92684  -0.00000   0.00000  -0.00002  -0.00002   2.92682
   D24        0.94289  -0.00000   0.00000  -0.00002  -0.00002   0.94287
   D25        1.09389  -0.00000   0.00000  -0.00002  -0.00002   1.09387
   D26       -1.20064   0.00000   0.00000  -0.00001  -0.00001  -1.20065
   D27        3.09859  -0.00000   0.00000  -0.00001  -0.00001   3.09858
   D28        3.01151  -0.00000   0.00000  -0.00002  -0.00002   3.01149
   D29        0.71698   0.00000   0.00000  -0.00001  -0.00001   0.71696
   D30       -1.26697  -0.00000   0.00000  -0.00002  -0.00002  -1.26699
   D31        2.76002   0.00000   0.00000   0.00001   0.00001   2.76003
   D32       -1.23695   0.00000   0.00000   0.00001   0.00001  -1.23694
   D33        0.99474  -0.00000   0.00000   0.00000   0.00000   0.99474
   D34       -1.39172   0.00000   0.00000   0.00002   0.00002  -1.39169
   D35        0.89450   0.00000   0.00000   0.00002   0.00002   0.89452
   D36        3.12619  -0.00000   0.00000   0.00001   0.00001   3.12620
   D37        0.67173   0.00000   0.00000   0.00002   0.00002   0.67176
   D38        2.95795   0.00000   0.00000   0.00002   0.00002   2.95797
   D39       -1.09355  -0.00000   0.00000   0.00001   0.00001  -1.09354
   D40       -0.42749   0.00000   0.00000   0.00003   0.00003  -0.42746
   D41        1.55757   0.00000   0.00000   0.00003   0.00003   1.55760
   D42       -2.45798   0.00000   0.00000   0.00002   0.00002  -2.45796
   D43        3.11994  -0.00000   0.00000  -0.00002  -0.00002   3.11992
   D44       -0.01164  -0.00000   0.00000  -0.00002  -0.00002  -0.01166
   D45       -0.00487  -0.00000   0.00000  -0.00001  -0.00001  -0.00488
   D46       -3.13645   0.00000   0.00000  -0.00001  -0.00001  -3.13646
   D47       -3.10016   0.00000   0.00000   0.00001   0.00001  -3.10014
   D48        0.06648   0.00000   0.00000   0.00001   0.00001   0.06649
   D49        0.02482   0.00000   0.00000   0.00000   0.00000   0.02482
   D50       -3.09173  -0.00000   0.00000   0.00000   0.00000  -3.09172
   D51       -0.01406   0.00000   0.00000   0.00001   0.00001  -0.01405
   D52       -3.13931   0.00000   0.00000   0.00000   0.00000  -3.13930
   D53        3.11751  -0.00000   0.00000   0.00001   0.00001   3.11752
   D54       -0.00773  -0.00000   0.00000   0.00000   0.00000  -0.00773
   D55        0.01329  -0.00000   0.00000  -0.00001  -0.00001   0.01329
   D56       -3.13533   0.00000   0.00000  -0.00000  -0.00000  -3.13534
   D57        3.13845  -0.00000   0.00000   0.00000   0.00000   3.13846
   D58       -0.01017   0.00000   0.00000   0.00000   0.00000  -0.01017
   D59        0.00645  -0.00000   0.00000   0.00000   0.00000   0.00645
   D60        3.12529   0.00000   0.00000   0.00000   0.00000   3.12530
   D61       -3.12811  -0.00000   0.00000  -0.00000  -0.00000  -3.12811
   D62       -0.00926  -0.00000   0.00000  -0.00000  -0.00000  -0.00926
   D63       -0.02607   0.00000   0.00000   0.00000   0.00000  -0.02607
   D64        3.09039   0.00000   0.00000   0.00000   0.00000   3.09039
   D65        3.13815  -0.00000   0.00000  -0.00000  -0.00000   3.13815
   D66       -0.02857   0.00000   0.00000  -0.00000  -0.00000  -0.02858
   D67        0.12722   0.00001   0.00000   0.00096   0.00096   0.12818
   D68        2.21496   0.00001   0.00000   0.00096   0.00096   2.21592
   D69       -1.94744   0.00001   0.00000   0.00096   0.00096  -1.94648
   D70       -3.08875   0.00001   0.00000   0.00070   0.00070  -3.08805
   D71       -1.00101   0.00001   0.00000   0.00070   0.00070  -1.00031
   D72        1.11977   0.00001   0.00000   0.00070   0.00070   1.12048
         Item               Value     Threshold  Converged?
 Maximum Force            0.000015     0.000450     YES
 RMS     Force            0.000004     0.000300     YES
 Maximum Displacement     0.001787     0.001800     YES
 RMS     Displacement     0.000255     0.001200     YES
 Predicted change in Energy=-2.862209D-08
 Optimization completed.
    -- Stationary point found.
                           ----------------------------
                           !   Optimized Parameters   !
                           ! (Angstroms and Degrees)  !
 --------------------------                            --------------------------
 ! Name  Definition              Value          Derivative Info.                !
 --------------------------------------------------------------------------------
 ! R1    R(1,2)                  1.4743         -DE/DX =    0.0                 !
 ! R2    R(1,4)                  1.383          -DE/DX =    0.0                 !
 ! R3    R(1,14)                 1.4811         -DE/DX =    0.0                 !
 ! R4    R(2,3)                  1.2368         -DE/DX =    0.0                 !
 ! R5    R(2,25)                 1.3614         -DE/DX =    0.0                 !
 ! R6    R(3,11)                 1.9111         -DE/DX =    0.0                 !
 ! R7    R(4,9)                  1.9744         -DE/DX =    0.0                 !
 ! R8    R(4,12)                 1.0921         -DE/DX =    0.0                 !
 ! R9    R(4,13)                 1.9438         -DE/DX =    0.0                 !
 ! R10   R(5,6)                  1.1017         -DE/DX =    0.0                 !
 ! R11   R(5,7)                  1.0992         -DE/DX =    0.0                 !
 ! R12   R(5,8)                  1.1012         -DE/DX =    0.0                 !
 ! R13   R(5,9)                  1.4475         -DE/DX =    0.0                 !
 ! R14   R(9,10)                 1.0182         -DE/DX =    0.0                 !
 ! R15   R(9,11)                 1.0336         -DE/DX =    0.0                 !
 ! R16   R(14,15)                1.4094         -DE/DX =    0.0                 !
 ! R17   R(14,19)                1.4073         -DE/DX =    0.0                 !
 ! R18   R(15,16)                1.392          -DE/DX =    0.0                 !
 ! R19   R(15,20)                1.0928         -DE/DX =    0.0                 !
 ! R20   R(16,17)                1.3952         -DE/DX =    0.0                 !
 ! R21   R(16,21)                1.0928         -DE/DX =    0.0                 !
 ! R22   R(17,18)                1.3937         -DE/DX =    0.0                 !
 ! R23   R(17,22)                1.092          -DE/DX =    0.0                 !
 ! R24   R(18,19)                1.3933         -DE/DX =    0.0                 !
 ! R25   R(18,23)                1.0927         -DE/DX =    0.0                 !
 ! R26   R(19,24)                1.093          -DE/DX =    0.0                 !
 ! R27   R(25,26)                1.4397         -DE/DX =    0.0                 !
 ! R28   R(25,27)                1.0112         -DE/DX =    0.0                 !
 ! R29   R(26,28)                1.0969         -DE/DX =    0.0                 !
 ! R30   R(26,29)                1.1017         -DE/DX =    0.0                 !
 ! R31   R(26,30)                1.1023         -DE/DX =    0.0                 !
 ! A1    A(2,1,4)              117.6664         -DE/DX =    0.0                 !
 ! A2    A(2,1,14)             122.4663         -DE/DX =    0.0                 !
 ! A3    A(4,1,14)             119.2291         -DE/DX =    0.0                 !
 ! A4    A(1,2,3)              121.7892         -DE/DX =    0.0                 !
 ! A5    A(1,2,25)             117.0933         -DE/DX =    0.0                 !
 ! A6    A(3,2,25)             121.1047         -DE/DX =    0.0                 !
 ! A7    A(2,3,11)             106.813          -DE/DX =    0.0                 !
 ! A8    A(1,4,9)              107.4042         -DE/DX =    0.0                 !
 ! A9    A(1,4,12)             118.0175         -DE/DX =    0.0                 !
 ! A10   A(1,4,13)             122.5616         -DE/DX =    0.0                 !
 ! A11   A(9,4,12)              99.5763         -DE/DX =    0.0                 !
 ! A12   A(9,4,13)              95.4425         -DE/DX =    0.0                 !
 ! A13   A(12,4,13)            108.535          -DE/DX =    0.0                 !
 ! A14   A(6,5,7)              108.8997         -DE/DX =    0.0                 !
 ! A15   A(6,5,8)              108.3012         -DE/DX =    0.0                 !
 ! A16   A(6,5,9)              112.87           -DE/DX =    0.0                 !
 ! A17   A(7,5,8)              108.3361         -DE/DX =    0.0                 !
 ! A18   A(7,5,9)              110.3817         -DE/DX =    0.0                 !
 ! A19   A(8,5,9)              107.9318         -DE/DX =    0.0                 !
 ! A20   A(4,9,5)              111.154          -DE/DX =    0.0                 !
 ! A21   A(4,9,10)             113.8446         -DE/DX =    0.0                 !
 ! A22   A(4,9,11)              91.6585         -DE/DX =    0.0                 !
 ! A23   A(5,9,10)             114.7694         -DE/DX =    0.0                 !
 ! A24   A(5,9,11)             112.4254         -DE/DX =    0.0                 !
 ! A25   A(10,9,11)            110.8165         -DE/DX =    0.0                 !
 ! A26   A(3,11,9)             142.8698         -DE/DX =    0.0                 !
 ! A27   A(1,14,15)            121.898          -DE/DX =    0.0                 !
 ! A28   A(1,14,19)            120.9248         -DE/DX =    0.0                 !
 ! A29   A(15,14,19)           117.1701         -DE/DX =    0.0                 !
 ! A30   A(14,15,16)           121.3642         -DE/DX =    0.0                 !
 ! A31   A(14,15,20)           119.2859         -DE/DX =    0.0                 !
 ! A32   A(16,15,20)           119.3474         -DE/DX =    0.0                 !
 ! A33   A(15,16,17)           120.4981         -DE/DX =    0.0                 !
 ! A34   A(15,16,21)           119.4963         -DE/DX =    0.0                 !
 ! A35   A(17,16,21)           119.999          -DE/DX =    0.0                 !
 ! A36   A(16,17,18)           119.0648         -DE/DX =    0.0                 !
 ! A37   A(16,17,22)           120.4483         -DE/DX =    0.0                 !
 ! A38   A(18,17,22)           120.4856         -DE/DX =    0.0                 !
 ! A39   A(17,18,19)           120.4288         -DE/DX =    0.0                 !
 ! A40   A(17,18,23)           120.0392         -DE/DX =    0.0                 !
 ! A41   A(19,18,23)           119.5193         -DE/DX =    0.0                 !
 ! A42   A(14,19,18)           121.4536         -DE/DX =    0.0                 !
 ! A43   A(14,19,24)           119.0837         -DE/DX =    0.0                 !
 ! A44   A(18,19,24)           119.4474         -DE/DX =    0.0                 !
 ! A45   A(2,25,26)            123.1841         -DE/DX =    0.0                 !
 ! A46   A(2,25,27)            117.528          -DE/DX =    0.0                 !
 ! A47   A(26,25,27)           119.1573         -DE/DX =    0.0                 !
 ! A48   A(25,26,28)           107.7659         -DE/DX =    0.0                 !
 ! A49   A(25,26,29)           111.308          -DE/DX =    0.0                 !
 ! A50   A(25,26,30)           111.8093         -DE/DX =    0.0                 !
 ! A51   A(28,26,29)           109.1235         -DE/DX =    0.0                 !
 ! A52   A(28,26,30)           108.2712         -DE/DX =    0.0                 !
 ! A53   A(29,26,30)           108.4873         -DE/DX =    0.0                 !
 ! D1    D(4,1,2,3)             24.1357         -DE/DX =    0.0                 !
 ! D2    D(4,1,2,25)          -157.1492         -DE/DX =    0.0                 !
 ! D3    D(14,1,2,3)          -146.6273         -DE/DX =    0.0                 !
 ! D4    D(14,1,2,25)           32.0878         -DE/DX =    0.0                 !
 ! D5    D(2,1,4,9)            -60.406          -DE/DX =    0.0                 !
 ! D6    D(2,1,4,12)          -171.7693         -DE/DX =    0.0                 !
 ! D7    D(2,1,4,13)            48.1425         -DE/DX =    0.0                 !
 ! D8    D(14,1,4,9)           110.6661         -DE/DX =    0.0                 !
 ! D9    D(14,1,4,12)           -0.6972         -DE/DX =    0.0                 !
 ! D10   D(14,1,4,13)         -140.7854         -DE/DX =    0.0                 !
 ! D11   D(2,1,14,15)           34.1137         -DE/DX =    0.0                 !
 ! D12   D(2,1,14,19)         -146.8839         -DE/DX =    0.0                 !
 ! D13   D(4,1,14,15)         -136.5105         -DE/DX =    0.0                 !
 ! D14   D(4,1,14,19)           42.4919         -DE/DX =    0.0                 !
 ! D15   D(1,2,3,11)            13.9919         -DE/DX =    0.0                 !
 ! D16   D(25,2,3,11)         -164.6722         -DE/DX =    0.0                 !
 ! D17   D(1,2,25,26)         -177.3687         -DE/DX =    0.0                 !
 ! D18   D(1,2,25,27)            6.8279         -DE/DX =    0.0                 !
 ! D19   D(3,2,25,26)            1.3558         -DE/DX =    0.0                 !
 ! D20   D(3,2,25,27)         -174.4476         -DE/DX =    0.0                 !
 ! D21   D(2,3,11,9)            -6.8976         -DE/DX =    0.0                 !
 ! D22   D(1,4,9,5)            -60.8373         -DE/DX =    0.0                 !
 ! D23   D(1,4,9,10)           167.6957         -DE/DX =    0.0                 !
 ! D24   D(1,4,9,11)            54.0237         -DE/DX =    0.0                 !
 ! D25   D(12,4,9,5)            62.6753         -DE/DX =    0.0                 !
 ! D26   D(12,4,9,10)          -68.7917         -DE/DX =    0.0                 !
 ! D27   D(12,4,9,11)          177.5363         -DE/DX =    0.0                 !
 ! D28   D(13,4,9,5)           172.5467         -DE/DX =    0.0                 !
 ! D29   D(13,4,9,10)           41.0797         -DE/DX =    0.0                 !
 ! D30   D(13,4,9,11)          -72.5923         -DE/DX =    0.0                 !
 ! D31   D(6,5,9,4)            158.1374         -DE/DX =    0.0                 !
 ! D32   D(6,5,9,10)           -70.8723         -DE/DX =    0.0                 !
 ! D33   D(6,5,9,11)            56.9942         -DE/DX =    0.0                 !
 ! D34   D(7,5,9,4)            -79.7396         -DE/DX =    0.0                 !
 ! D35   D(7,5,9,10)            51.2508         -DE/DX =    0.0                 !
 ! D36   D(7,5,9,11)           179.1172         -DE/DX =    0.0                 !
 ! D37   D(8,5,9,4)             38.4874         -DE/DX =    0.0                 !
 ! D38   D(8,5,9,10)           169.4778         -DE/DX =    0.0                 !
 ! D39   D(8,5,9,11)           -62.6558         -DE/DX =    0.0                 !
 ! D40   D(4,9,11,3)           -24.4931         -DE/DX =    0.0                 !
 ! D41   D(5,9,11,3)            89.2421         -DE/DX =    0.0                 !
 ! D42   D(10,9,11,3)         -140.832          -DE/DX =    0.0                 !
 ! D43   D(1,14,15,16)         178.7591         -DE/DX =    0.0                 !
 ! D44   D(1,14,15,20)          -0.6672         -DE/DX =    0.0                 !
 ! D45   D(19,14,15,16)         -0.2789         -DE/DX =    0.0                 !
 ! D46   D(19,14,15,20)       -179.7052         -DE/DX =    0.0                 !
 ! D47   D(1,14,19,18)        -177.626          -DE/DX =    0.0                 !
 ! D48   D(1,14,19,24)           3.8091         -DE/DX =    0.0                 !
 ! D49   D(15,14,19,18)          1.422          -DE/DX =    0.0                 !
 ! D50   D(15,14,19,24)       -177.143          -DE/DX =    0.0                 !
 ! D51   D(14,15,16,17)         -0.8058         -DE/DX =    0.0                 !
 ! D52   D(14,15,16,21)       -179.869          -DE/DX =    0.0                 !
 ! D53   D(20,15,16,17)        178.6202         -DE/DX =    0.0                 !
 ! D54   D(20,15,16,21)         -0.443          -DE/DX =    0.0                 !
 ! D55   D(15,16,17,18)          0.7616         -DE/DX =    0.0                 !
 ! D56   D(15,16,17,22)       -179.6414         -DE/DX =    0.0                 !
 ! D57   D(21,16,17,18)        179.8202         -DE/DX =    0.0                 !
 ! D58   D(21,16,17,22)         -0.5829         -DE/DX =    0.0                 !
 ! D59   D(16,17,18,19)          0.3695         -DE/DX =    0.0                 !
 ! D60   D(16,17,18,23)        179.0661         -DE/DX =    0.0                 !
 ! D61   D(22,17,18,19)       -179.2273         -DE/DX =    0.0                 !
 ! D62   D(22,17,18,23)         -0.5306         -DE/DX =    0.0                 !
 ! D63   D(17,18,19,14)         -1.4937         -DE/DX =    0.0                 !
 ! D64   D(17,18,19,24)        177.0662         -DE/DX =    0.0                 !
 ! D65   D(23,18,19,14)        179.8029         -DE/DX =    0.0                 !
 ! D66   D(23,18,19,24)         -1.6372         -DE/DX =    0.0                 !
 ! D67   D(2,25,26,28)           7.289          -DE/DX =    0.0                 !
 ! D68   D(2,25,26,29)         126.9077         -DE/DX =    0.0                 !
 ! D69   D(2,25,26,30)        -111.58           -DE/DX =    0.0                 !
 ! D70   D(27,25,26,28)       -176.9726         -DE/DX =    0.0                 !
 ! D71   D(27,25,26,29)        -57.3539         -DE/DX =    0.0                 !
 ! D72   D(27,25,26,30)         64.1583         -DE/DX =    0.0                 !
 --------------------------------------------------------------------------------
 GradGradGradGradGradGradGradGradGradGradGradGradGradGradGradGradGradGrad

                          Input orientation:                          
 ---------------------------------------------------------------------
 Center     Atomic      Atomic             Coordinates (Angstroms)
 Number     Number       Type             X           Y           Z
 ---------------------------------------------------------------------
      1          6           0        0.108220    0.096380   -0.095550
      2          6           0       -0.328110    1.500340    0.014910
      3          8           0       -1.338800    1.820310    0.651900
      4          6           0       -0.848920   -0.888310    0.068320
      5          6           0       -0.574630   -0.852090    2.893150
      6          1           0       -0.841830   -0.385250    3.854570
      7          1           0       -0.370350   -1.919120    3.060080
      8          1           0        0.346920   -0.376820    2.522250
      9          7           0       -1.598750   -0.686780    1.883630
     10          1           0       -2.445380   -1.229840    2.041900
     11          1           0       -1.826370    0.306730    1.711850
     12          1           0       -0.513010   -1.925950    0.124660
     13         35           0       -2.563860   -0.842760   -0.845630
     14          6           0        1.536320   -0.288700   -0.171590
     15          6           0        2.538080    0.426530    0.514910
     16          6           0        3.873920    0.039600    0.456130
     17          6           0        4.253730   -1.085170   -0.276880
     18          6           0        3.278820   -1.807130   -0.962920
     19          6           0        1.945040   -1.406100   -0.923120
     20          1           0        2.258540    1.297300    1.113030
     21          1           0        4.625340    0.615210    1.002210
     22          1           0        5.301130   -1.391350   -0.317670
     23          1           0        3.560660   -2.681650   -1.554340
     24          1           0        1.201160   -1.955440   -1.505750
     25          7           0        0.446150    2.440010   -0.594150
     26          6           0        0.173670    3.851900   -0.523570
     27          1           0        1.209760    2.113870   -1.171250
     28          1           0       -0.647180    3.999140    0.188930
     29          1           0        1.056460    4.413210   -0.178150
     30          1           0       -0.138840    4.257960   -1.499540
 ---------------------------------------------------------------------
                    Distance matrix (angstroms):
                    1          2          3          4          5
     1  C    0.000000
     2  C    1.474344   0.000000
     3  O    2.371599   1.236783   0.000000
     4  C    1.382962   2.445352   2.813747   0.000000
     5  C    3.209082   3.725448   3.570557   2.838347   0.000000
     6  H    4.091211   4.308404   3.920277   3.819530   1.101664
     7  H    3.774821   4.579034   4.551985   3.200348   1.099158
     8  H    2.670912   3.204083   3.341742   2.777306   1.101228
     9  N    2.728413   3.144858   2.805394   1.974388   1.447508
    10  H    3.584470   4.005671   3.529877   2.561317   2.089743
    11  H    2.655858   2.559120   1.911058   2.254932   2.074894
    12  H    2.127026   3.433030   3.872257   1.092111   2.970103
    13  Br   2.929951   3.351004   3.291703   1.943810   4.235044
    14  C    1.481060   2.590665   3.659559   2.471125   3.763795
    15  C    2.527030   3.101308   4.122085   3.660603   4.120662
    16  C    3.806320   4.470514   5.511960   4.828730   5.150124
    17  C    4.314417   5.269085   6.370309   5.118101   5.780699
    18  C    3.798471   4.990536   6.090023   4.352692   5.534479
    19  C    2.513210   3.807165   4.865595   3.009530   4.606472
    20  H    2.743492   2.817419   3.664292   3.940129   3.976878
    21  H    4.677460   5.127854   6.094748   5.753281   5.724361
    22  H    5.406384   6.337257   7.439321   6.182649   6.717494
    23  H    4.665283   5.922341   7.009982   5.029263   6.342561
    24  H    2.719034   4.073511   5.036183   2.796299   4.870435
    25  N    2.419793   1.361401   2.263342   3.632325   4.903180
    26  C    3.780399   2.464057   2.792249   4.885245   5.861864
    27  H    2.537871   2.036772   3.147255   3.845489   5.338569
    28  H    3.985360   2.525092   2.332376   4.893099   5.554503
    29  H    4.420521   3.230962   3.626208   5.638913   6.310049
    30  H    4.398974   3.151801   3.465651   5.426462   6.752648
                    6          7          8          9         10
     6  H    0.000000
     7  H    1.790605   0.000000
     8  H    1.785574   1.783936   0.000000
     9  N    2.132710   2.100396   2.071121   0.000000
    10  H    2.563294   2.411959   2.958939   1.018207   0.000000
    11  H    2.457520   2.981967   2.418094   1.033625   1.689128
    12  H    4.048964   2.938892   2.981228   2.410052   2.809703
    13  Br   5.026588   4.607017   4.475752   2.899074   2.915767
    14  C    4.677059   4.091131   2.946050   3.769756   4.651797
    15  C    4.820385   4.520943   3.078306   4.497357   5.469016
    16  C    5.828224   5.350791   4.108769   5.702236   6.637748
    17  C    6.597234   5.763063   4.857989   6.251243   7.090539
    18  C    6.496900   5.432634   4.773702   5.757493   6.490660
    19  C    5.624509   4.635742   3.934969   4.577523   5.300773
    20  H    4.467584   4.587747   2.905662   4.405574   5.419972
    21  H    6.247145   5.967795   4.647529   6.419609   7.381074
    22  H    7.493716   6.622192   5.799880   7.276708   8.099511
    23  H    7.342457   6.109596   5.679696   6.512961   7.149350
    24  H    5.947465   4.828847   4.409824   4.575685   5.139024
    25  N    5.425136   5.746484   4.201943   4.483060   5.364467
    26  C    6.176794   6.814923   5.214318   5.434676   6.266190
    27  H    5.976076   6.055238   4.537617   5.006362   5.904640
    28  H    5.718189   6.583763   5.057830   5.073001   5.831745
    29  H    6.549164   7.253987   5.544366   6.108271   7.002537
    30  H    7.121804   7.681149   6.155643   6.166655   6.926606
                   11         12         13         14         15
    11  H    0.000000
    12  H    3.037918   0.000000
    13  Br   2.899297   2.514110   0.000000
    14  C    3.899945   2.639717   4.191991   0.000000
    15  C    4.527189   3.872416   5.430650   1.409383   0.000000
    16  C    5.843073   4.818549   6.627077   2.442578   1.391991
    17  C    6.546759   4.856949   6.845566   2.833684   2.419840
    18  C    6.138873   3.946508   5.922894   2.442978   2.778833
    19  C    4.909214   2.722149   4.544616   1.407278   2.403780
    20  H    4.245740   4.364368   5.627766   2.165005   1.092763
    21  H    6.497947   5.799158   7.564707   3.425917   2.151677
    22  H    7.602873   5.855397   7.901757   3.925681   3.410619
    23  H    6.972697   4.470449   6.433781   3.425808   3.871466
    24  H    4.963497   2.365901   3.981104   2.161096   3.397676
    25  N    3.877224   4.527503   4.460940   2.968651   3.108100
    26  C    4.643866   5.854510   5.444045   4.373245   4.289759
    27  H    4.560275   4.579024   4.804987   2.622652   2.730327
    28  H    4.164573   5.926957   5.309235   4.825269   4.797467
    29  H    5.361528   6.537574   6.416967   4.726338   4.309193
    30  H    5.364047   6.404590   5.685566   5.024115   5.089574
                   16         17         18         19         20
    16  C    0.000000
    17  C    1.395230   0.000000
    18  C    2.403801   1.393674   0.000000
    19  C    2.777221   2.418816   1.393333   0.000000
    20  H    2.150065   3.404232   3.871437   3.398906   0.000000
    21  H    1.092777   2.159967   3.397438   3.869961   2.465618
    22  H    2.164096   1.091997   2.163090   3.410297   4.305008
    23  H    3.397841   2.158935   1.092702   2.153066   4.964113
    24  H    3.869471   3.403774   2.152517   1.092973   4.307712
    25  N    4.314471   5.198579   5.118419   4.140949   2.739527
    26  C    5.402341   6.409556   6.469900   5.562729   3.681185
    27  H    3.748161   4.505498   4.438316   3.604496   2.642851
    28  H    6.015787   7.077154   7.103028   6.096957   4.073955
    29  H    5.241074   6.361169   6.651870   5.933711   3.580648
    30  H    6.141779   7.024145   6.982383   6.062705   4.619357
                   21         22         23         24         25
    21  H    0.000000
    22  H    2.495007   0.000000
    23  H    4.305668   2.494687   0.000000
    24  H    4.962168   4.305750   2.469207   0.000000
    25  N    4.831551   6.190847   6.070712   4.552036   0.000000
    26  C    5.711526   7.336546   7.431115   5.978763   1.439674
    27  H    4.316955   5.454766   5.354484   4.083044   1.011193
    28  H    6.317584   8.043408   8.085658   6.461062   2.058998
    29  H    5.343684   7.192330   7.648657   6.507162   2.106906
    30  H    6.498138   7.931254   7.864318   6.356255   2.113501
                   26         27         28         29         30
    26  C    0.000000
    27  H    2.124552   0.000000
    28  H    1.096873   2.975325   0.000000
    29  H    1.101681   2.509325   1.791254   0.000000
    30  H    1.102300   2.554137   1.782226   1.788551   0.000000
 Stoichiometry    C11H15BrN2O
 Framework group  C1[X(C11H15BrN2O)]
 Deg. of freedom    84
 Full point group                 C1      NOp   1
 Largest Abelian subgroup         C1      NOp   1
 Largest concise Abelian subgroup C1      NOp   1
                         Standard orientation:                         
 ---------------------------------------------------------------------
 Center     Atomic      Atomic             Coordinates (Angstroms)
 Number     Number       Type             X           Y           Z
 ---------------------------------------------------------------------
      1          6           0        0.108219    0.096380   -0.095550
      2          6           0       -0.328110    1.500340    0.014910
      3          8           0       -1.338800    1.820311    0.651900
      4          6           0       -0.848922   -0.888309    0.068320
      5          6           0       -0.574632   -0.852090    2.893150
      6          1           0       -0.841831   -0.385249    3.854570
      7          1           0       -0.370352   -1.919120    3.060080
      8          1           0        0.346919   -0.376820    2.522250
      9          7           0       -1.598751   -0.686779    1.883630
     10          1           0       -2.445382   -1.229839    2.041900
     11          1           0       -1.826371    0.306731    1.711850
     12          1           0       -0.513012   -1.925950    0.124660
     13         35           0       -2.563862   -0.842759   -0.845630
     14          6           0        1.536319   -0.288701   -0.171590
     15          6           0        2.538079    0.426529    0.514910
     16          6           0        3.873919    0.039598    0.456130
     17          6           0        4.253728   -1.085172   -0.276880
     18          6           0        3.278818   -1.807132   -0.962920
     19          6           0        1.945038   -1.406101   -0.923120
     20          1           0        2.258540    1.297299    1.113030
     21          1           0        4.625339    0.615208    1.002210
     22          1           0        5.301128   -1.391353   -0.317670
     23          1           0        3.560658   -2.681652   -1.554340
     24          1           0        1.201158   -1.955441   -1.505750
     25          7           0        0.446150    2.440010   -0.594150
     26          6           0        0.173671    3.851900   -0.523570
     27          1           0        1.209760    2.113869   -1.171250
     28          1           0       -0.647179    3.999140    0.188930
     29          1           0        1.056461    4.413210   -0.178150
     30          1           0       -0.138839    4.257960   -1.499540
 ---------------------------------------------------------------------
 Rotational constants (GHZ):           0.5735211           0.3056106           0.2601469
 Rotating derivatives to standard orientation.
 Full mass-weighted force constant matrix:
 Low frequencies --- -486.9330   -0.0139   -0.0079    0.0163   25.1648   38.0100
 Low frequencies ---   43.2705   75.3996   92.8474
 ******    1 imaginary frequencies (negative Signs) ****** 
 Diagonal vibrational polarizability:
        0.0000000       0.0000000       0.0000000
 Harmonic frequencies (cm**-1), IR intensities (KM/Mole), Raman scattering
 activities (A**4/AMU), depolarization ratios for plane and unpolarized
 incident light, reduced masses (AMU), force constants (mDyne/A),
 and normal coordinates:
                      1                      2                      3
                      A                      A                      A
 Frequencies --   -486.9316                75.3085                91.9293
 Red. masses --      5.9539                 4.9718                 5.1166
 Frc consts  --      0.8317                 0.0166                 0.0255
 IR Inten    --      0.0000                 0.0000                 0.0000
  Atom  AN      X      Y      Z        X      Y      Z        X      Y      Z
     1   6     0.01   0.04   0.08     0.00  -0.02  -0.06     0.03  -0.05   0.15
     2   6     0.03  -0.04   0.04    -0.01  -0.03  -0.04     0.01  -0.05   0.09
     3   8    -0.03  -0.01   0.02     0.02  -0.04   0.00     0.04  -0.03   0.13
     4   6    -0.12   0.03   0.48    -0.00  -0.02  -0.06     0.00  -0.03   0.09
     5   6     0.01  -0.00  -0.11     0.19  -0.23  -0.11    -0.20  -0.08   0.11
     6   1    -0.23   0.01  -0.20     0.26  -0.28  -0.07    -0.25  -0.07   0.09
     7   1    -0.06  -0.01  -0.10     0.16  -0.25  -0.19    -0.23  -0.08   0.12
     8   1     0.05   0.01   0.03     0.19  -0.24  -0.13    -0.17  -0.09   0.16
     9   7     0.16   0.06  -0.34     0.13  -0.12  -0.04    -0.13  -0.06   0.04
    10   1     0.15  -0.01  -0.53     0.13  -0.11  -0.02    -0.14  -0.06  -0.03
    11   1     0.13   0.12  -0.22     0.15  -0.10   0.04    -0.11  -0.05   0.04
    12   1    -0.06   0.03   0.28    -0.02  -0.02  -0.12    -0.03  -0.05   0.08
    13  35    -0.01  -0.01  -0.01    -0.05   0.10   0.03     0.06   0.08  -0.02
    14   6    -0.02   0.00  -0.02     0.01  -0.01  -0.01     0.02  -0.04   0.07
    15   6     0.00  -0.01  -0.02    -0.02   0.03   0.01     0.05  -0.00  -0.01
    16   6    -0.00  -0.00  -0.01    -0.02   0.03   0.09     0.06   0.04  -0.11
    17   6     0.00  -0.01  -0.00     0.02   0.01   0.15     0.04   0.05  -0.13
    18   6    -0.00  -0.00   0.00     0.06  -0.02   0.13     0.01   0.01  -0.05
    19   6    -0.01  -0.01  -0.00     0.05  -0.03   0.06     0.00  -0.03   0.05
    20   1     0.00  -0.00  -0.02    -0.05   0.05  -0.03     0.06  -0.01   0.00
    21   1    -0.00  -0.00  -0.01    -0.05   0.06   0.10     0.08   0.06  -0.16
    22   1     0.00  -0.01  -0.00     0.03   0.02   0.20     0.05   0.07  -0.19
    23   1    -0.00  -0.01   0.01     0.09  -0.04   0.17    -0.00   0.01  -0.06
    24   1    -0.01  -0.02   0.01     0.08  -0.06   0.05    -0.02  -0.05   0.10
    25   7    -0.00  -0.00   0.02    -0.06  -0.02  -0.11    -0.06  -0.08  -0.05
    26   6    -0.01  -0.01   0.01    -0.10  -0.03  -0.15    -0.15  -0.09  -0.21
    27   1    -0.02   0.00   0.00    -0.08  -0.02  -0.12    -0.08  -0.11  -0.06
    28   1    -0.01  -0.00   0.00    -0.11  -0.03  -0.16    -0.17  -0.06  -0.25
[...]
 ,-0.08276763,-0.00120486,-0.00074299,-0.00072389,-0.00018704,-0.000319
 51,0.00050968,0.00044933,0.00040569,0.00013645,-0.00103761,-0.00100678
 ,0.00269269,0.09518107,0.13149685,0.00175588,0.00369428,-0.00188570,-0
 .00012392,-0.00076644,0.00053909,-0.00011001,0.00027764,-0.00001371,0.
 00008888,-0.00257770,0.00009230,0.00003743,-0.00008571,0.00003558,-0.0
 0003040,0.00001356,0.00000347,0.00000768,0.00003436,-0.00003732,-0.000
 03186,-0.00002329,0.00001720,0.00035655,0.00047454,-0.00066201,0.00006
 062,-0.00005028,-0.00013223,-0.00005340,0.00002201,0.00011268,0.000773
 92,0.00038153,-0.00078716,-0.00010173,0.00015426,-0.00011725,-0.015218
 26,-0.00773410,-0.00482396,0.00184220,-0.00560072,0.00313138,0.0001958
 5,0.00045439,-0.00010568,-0.00020636,-0.00352693,0.00522719,0.00295222
 ,0.00044904,0.00493294,-0.10014527,-0.08330579,-0.13489016,-0.00075341
 ,-0.00049070,-0.00035024,0.00005921,0.00049463,-0.00067823,0.00010965,
 -0.00004922,0.00012553,0.00034250,0.00273538,-0.00252035,0.10805703,0.
 09466151,0.13295995,0.01698584,-0.00578945,-0.00071186,-0.17354530,-0.
 06796566,0.08401670,-0.06372725,-0.03204090,0.06329361,0.00022301,0.00
 548879,-0.00023507,-0.00110105,-0.00018910,-0.00080964,0.00009625,0.00
 008797,0.00008472,0.00020782,-0.00019424,0.00023965,-0.00008821,0.0001
 3831,-0.00009059,0.00024839,-0.00224397,0.00072036,0.00019322,-0.00047
 875,0.00020144,0.00120692,0.00495776,-0.00287333,0.00066460,0.00056218
 ,-0.00028331,-0.00003696,-0.00003961,0.00009238,-0.00485680,0.00068523
 ,0.00219564,-0.00152987,0.00154464,-0.00523508,0.00172472,0.00021200,-
 0.00035342,0.00091852,0.00111721,0.00124282,-0.00209321,0.00036178,-0.
 00003510,0.00199232,-0.00194727,-0.00098875,-0.00097702,0.00168699,0.0
 0245591,0.00017452,-0.00001773,-0.00006793,-0.00007375,0.00011279,0.00
 017343,0.00002406,0.00003419,0.00002795,0.00005408,0.00033886,0.000216
 92,0.60236390,-0.02956706,-0.05212802,0.02083821,-0.05449209,-0.275544
 38,0.05137402,-0.02078671,0.03108176,0.01673317,0.02043168,-0.00087658
 ,-0.00727907,-0.00197866,0.00034787,-0.00139139,0.00032176,0.00001089,
 0.00060326,0.00014274,-0.00023868,0.00016207,0.00001679,-0.00005008,-0
 .00047930,-0.00397705,-0.00043174,0.00688971,0.00005159,0.00014342,0.0
 0099562,0.00107114,0.00038240,-0.00113247,-0.00225251,-0.00169342,-0.0
 0049957,-0.00316035,0.00041200,0.00003048,-0.00673830,-0.00100399,0.00
 266201,0.00416445,-0.00114055,-0.00056060,-0.00142067,0.00066941,0.000
 57717,0.00086581,-0.00107996,-0.00069178,0.00052411,0.00057560,0.00067
 637,0.00050370,-0.00038748,-0.00022664,0.00057773,-0.00048678,0.000833
 05,0.00035159,-0.00004274,0.00026974,0.00017864,0.00003939,-0.00006438
 ,0.00013000,-0.00013132,-0.00006262,-0.00007920,0.00038703,0.00029733,
 -0.04642185,0.79191210,0.00300493,0.00558810,0.01349067,0.08887264,0.0
 7353353,-0.12884451,0.05941579,0.01893600,-0.02198301,-0.00132256,-0.0
 0282720,0.00177416,0.00035675,0.00006628,0.00065968,-0.00004292,-0.000
 07626,-0.00004991,-0.00009793,0.00017916,-0.00013326,0.00004449,-0.000
 11959,0.00000029,0.00017995,0.00114285,-0.00057423,-0.00014819,0.00009
 443,-0.00018484,-0.00064730,-0.00300838,0.00198254,0.00003173,-0.00036
 059,-0.00082248,0.00013064,0.00050982,0.00037946,-0.00076305,0.0004186
 9,-0.00093894,-0.00179748,-0.00011571,-0.00205984,0.00088268,0.0004569
 2,-0.00014696,0.00005115,0.00043763,0.00051779,-0.00073950,0.00016533,
 -0.00000546,0.00020231,-0.00072476,0.00002783,-0.00056050,0.00127443,0
 .00119747,-0.00002902,0.00001121,-0.00012725,-0.00010352,0.00006711,0.
 00012968,-0.00003246,0.00010449,0.00000094,0.00013278,0.00018653,-0.00
 006270,-0.38612502,-0.02565658,0.37743199,-0.00146672,-0.00477467,0.00
 508248,0.01660707,-0.01849490,-0.01524250,-0.00439468,0.00174967,0.001
 26444,0.00307209,0.00005907,-0.00032056,-0.00015989,0.00004738,-0.0001
 5748,0.00004252,-0.00000484,0.00007942,0.00000801,-0.00001667,0.000014
 45,0.00000683,-0.00000855,-0.00005033,-0.00070557,-0.00002151,0.001011
 73,-0.00001356,0.00004938,0.00015262,0.00009579,-0.00017380,-0.0000746
 8,-0.00020940,-0.00028632,-0.00046984,-0.00071020,0.00007712,-0.000022
 98,-0.00072880,0.00018082,0.00007364,-0.00021067,0.00063292,0.00003785
 ,0.00029307,-0.00023476,-0.00018804,0.00013454,0.00022197,0.00021060,-
 0.00036691,-0.00003388,-0.00007885,0.00042337,-0.00040545,-0.00038478,
 -0.00003535,0.00013367,-0.00016859,-0.00004223,0.00001752,-0.00001547,
 0.00001738,-0.00000659,-0.00000566,0.00000579,-0.00002509,-0.00000961,
 -0.00000542,0.00000458,0.00002221,-0.11749670,0.03037046,0.03675890,0.
 63322061,0.00106157,0.00692929,-0.00040753,-0.01443588,-0.03931998,0.0
 1400871,0.01056703,-0.00291246,-0.00857213,-0.00487089,-0.00193824,0.0
 0293547,0.00060799,-0.00012069,0.00060202,-0.00009273,-0.00002261,-0.0
 0023453,-0.00006424,0.00010923,-0.00008035,0.00000716,-0.00002905,0.00
 016009,0.00134394,0.00054624,-0.00251194,-0.00006126,-0.00002324,-0.00
 029162,-0.00049378,-0.00083347,0.00079374,0.00027317,0.00016679,-0.000
 04034,0.00083578,0.00005375,-0.00006226,0.00099317,0.00039970,-0.00030
 383,-0.00099262,0.00015654,-0.00078713,0.00101301,-0.00003928,-0.00005
 256,-0.00014435,0.00053968,0.00044508,-0.00056656,-0.00017059,-0.00018
 159,0.00013993,-0.00026445,-0.00044567,0.00020693,0.00019516,0.0008618
 9,-0.00016355,-0.00000309,-0.00014375,-0.00012992,0.00005888,0.0000491
 5,-0.00006876,0.00008824,0.00005307,0.00004679,-0.00006167,-0.00002209
 ,0.03536490,-0.27587417,-0.00635911,0.01805136,0.57984615,0.00527409,0
 .00058120,0.00324267,-0.01851045,0.01568480,0.00537157,0.00197929,-0.0
 0360896,-0.00387340,-0.00003897,0.00179628,0.00096414,0.00006841,0.000
 01661,0.00004364,0.00000414,0.00001169,-0.00004418,-0.00000494,-0.0000
 0773,-0.00001061,0.00000356,-0.00000235,0.00002540,-0.00024705,-0.0002
 1617,0.00008717,-0.00003033,0.00004646,0.00008109,-0.00004221,-0.00004
 809,0.00009732,0.00038269,0.00023900,-0.00054995,-0.00039125,-0.000035
 73,-0.00007004,0.00049780,-0.00042528,-0.00007491,-0.00045901,0.000065
 14,0.00012959,0.00002165,-0.00009739,-0.00004934,-0.00008216,0.0000641
 0,0.00004982,-0.00003986,-0.00002005,-0.00005286,-0.00007544,0.0000747
 6,0.00001766,-0.00006559,0.00020911,-0.00019727,-0.00004966,0.00002756
 ,-0.00003594,0.00000805,-0.00001563,-0.00000025,-0.00000621,-0.0000175
 0,-0.00000476,-0.00000467,-0.00004846,-0.00003357,0.03649251,0.0016928
 9,-0.09263577,-0.02452787,-0.01139968,0.62013996,0.00021794,0.00266019
 ,-0.00240834,-0.01866315,0.00801616,0.00858781,0.00201922,-0.00311036,
 0.00445384,-0.00201658,-0.00069034,0.00113896,0.00033366,-0.00006575,0
 .00011070,-0.00006947,0.00000086,-0.00005359,-0.00000494,0.00003382,-0
 .00001146,-0.00001173,-0.00001134,0.00005495,0.00042051,-0.00002461,-0
 .00104719,0.00000737,-0.00007603,-0.00007732,0.00007128,0.00027340,-0.
 00002050,0.00007670,0.00008742,0.00015119,0.00017002,-0.00003994,-0.00
 019637,0.00237919,0.00058739,-0.00039418,-0.00067051,0.00030841,-0.000
 11674,-0.00060111,0.00019705,0.00010609,-0.00041723,-0.00017452,-0.000
 17516,0.00037984,-0.00008601,-0.00004077,-0.00030046,0.00045886,0.0001
 8970,0.00006825,0.00014767,-0.00055705,-0.00004828,0.00001907,-0.00003
 944,0.00001865,-0.00003619,-0.00001776,-0.00001052,-0.00003178,-0.0000
 0911,-0.00003812,-0.00015680,-0.00010843,-0.27399094,0.09024493,0.1975
 5744,0.00081343,-0.00095293,-0.00235263,0.28919238,-0.00052455,-0.0019
 2277,-0.00014420,-0.01993731,0.02267089,0.01436314,-0.00675974,-0.0053
 9220,0.00565331,-0.00041817,-0.00011356,0.00022612,-0.00004157,-0.0000
 5384,-0.00009145,0.00000340,0.00001650,-0.00002693,0.00001556,-0.00003
 329,0.00003496,-0.00003166,0.00005626,0.00001771,0.00039384,-0.0002715
 9,-0.00038191,0.00003856,-0.00006661,-0.00006128,0.00014016,0.00086062
 ,-0.00046006,-0.00002827,-0.00001693,0.00008684,0.00019525,-0.00003311
 ,-0.00000459,-0.00024574,-0.00174791,0.00142754,0.00088159,-0.00002926
 ,0.00097884,0.00036258,-0.00019739,-0.00004644,-0.00003612,0.00021126,
 0.00020502,-0.00022223,-0.00022298,-0.00012917,0.00047096,-0.00036447,
 -0.00065329,0.00004503,-0.00010112,-0.00024183,-0.00010232,-0.00001051
 ,-0.00004923,-0.00004474,0.00003048,-0.00002771,-0.00002758,0.00003666
 ,0.00002128,-0.00000313,-0.00000187,0.00006059,0.09583044,-0.13532706,
 -0.06652852,0.02714212,-0.00200642,-0.02207543,-0.09691949,0.13063630,
 -0.00108110,0.00120122,-0.00138270,0.00456546,-0.01175377,-0.01127993,
 0.00491188,0.00297486,0.00395263,0.00037818,-0.00037190,0.00019735,0.0
 0015413,0.00003666,0.00002679,-0.00002379,-0.00000265,-0.00000118,-0.0
 0001845,0.00000264,-0.00001830,-0.00000491,-0.00001251,0.00000212,-0.0
 0026494,0.00000645,-0.00007768,-0.00001999,-0.00000180,0.00007166,0.00
 013475,-0.00014007,0.00023762,-0.00013914,-0.00001560,0.00009573,-0.00
 025925,0.00004144,-0.00016841,0.00073489,-0.00008127,-0.00021470,0.000
 55589,0.00024960,0.00118157,-0.00141425,0.00041359,0.00047057,-0.00036
 569,-0.00097814,-0.00091879,0.00144313,-0.00010171,0.00004104,-0.00086
 695,0.00099784,0.00050620,-0.00004454,-0.00010026,-0.00146463,0.000002
 92,0.00002196,0.00005857,0.00007612,-0.00008395,-0.00005460,0.00003211
 ,-0.00008585,-0.00002037,-0.00008953,-0.00021748,-0.00008633,0.2014489
 4,-0.06117622,-0.16607988,-0.00511151,0.00111532,0.00084045,-0.2038236
 5,0.06709708,0.17396491,0.00001222,0.00046355,0.00000988,-0.00125207,-
 0.00122042,0.00229087,-0.00066808,-0.00423007,-0.00041008,-0.00029436,
 -0.00008245,0.00025478,0.00007634,-0.00000592,0.00004883,-0.00000133,0
 .00000316,-0.00002948,-0.00001222,-0.00000403,-0.00000726,-0.00001818,
 0.00001544,0.00002112,0.00006895,-0.00000995,-0.00021334,-0.00000094,-
 0.00001482,-0.00000871,0.00003180,-0.00000152,0.00001993,0.00001190,0.
 00000958,-0.00000828,0.00001833,-0.00000254,-0.00002406,0.00008062,0.0
 0007438,-0.00003603,-0.00003960,0.00008829,-0.00000490,0.00004482,-0.0
 0002316,-0.00002714,0.00000128,0.00002500,0.00001761,-0.00002432,-0.00
 001594,-0.00000524,-0.00000534,-0.00000015,-0.00003773,-0.00003319,0.0
 0000190,0.00005303,-0.00000765,-0.00000336,0.00000281,-0.00000546,-0.0
 0000108,0.00000108,-0.00000445,0.00000287,0.00000469,0.00000304,-0.000
 00604,-0.00000446,-0.00623596,0.00550117,0.00426367,-0.21085265,0.0287
 8198,0.12706170,0.00096838,0.00065978,-0.00044482,0.22583894,-0.000332
 24,0.00025505,0.00043763,0.00595149,0.00014012,-0.00452952,-0.00331451
 ,0.00101011,0.00244998,0.00002223,0.00002447,-0.00012018,0.00003685,0.
 00001196,0.00007708,-0.00000006,-0.00001251,-0.00000401,-0.00001054,0.
 00002229,-0.00001679,0.00001936,-0.00001697,-0.00000536,-0.00009029,0.
 00014229,0.00001883,-0.00003204,0.00003220,0.00002323,-0.00013694,-0.0
 0034937,0.00027930,0.00002835,0.00003162,-0.00002030,-0.00001908,0.000
 03111,0.00001788,0.00027095,0.00004958,-0.00007234,0.00001455,-0.00017
 562,0.00009294,-0.00014477,0.00005324,0.00007542,-0.00006333,-0.000096
 15,-0.00009083,0.00015151,0.00001068,0.00003364,-0.00021292,0.00016742
 ,0.00012799,0.00002271,0.00000636,-0.00008952,0.00000084,0.00000152,0.
 00000171,0.00000139,-0.00000168,-0.00000500,-0.00000413,0.00000136,0.0
 0000027,0.00000363,-0.00000552,-0.00002007,0.03515845,-0.01166784,-0.0
 2945201,0.01553195,-0.06658936,-0.01339247,-0.00078072,-0.00744500,0.0
 0082786,-0.03055736,0.07825160,-0.00012146,-0.00024148,-0.00003167,0.0
 0281497,0.00100749,-0.00006647,-0.00073028,0.00345679,-0.00094841,0.00
 027512,0.00004503,-0.00002179,0.00001168,0.00001163,0.00000597,0.00000
 373,0.00000640,-0.00001390,-0.00000552,-0.00001202,-0.00000605,-0.0000
 1118,0.00000714,0.00000312,-0.00005235,0.00001149,0.00002022,-0.000001
 65,0.00001036,0.00001540,0.00000077,0.00001025,0.00005793,-0.00003037,
 -0.00001052,-0.00000116,-0.00008161,0.00000708,-0.00002994,-0.00003053
 ,-0.00006378,0.00004032,0.00000518,0.00000969,0.00000537,-0.00002241,-
 0.00000353,-0.00001159,0.00000348,-0.00001230,-0.00000728,0.00001181,0
 .00000839,0.00000062,-0.00000060,0.00000740,0.00002092,-0.00002512,-0.
 00000624,0.00000209,0.00000487,-0.00000045,0.00000538,0.00000365,-0.00
 000260,-0.00000058,0.00000252,-0.00000143,-0.00000316,-0.00000090,-0.0
 0000048,0.00000069,0.00049174,-0.00330381,0.00004749,0.12772217,-0.025
 04441,-0.17748379,-0.00068220,0.00028636,0.00040359,-0.14325172,0.0239
 4386,0.18632609,-0.00032281,-0.00033753,-0.00054282,-0.00169226,0.0020
 8073,0.00113863,0.00097693,-0.00218394,0.00012455,0.00020541,0.0000851
 4,-0.00027866,-0.00009491,0.00000677,-0.00008203,0.00000553,0.00000310
 ,0.00003396,0.00001448,-0.00000924,0.00001367,0.00000613,-0.00000256,-
 0.00001911,-0.00003835,-0.00006027,0.00024026,0.00001737,0.00000476,-0
 .00000337,0.00003128,0.00012387,-0.00014175,-0.00001388,-0.00000920,0.
 00005069,0.00004394,-0.00002441,0.00004460,-0.00006064,0.00000927,-0.0
 0002333,0.00015983,-0.00018302,0.00013669,-0.00012950,0.00002962,0.000
 02169,0.00001454,-0.00006705,-0.00005823,0.00007601,0.00001823,0.00003
 083,-0.00000768,0.00004135,0.00005573,0.00002131,-0.00006573,-0.000120
 80,0.00002836,-0.00000311,0.00001966,0.00001287,-0.00000240,-0.0000066
 7,0.00000691,-0.00000658,-0.00000302,-0.00000560,0.00001605,0.00000996
 ,0.01571671,0.00674265,0.00431817,-0.23208948,-0.09650479,-0.06350713,
 0.00013302,-0.00103766,0.00025197,-0.01937238,-0.01173330,-0.01100358,
 0.24411836,-0.00055387,-0.00263895,0.00176481,0.00509195,0.00074068,-0
 .00912990,-0.00199741,0.00088337,0.00127845,0.00196249,0.00036095,-0.0
 0069382,-0.00023905,0.00003513,-0.00016629,0.00003457,0.00000234,0.000
 07284,0.00002152,-0.00002516,0.00002297,0.00000567,-0.00000473,-0.0000
 5880,-0.00043400,-0.00012649,0.00083085,0.00000732,0.00001681,0.000105
 03,0.00011311,0.00012775,-0.00017869,-0.00012184,-0.00012840,-0.000145
 74,-0.00035200,0.00001781,0.00003465,-0.00085183,0.00003671,0.00014850
 ,0.00037673,-0.00003872,-0.00014621,-0.00012379,0.00003376,0.00000049,
 0.00014229,-0.00006480,-0.00002843,-0.00002747,0.00007280,0.00005181,0
 .00016360,-0.00011823,-0.00000996,-0.00008340,-0.00008975,0.00004888,0
 .00006821,-0.00001200,0.00004119,0.00002017,0.00000171,-0.00000125,0.0
 0001897,-0.00001243,-0.00000564,-0.00000095,0.00005532,0.00003205,-0.0
 3231720,-0.03564705,-0.00425228,-0.09020178,-0.11360915,-0.03571734,-0
 .00003813,0.00048042,-0.00017728,0.00357372,0.00356678,0.00368235,0.10
 665623,0.13809642,-0.00003410,-0.00021263,0.00016255,0.00231307,0.0010
 1889,-0.00172715,-0.00086066,0.00147032,0.00005096,0.00009853,0.000059
 38,-0.00011299,-0.00000845,0.00001176,0.00000398,0.00000713,-0.0000000
 1,0.00000027,-0.00000352,-0.00000602,-0.00000177,-0.00000305,0.0000069
 2,-0.00000018,-0.00003906,-0.00000673,0.00005199,-0.00000728,0.0000030
 1,0.00001446,-0.00000100,-0.00002462,0.00003749,-0.00000018,0.00000137
 ,0.00000578,-0.00001101,0.00000472,0.00001700,-0.00003123,-0.00000533,
 0.00001815,0.00004332,0.00005430,0.00006566,-0.00002864,-0.00002282,-0
 .00002383,0.00002576,-0.00001496,-0.00001859,0.00001467,0.00000295,0.0
 0000250,-0.00000717,0.00000748,-0.00000687,-0.00001113,-0.00001421,-0.
 00005112,0.00000771,-0.00000443,0.00002333,0.00000649,-0.00000552,-0.0
 0000392,0.00000119,-0.00000268,0.00000004,-0.00000263,0.00000037,0.000
 00569,0.00186293,-0.00349537,0.00428680,-0.06466552,-0.03623303,-0.091
 27035,-0.00037937,-0.00046022,-0.00028528,0.01852708,0.01282126,0.0116
 1719,0.07256955,0.04045293,0.08688754,0.00033738,0.00046025,0.00010433
 ,-0.00291990,-0.00109897,0.00196860,0.00071409,-0.00094995,-0.00148454
 ,-0.00024876,-0.00000957,0.00019999,0.00002915,-0.00000877,0.00003163,
 -0.00000657,-0.00000034,-0.00001243,-0.00000236,0.00000588,-0.00000368
 ,-0.00000078,-0.00000229,0.00000501,0.00005289,-0.00001657,-0.00012757
 ,-0.00000297,-0.00000897,-0.00000314,-0.00000533,-0.00002468,0.0000290
 1,0.00002089,0.00000930,-0.00001803,0.00001231,-0.00000225,-0.00001190
 ,0.00009118,-0.00001870,-0.00001428,-0.00003927,-0.00007044,-0.0000393
 7,0.00002865,-0.00000499,-0.00000745,-0.00000640,0.00002666,0.00002795
 ,-0.00002922,0.00000045,-0.00000698,0.00000707,0.00000234,0.00001312,-
 0.00000859,-0.00002453,0.00002852,0.00000664,-0.00000441,-0.00000497,-
 0.00000780,0.00000609,0.00000048,-0.00000236,0.00000919,0.00000227,0.0
 0000354,0.00000180,-0.00000123,0.00295814,0.00868348,-0.00379457,-0.08
 525225,0.02024755,-0.06135847,-0.00042678,0.00020102,-0.00071786,0.011
 67157,-0.00978201,0.02469979,-0.00776149,0.00908617,-0.02938344,0.0807
 8736,-0.00208649,-0.00189055,-0.00066065,0.01051988,0.00151875,-0.0022
 8043,-0.00244361,0.00121705,0.00199780,0.00165848,0.00001277,-0.000895
 82,-0.00015533,0.00002763,-0.00015483,0.00002204,0.00000382,0.00005632
 ,0.00001412,-0.00002801,0.00001902,-0.00000386,0.00000783,-0.00004376,
 -0.00034619,-0.00007144,0.00059649,0.00001720,0.00000538,0.00008160,0.
 00012722,0.00017527,-0.00018042,-0.00021509,-0.00011732,0.00013247,-0.
 00022838,0.00002159,-0.00002896,-0.00045241,0.00009000,0.00012361,0.00
 033299,0.00001191,0.00012757,-0.00021278,0.00003313,0.00003184,0.00005
 219,-0.00013308,-0.00011240,0.00012668,0.00003137,0.00004136,0.0000237
 9,0.00003780,0.00005696,-0.00004009,-0.00009259,-0.00013457,0.00003951
 ,-0.00000352,0.00003323,0.00002734,-0.00001149,-0.00000934,0.00001986,
 -0.00002377,-0.00000953,-0.00001717,0.00000910,0.00001595,0.00596324,-
 0.03221001,0.03630845,0.02041886,-0.08527175,0.06661865,0.00015971,0.0
 0035850,0.00031395,-0.00302200,0.00255025,-0.00380865,-0.00358697,0.00
 798708,-0.01540707,-0.02671275,0.10575432,-0.00006096,0.00050586,-0.00
 043382,-0.00032363,-0.00194195,-0.00001694,0.00026154,0.00133997,0.000
 43102,-0.00062939,-0.00026730,0.00008163,0.00002146,-0.00001809,0.0000
 4520,-0.00001020,-0.00000937,-0.00000120,-0.00000037,0.00002328,-0.000
 00332,0.00001577,-0.00001376,0.00000269,0.00016531,0.00011467,-0.00016
 587,-0.00000501,0.00000216,-0.00004999,-0.00009291,-0.00012654,0.00006
 865,0.00003732,0.00001546,0.00004674,0.00018878,0.00000409,0.00004627,
 0.00009412,0.00006195,-0.00003299,-0.00000764,-0.00009379,-0.00006708,
 0.00005415,0.00002323,0.00001854,-0.00000670,0.00002669,0.00002277,-0.
 00002178,-0.00000379,0.00000239,-0.00002176,-0.00000462,-0.00001396,0.
 00003507,-0.00002826,0.00006892,0.00000189,-0.00000823,-0.00000722,-0.
 00001670,0.00001169,0.00000271,-0.00000817,0.00001684,0.00000788,0.000
 00879,0.00000817,0.00000290,0.00255144,0.00138471,0.01272224,-0.060936
 28,0.07214900,-0.26470346,0.00016058,0.00092347,0.00000198,-0.00806382
 ,0.00658950,-0.01994661,-0.00327012,0.00214383,-0.00974934,0.06987922,
 -0.08282885,0.28161929\\0.00000089,-0.00000670,-0.00000147,-0.00001361
 ,0.00000527,0.00000909,0.00000818,-0.00000383,-0.00000605,-0.00000209,
 0.00000336,0.00000122,-0.00000067,0.00000018,-0.00000312,0.00000034,-0
 .00000087,0.00000118,0.00000136,-0.00000069,0.00000125,0.00000134,-0.0
 0000040,-0.00000098,0.00000015,-0.00000590,0.00000384,0.00000364,0.000
 00038,0.00000031,-0.00000069,0.00000190,-0.00000107,0.00000181,-0.0000
 0160,0.00000037,0.00000085,-0.00000075,0.00000108,-0.00000038,0.000002
 91,0.00000214,0.00000064,0.00000223,0.00000144,0.00000208,-0.00000245,
 -0.00000434,-0.00000848,-0.00000225,-0.00000369,0.00000870,0.00000727,
 0.00000510,-0.00000567,-0.00000456,-0.00000563,0.00000029,-0.00000096,
 -0.00000035,0.00000106,0.00000212,0.00000029,0.00000139,0.00000169,-0.
 00000115,0.00000007,0.00000020,-0.00000203,0.00000064,0.00000114,0.000
 00072,0.00000495,0.00000264,-0.00000507,0.00000638,0.00000137,0.000000
 44,-0.00000240,0.00000078,0.00000417,-0.00001167,-0.00000136,-0.000003
 99,-0.00000747,-0.00000366,0.00000820,0.00000836,0.00000255,-0.0000018
 7\\\@
 The archive entry for this job was punched.


 WHAT THE SLIME CONTAINS, THE GLOWING REVEALS
 BY THE FLAME'S BRIGHT HUE WHEN YOU IGNITE IT.
   --  LEONARD THURNEYSSER, 1531-1596
 DESCRIBING HIS FLAME PHOTOLYSIS ANALYTIC METHOD
 Job cpu time:       0 days  0 hours 22 minutes  0.2 seconds.
 Elapsed time:       0 days  0 hours  3 minutes 48.0 seconds.
 File lengths (MBytes):  RWF=      6 Int=      0 D2E=      0 Chk=      2 Scr=      1
 Normal termination of Gaussian 16 at Sat Jan 20 05:59:50 2024.
