Unloading slurm/anatra/current
  ERROR: No such file or directory on
    '/cm/local/modulefiles/slurm/anatra/current'
environment: line 0: unalias: gv: not found
environment: line 0: unalias: sl: not found
 Entering Gaussian System, Link 0=g16
 Initial command:
 /apps/gaussian/g16/C.01/g16/l1.exe "/local/jobs/1158399/Gau-871850.inp" -scrdir="/local/jobs/1158399/"
 Entering Link 1 = /apps/gaussian/g16/C.01/g16/l1.exe PID=    871853.
  
 Copyright (c) 1988-2019, Gaussian, Inc.  All Rights Reserved.
  
 This is part of the Gaussian(R) 16 program.  It is based on
 the Gaussian(R) 09 system (copyright 2009, Gaussian, Inc.),
 the Gaussian(R) 03 system (copyright 2003, Gaussian, Inc.),
 the Gaussian(R) 98 system (copyright 1998, Gaussian, Inc.),
 the Gaussian(R) 94 system (copyright 1995, Gaussian, Inc.),
 the Gaussian 92(TM) system (copyright 1992, Gaussian, Inc.),
 the Gaussian 90(TM) system (copyright 1990, Gaussian, Inc.),
 the Gaussian 88(TM) system (copyright 1988, Gaussian, Inc.),
 the Gaussian 86(TM) system (copyright 1986, Carnegie Mellon
 University), and the Gaussian 82(TM) system (copyright 1983,
 Carnegie Mellon University). Gaussian is a federally registered
 trademark of Gaussian, Inc.
  
 This software contains proprietary and confidential information,
 including trade secrets, belonging to Gaussian, Inc.
  
 This software is provided under written license and may be
 used, copied, transmitted, or stored only in accord with that
 written license.
  
 The following legend is applicable only to US Government
 contracts under FAR:
  
                    RESTRICTED RIGHTS LEGEND
  
 Use, reproduction and disclosure by the US Government is
 subject to restrictions as set forth in subparagraphs (a)
 and (c) of the Commercial Computer Software - Restricted
 Rights clause in FAR 52.227-19.
  
 Gaussian, Inc.
 340 Quinnipiac St., Bldg. 40, Wallingford CT 06492
  
  
 ---------------------------------------------------------------
 Warning -- This program may not be used in any manner that
 competes with the business of Gaussian, Inc. or will provide
 assistance to any competitor of Gaussian, Inc.  The licensee
 of this program is prohibited from giving any competitor of
 Gaussian, Inc. access to this program.  By using this program,
 the user acknowledges that Gaussian, Inc. is engaged in the
 business of creating and licensing software in the field of
 computational chemistry and represents and warrants to the
 licensee that it is not a competitor of Gaussian, Inc. and that
 it will not use this program in any manner prohibited above.
 ---------------------------------------------------------------
  

 Cite this work as:
 Gaussian 16, Revision C.01,
 M. J. Frisch, G. W. Trucks, H. B. Schlegel, G. E. Scuseria, 
 M. A. Robb, J. R. Cheeseman, G. Scalmani, V. Barone, 
 G. A. Petersson, H. Nakatsuji, X. Li, M. Caricato, A. V. Marenich, 
 J. Bloino, B. G. Janesko, R. Gomperts, B. Mennucci, H. P. Hratchian, 
 J. V. Ortiz, A. F. Izmaylov, J. L. Sonnenberg, D. Williams-Young, 
 F. Ding, F. Lipparini, F. Egidi, J. Goings, B. Peng, A. Petrone, 
 T. Henderson, D. Ranasinghe, V. G. Zakrzewski, J. Gao, N. Rega, 
 G. Zheng, W. Liang, M. Hada, M. Ehara, K. Toyota, R. Fukuda, 
 J. Hasegawa, M. Ishida, T. Nakajima, Y. Honda, O. Kitao, H. Nakai, 
 T. Vreven, K. Throssell, J. A. Montgomery, Jr., J. E. Peralta, 
 F. Ogliaro, M. J. Bearpark, J. J. Heyd, E. N. Brothers, K. N. Kudin, 
 V. N. Staroverov, T. A. Keith, R. Kobayashi, J. Normand, 
 K. Raghavachari, A. P. Rendell, J. C. Burant, S. S. Iyengar, 
 J. Tomasi, M. Cossi, J. M. Millam, M. Klene, C. Adamo, R. Cammi, 
 J. W. Ochterski, R. L. Martin, K. Morokuma, O. Farkas, 
 J. B. Foresman, and D. J. Fox, Gaussian, Inc., Wallingford CT, 2019.
 
 ******************************************
 Gaussian 16:  ES64L-G16RevC.01  3-Jul-2019
                20-Jan-2024 
 ******************************************
 %nprocshared=12
 Will use up to   12 processors via shared memory.
 %mem=48GB
 ----------------------------------------------------------------------
 # external="~/scripts/MiMe -H 'hf 6-31g(d)' -EF 'wb97xd def2svp' -c 12
  -m 48GB" opt=(calcall,ts,noeigen,maxcycles=50,maxstep=10,nomicro)
 ----------------------------------------------------------------------
 1/5=1,6=50,8=10,10=4,11=1,18=20,26=1,38=1/1,3;
 2/9=110,12=2,17=6,18=5,40=1/2;
 3/11=9,25=1,30=1,41=9900000,43=2,71=2,140=1/1;
 4/20=17,22=2,24=3,113=1,114=1/2;
 6/7=2,8=2,9=2,10=2,18=1/1;
 7/25=1,44=-1/16;
 1/5=1,6=50,8=10,10=4,11=1,18=20,26=1/3(3);
 2/9=110/2;
 7/8=1,9=1,25=1,44=-1/16;
 99//99;
 2/9=110/2;
 3/11=9,25=1,30=1,41=9900000,43=2,71=2,140=1/1;
 4/16=2,20=17,22=2,24=3,113=1,114=1/2;
 7/25=1,44=-1/16;
 1/5=1,6=50,8=10,10=4,11=1,18=20,26=1/3(-4);
 2/9=110/2;
 6/7=2,8=2,9=2,10=2,18=1/1;
 7/8=1,9=1,25=1,44=-1/16;
 99//99;
 --------------
 TS-68_hf_1.out
 --------------
 Symbolic Z-matrix:
 Charge =  0 Multiplicity = 1
 C                    -0.80268  -0.06557  -0.1349 
 C                    -2.00255  -0.71618  -0.51948 
 O                    -2.18494  -1.93686  -0.46177 
 C                     0.28674  -0.86285   0.38713 
 C                    -1.01166  -1.41592   2.54774 
 H                    -0.78556  -2.0627    3.40369 
 H                    -1.66502  -0.59687   2.86623 
 H                    -1.52142  -1.97853   1.75296 
 N                     0.25268  -0.8574    1.99862 
 H                     0.33051   0.13442   2.24626 
 H                     1.08166  -1.32381   2.37762 
 C                     1.71385  -0.55771  -0.0128 
 C                     2.4717    0.47753   0.54667 
 C                     3.77376   0.72276   0.11017 
 C                     4.33427  -0.05756  -0.89768 
 C                     3.58477  -1.08682  -1.46776 
 C                     2.28891  -1.33519  -1.02549 
 H                     2.04616   1.13202   1.31163 
 H                     4.34715   1.53888   0.55502 
 H                     5.3519    0.13797  -1.24217 
 H                     4.01325  -1.70223  -2.26169 
 H                     1.70236  -2.13787  -1.47968 
 H                     0.04432  -1.90739   0.14589 
 Br                   -0.70596   1.82519   0.0936 
 O                    -2.97683   0.10736  -0.97107 
 C                    -4.17417  -0.51486  -1.37245 
 H                    -4.84949   0.29071  -1.6872 
 H                    -4.00781  -1.20949  -2.21015 
 H                    -4.63164  -1.0849   -0.54875 
 

 GradGradGradGradGradGradGradGradGradGradGradGradGradGradGradGradGradGrad
 Berny optimization.
 Initialization pass.
                           ----------------------------
                           !    Initial Parameters    !
                           ! (Angstroms and Degrees)  !
 --------------------------                            --------------------------
 ! Name  Definition              Value          Derivative Info.                !
 --------------------------------------------------------------------------------
 ! R1    R(1,2)                  1.4181         calculate D2E/DX2 analytically  !
 ! R2    R(1,4)                  1.4474         calculate D2E/DX2 analytically  !
 ! R3    R(1,24)                 1.907          calculate D2E/DX2 analytically  !
 ! R4    R(2,3)                  1.2356         calculate D2E/DX2 analytically  !
 ! R5    R(2,25)                 1.3533         calculate D2E/DX2 analytically  !
 ! R6    R(4,9)                  1.6119         calculate D2E/DX2 analytically  !
 ! R7    R(4,12)                 1.5132         calculate D2E/DX2 analytically  !
 ! R8    R(4,23)                 1.0991         calculate D2E/DX2 analytically  !
 ! R9    R(5,6)                  1.0964         calculate D2E/DX2 analytically  !
 ! R10   R(5,7)                  1.0951         calculate D2E/DX2 analytically  !
 ! R11   R(5,8)                  1.0991         calculate D2E/DX2 analytically  !
 ! R12   R(5,9)                  1.4873         calculate D2E/DX2 analytically  !
 ! R13   R(9,10)                 1.0252         calculate D2E/DX2 analytically  !
 ! R14   R(9,11)                 1.0239         calculate D2E/DX2 analytically  !
 ! R15   R(12,13)                1.3997         calculate D2E/DX2 analytically  !
 ! R16   R(12,17)                1.4003         calculate D2E/DX2 analytically  !
 ! R17   R(13,14)                1.395          calculate D2E/DX2 analytically  !
 ! R18   R(13,18)                1.093          calculate D2E/DX2 analytically  !
 ! R19   R(14,15)                1.3924         calculate D2E/DX2 analytically  !
 ! R20   R(14,19)                1.0921         calculate D2E/DX2 analytically  !
 ! R21   R(15,16)                1.395          calculate D2E/DX2 analytically  !
 ! R22   R(15,20)                1.092          calculate D2E/DX2 analytically  !
 ! R23   R(16,17)                1.3916         calculate D2E/DX2 analytically  !
 ! R24   R(16,21)                1.0921         calculate D2E/DX2 analytically  !
 ! R25   R(17,22)                1.093          calculate D2E/DX2 analytically  !
 ! R26   R(25,26)                1.4078         calculate D2E/DX2 analytically  !
 ! R27   R(26,27)                1.0973         calculate D2E/DX2 analytically  !
 ! R28   R(26,28)                1.1009         calculate D2E/DX2 analytically  !
 ! R29   R(26,29)                1.1012         calculate D2E/DX2 analytically  !
 ! A1    A(2,1,4)              118.8127         calculate D2E/DX2 analytically  !
 ! A2    A(2,1,24)             122.0268         calculate D2E/DX2 analytically  !
 ! A3    A(4,1,24)             117.6945         calculate D2E/DX2 analytically  !
 ! A4    A(1,2,3)              124.4375         calculate D2E/DX2 analytically  !
 ! A5    A(1,2,25)             114.8637         calculate D2E/DX2 analytically  !
 ! A6    A(3,2,25)             120.6987         calculate D2E/DX2 analytically  !
 ! A7    A(1,4,9)              110.0484         calculate D2E/DX2 analytically  !
 ! A8    A(1,4,12)             120.2289         calculate D2E/DX2 analytically  !
 ! A9    A(1,4,23)             106.1597         calculate D2E/DX2 analytically  !
 ! A10   A(9,4,12)             106.4683         calculate D2E/DX2 analytically  !
 ! A11   A(9,4,23)             102.591          calculate D2E/DX2 analytically  !
 ! A12   A(12,4,23)            109.9775         calculate D2E/DX2 analytically  !
 ! A13   A(6,5,7)              109.7067         calculate D2E/DX2 analytically  !
 ! A14   A(6,5,8)              110.99           calculate D2E/DX2 analytically  !
 ! A15   A(6,5,9)              109.5397         calculate D2E/DX2 analytically  !
 ! A16   A(7,5,8)              108.4483         calculate D2E/DX2 analytically  !
 ! A17   A(7,5,9)              109.494          calculate D2E/DX2 analytically  !
 ! A18   A(8,5,9)              108.6334         calculate D2E/DX2 analytically  !
 ! A19   A(4,9,5)              112.6945         calculate D2E/DX2 analytically  !
 ! A20   A(4,9,10)             104.073          calculate D2E/DX2 analytically  !
 ! A21   A(4,9,11)             110.574          calculate D2E/DX2 analytically  !
 ! A22   A(5,9,10)             109.7944         calculate D2E/DX2 analytically  !
 ! A23   A(5,9,11)             112.3668         calculate D2E/DX2 analytically  !
 ! A24   A(10,9,11)            106.8463         calculate D2E/DX2 analytically  !
 ! A25   A(4,12,13)            123.653          calculate D2E/DX2 analytically  !
 ! A26   A(4,12,17)            117.8075         calculate D2E/DX2 analytically  !
 ! A27   A(13,12,17)           118.5153         calculate D2E/DX2 analytically  !
 ! A28   A(12,13,14)           120.6855         calculate D2E/DX2 analytically  !
 ! A29   A(12,13,18)           120.7871         calculate D2E/DX2 analytically  !
 ! A30   A(14,13,18)           118.4981         calculate D2E/DX2 analytically  !
 ! A31   A(13,14,15)           120.2446         calculate D2E/DX2 analytically  !
 ! A32   A(13,14,19)           119.6011         calculate D2E/DX2 analytically  !
 ! A33   A(15,14,19)           120.1499         calculate D2E/DX2 analytically  !
 ! A34   A(14,15,16)           119.5368         calculate D2E/DX2 analytically  !
 ! A35   A(14,15,20)           120.2067         calculate D2E/DX2 analytically  !
 ! A36   A(16,15,20)           120.256          calculate D2E/DX2 analytically  !
 ! A37   A(15,16,17)           120.1396         calculate D2E/DX2 analytically  !
 ! A38   A(15,16,21)           120.1359         calculate D2E/DX2 analytically  !
 ! A39   A(17,16,21)           119.7244         calculate D2E/DX2 analytically  !
 ! A40   A(12,17,16)           120.8759         calculate D2E/DX2 analytically  !
 ! A41   A(12,17,22)           119.203          calculate D2E/DX2 analytically  !
 ! A42   A(16,17,22)           119.9162         calculate D2E/DX2 analytically  !
 ! A43   A(2,25,26)            116.0074         calculate D2E/DX2 analytically  !
 ! A44   A(25,26,27)           106.3044         calculate D2E/DX2 analytically  !
 ! A45   A(25,26,28)           111.5498         calculate D2E/DX2 analytically  !
 ! A46   A(25,26,29)           111.6443         calculate D2E/DX2 analytically  !
 ! A47   A(27,26,28)           109.7527         calculate D2E/DX2 analytically  !
 ! A48   A(27,26,29)           109.8103         calculate D2E/DX2 analytically  !
 ! A49   A(28,26,29)           107.7778         calculate D2E/DX2 analytically  !
 ! D1    D(4,1,2,3)             -1.2252         calculate D2E/DX2 analytically  !
 ! D2    D(4,1,2,25)           178.7454         calculate D2E/DX2 analytically  !
 ! D3    D(24,1,2,3)          -167.0874         calculate D2E/DX2 analytically  !
 ! D4    D(24,1,2,25)           12.8832         calculate D2E/DX2 analytically  !
 ! D5    D(2,1,4,9)            -96.2489         calculate D2E/DX2 analytically  !
 ! D6    D(2,1,4,12)           139.5635         calculate D2E/DX2 analytically  !
 ! D7    D(2,1,4,23)            14.0758         calculate D2E/DX2 analytically  !
 ! D8    D(24,1,4,9)            70.2259         calculate D2E/DX2 analytically  !
 ! D9    D(24,1,4,12)          -53.9617         calculate D2E/DX2 analytically  !
 ! D10   D(24,1,4,23)         -179.4493         calculate D2E/DX2 analytically  !
 ! D11   D(1,2,25,26)          179.3745         calculate D2E/DX2 analytically  !
 ! D12   D(3,2,25,26)           -0.6537         calculate D2E/DX2 analytically  !
 ! D13   D(1,4,9,5)             60.095          calculate D2E/DX2 analytically  !
 ! D14   D(1,4,9,10)           -58.8034         calculate D2E/DX2 analytically  !
 ! D15   D(1,4,9,11)          -173.2108         calculate D2E/DX2 analytically  !
 ! D16   D(12,4,9,5)          -168.0894         calculate D2E/DX2 analytically  !
 ! D17   D(12,4,9,10)           73.0122         calculate D2E/DX2 analytically  !
 ! D18   D(12,4,9,11)          -41.3952         calculate D2E/DX2 analytically  !
 ! D19   D(23,4,9,5)           -52.5537         calculate D2E/DX2 analytically  !
 ! D20   D(23,4,9,10)         -171.4521         calculate D2E/DX2 analytically  !
 ! D21   D(23,4,9,11)           74.1405         calculate D2E/DX2 analytically  !
 ! D22   D(1,4,12,13)           79.2044         calculate D2E/DX2 analytically  !
 ! D23   D(1,4,12,17)          -98.9769         calculate D2E/DX2 analytically  !
 ! D24   D(9,4,12,13)          -46.6685         calculate D2E/DX2 analytically  !
 ! D25   D(9,4,12,17)          135.1502         calculate D2E/DX2 analytically  !
 ! D26   D(23,4,12,13)        -157.115          calculate D2E/DX2 analytically  !
 ! D27   D(23,4,12,17)          24.7037         calculate D2E/DX2 analytically  !
 ! D28   D(6,5,9,4)            137.9012         calculate D2E/DX2 analytically  !
 ! D29   D(6,5,9,10)          -106.5913         calculate D2E/DX2 analytically  !
 ! D30   D(6,5,9,11)            12.1701         calculate D2E/DX2 analytically  !
 ! D31   D(7,5,9,4)           -101.7538         calculate D2E/DX2 analytically  !
 ! D32   D(7,5,9,10)            13.7537         calculate D2E/DX2 analytically  !
 ! D33   D(7,5,9,11)           132.5151         calculate D2E/DX2 analytically  !
 ! D34   D(8,5,9,4)             16.5162         calculate D2E/DX2 analytically  !
 ! D35   D(8,5,9,10)           132.0237         calculate D2E/DX2 analytically  !
 ! D36   D(8,5,9,11)          -109.215          calculate D2E/DX2 analytically  !
 ! D37   D(4,12,13,14)        -178.5722         calculate D2E/DX2 analytically  !
 ! D38   D(4,12,13,18)          -0.5712         calculate D2E/DX2 analytically  !
 ! D39   D(17,12,13,14)         -0.403          calculate D2E/DX2 analytically  !
 ! D40   D(17,12,13,18)        177.598          calculate D2E/DX2 analytically  !
 ! D41   D(4,12,17,16)         178.2902         calculate D2E/DX2 analytically  !
 ! D42   D(4,12,17,22)          -0.9027         calculate D2E/DX2 analytically  !
 ! D43   D(13,12,17,16)          0.0131         calculate D2E/DX2 analytically  !
 ! D44   D(13,12,17,22)       -179.1798         calculate D2E/DX2 analytically  !
 ! D45   D(12,13,14,15)          0.4104         calculate D2E/DX2 analytically  !
 ! D46   D(12,13,14,19)        179.6495         calculate D2E/DX2 analytically  !
 ! D47   D(18,13,14,15)       -177.6355         calculate D2E/DX2 analytically  !
 ! D48   D(18,13,14,19)          1.6036         calculate D2E/DX2 analytically  !
 ! D49   D(13,14,15,16)         -0.0212         calculate D2E/DX2 analytically  !
 ! D50   D(13,14,15,20)        179.7111         calculate D2E/DX2 analytically  !
 ! D51   D(19,14,15,16)       -179.256          calculate D2E/DX2 analytically  !
 ! D52   D(19,14,15,20)          0.4762         calculate D2E/DX2 analytically  !
 ! D53   D(14,15,16,17)         -0.3662         calculate D2E/DX2 analytically  !
 ! D54   D(14,15,16,21)        179.7499         calculate D2E/DX2 analytically  !
 ! D55   D(20,15,16,17)        179.9017         calculate D2E/DX2 analytically  !
 ! D56   D(20,15,16,21)          0.0178         calculate D2E/DX2 analytically  !
 ! D57   D(15,16,17,12)          0.3717         calculate D2E/DX2 analytically  !
 ! D58   D(15,16,17,22)        179.5589         calculate D2E/DX2 analytically  !
 ! D59   D(21,16,17,12)       -179.7439         calculate D2E/DX2 analytically  !
 ! D60   D(21,16,17,22)         -0.5567         calculate D2E/DX2 analytically  !
 ! D61   D(2,25,26,27)         178.9714         calculate D2E/DX2 analytically  !
 ! D62   D(2,25,26,28)         -61.4182         calculate D2E/DX2 analytically  !
 ! D63   D(2,25,26,29)          59.238          calculate D2E/DX2 analytically  !
 --------------------------------------------------------------------------------
 Trust Radius=1.00D-01 FncErr=1.00D-07 GrdErr=1.00D-07 EigMax=2.50D+02 EigMin=1.00D-04
 Number of steps in this run=     50 maximum allowed number of steps=    174.
 Search for a saddle point of order  1.
 GradGradGradGradGradGradGradGradGradGradGradGradGradGradGradGradGradGrad

                          Input orientation:                          
 ---------------------------------------------------------------------
 Center     Atomic      Atomic             Coordinates (Angstroms)
 Number     Number       Type             X           Y           Z
 ---------------------------------------------------------------------
      1          6           0       -0.802680   -0.065570   -0.134900
      2          6           0       -2.002550   -0.716180   -0.519480
      3          8           0       -2.184940   -1.936860   -0.461770
      4          6           0        0.286740   -0.862850    0.387130
      5          6           0       -1.011660   -1.415920    2.547740
      6          1           0       -0.785560   -2.062700    3.403690
      7          1           0       -1.665020   -0.596870    2.866230
      8          1           0       -1.521420   -1.978530    1.752960
      9          7           0        0.252680   -0.857400    1.998620
     10          1           0        0.330510    0.134420    2.246260
     11          1           0        1.081660   -1.323810    2.377620
     12          6           0        1.713850   -0.557710   -0.012800
     13          6           0        2.471700    0.477530    0.546670
     14          6           0        3.773760    0.722760    0.110170
     15          6           0        4.334270   -0.057560   -0.897680
     16          6           0        3.584770   -1.086820   -1.467760
     17          6           0        2.288910   -1.335190   -1.025490
     18          1           0        2.046160    1.132020    1.311630
     19          1           0        4.347150    1.538880    0.555020
     20          1           0        5.351900    0.137970   -1.242170
     21          1           0        4.013250   -1.702230   -2.261690
     22          1           0        1.702360   -2.137870   -1.479680
     23          1           0        0.044320   -1.907390    0.145890
     24         35           0       -0.705960    1.825190    0.093600
     25          8           0       -2.976830    0.107360   -0.971070
     26          6           0       -4.174170   -0.514860   -1.372450
     27          1           0       -4.849490    0.290710   -1.687200
     28          1           0       -4.007810   -1.209490   -2.210150
     29          1           0       -4.631640   -1.084900   -0.548750
 ---------------------------------------------------------------------
                    Distance matrix (angstroms):
                    1          2          3          4          5
     1  C    0.000000
     2  C    1.418056   0.000000
     3  O    2.349301   1.235579   0.000000
     4  C    1.447414   2.466638   2.825479   0.000000
     5  C    3.010594   3.298384   3.271867   2.580691   0.000000
     6  H    4.063304   4.322666   4.112892   3.418933   1.096401
     7  H    3.167442   3.404584   3.625117   3.166394   1.095061
     8  H    2.782089   2.643671   2.312363   2.525802   1.099118
     9  N    2.508523   3.383317   3.627774   1.611859   1.487290
    10  H    2.644624   3.716989   4.236876   2.110172   2.072647
    11  H    3.383292   4.274898   4.371343   2.192358   2.102240
    12  C    2.567106   3.754127   4.159831   1.513175   3.836834
    13  C    3.388371   4.751898   5.341397   2.568292   4.441084
    14  C    4.650304   5.986047   6.550328   3.840596   5.780653
    15  C    5.193280   6.382171   6.798668   4.322236   6.503463
    16  C    4.697785   5.679327   5.918119   3.790486   6.112259
    17  C    3.458759   4.365300   4.549189   2.495453   4.865003
    18  H    3.412120   4.812573   5.519527   2.815984   4.167761
    19  H    5.437922   6.823382   7.468790   4.720532   6.435730
    20  H    6.256703   7.439072   7.856074   5.414065   7.567885
    21  H    5.513173   6.340145   6.458508   4.648406   6.961488
    22  H    3.518250   4.082835   4.023388   2.667327   4.909911
    23  H    2.046595   2.459954   2.310783   1.099103   2.669367
    24  Br   1.906972   2.918146   4.080299   2.880481   4.076892
    25  O    2.335811   1.353282   2.250625   3.665638   4.308631
    26  C    3.619439   2.341799   2.609302   4.808008   5.116763
    27  H    4.348936   3.237663   3.682876   5.658127   5.964582
    28  H    3.985985   2.668855   2.628451   5.030823   5.626459
    29  H    3.983873   2.654981   2.592247   5.011551   4.775152
                    6          7          8          9         10
     6  H    0.000000
     7  H    1.791918   0.000000
     8  H    1.809277   1.780162   0.000000
     9  N    2.122478   2.120895   2.112987   0.000000
    10  H    2.722608   2.213885   2.852639   1.025227   0.000000
    11  H    2.255058   2.882956   2.755882   1.023908   1.645575
    12  C    4.492711   4.439269   3.950140   2.504125   2.737887
    13  C    5.022457   4.862833   4.840700   2.968880   2.755182
    14  C    6.276421   6.238399   6.167224   4.296644   4.094508
    15  C    6.981048   7.102771   6.708586   5.068301   5.094243
    16  C    6.616884   6.825234   6.102570   4.813652   5.086804
    17  C    5.440521   5.596799   4.759442   3.676922   4.086494
    18  H    4.754113   4.379349   4.753727   2.765198   2.193671
    19  H    6.887018   6.785964   6.946031   4.958914   4.578886
    20  H    8.005959   8.164319   7.790565   6.123359   6.114206
    21  H    7.433374   7.730468   6.842977   5.745073   6.103890
    22  H    5.481122   5.709717   4.568162   3.979918   4.574703
    23  H    3.365425   3.469806   2.244833   2.139743   2.943204
    24  Br   5.106733   3.804425   4.229271   3.427008   2.926930
    25  O    5.352509   4.116024   3.726861   4.492166   4.614157
    26  C    6.057227   4.926354   4.352884   5.574805   5.814531
    27  H    6.926126   5.626933   5.297188   6.398091   6.506069
    28  H    6.528864   5.624376   4.741287   5.999124   6.362916
    29  H    5.600911   4.549846   3.971135   5.513387   5.824239
                   11         12         13         14         15
    11  H    0.000000
    12  C    2.588567   0.000000
    13  C    2.920516   1.399666   0.000000
    14  C    4.071508   2.428570   1.395002   0.000000
    15  C    4.786486   2.810652   2.416948   1.392420   0.000000
    16  C    4.594417   2.428417   2.782812   2.408352   1.395033
    17  C    3.610920   1.400254   2.406461   2.780227   2.414989
    18  H    2.845645   2.172494   1.092980   2.143735   3.395821
    19  H    4.709595   3.413558   2.154959   1.092117   2.158500
    20  H    5.785726   3.902657   3.407463   2.159011   1.092006
    21  H    5.500965   3.413894   3.874870   3.400537   2.160675
    22  H    3.990830   2.156102   3.396807   3.873180   3.404903
    23  H    2.529280   2.152707   3.426462   4.563736   4.786918
    24  Br   4.281184   3.397795   3.481233   4.613406   5.470951
    25  O    5.452826   4.833537   5.668072   6.864274   7.313328
    26  C    6.507010   6.043117   6.988236   8.179209   8.533937
    27  H    7.369395   6.826483   7.656690   8.819164   9.224212
    28  H    6.852985   6.163648   7.240866   8.346874   8.522900
    29  H    6.423591   6.389868   7.355173   8.622793   9.031319
                   16         17         18         19         20
    16  C    0.000000
    17  C    1.391597   0.000000
    18  H    3.874994   3.407078   0.000000
    19  H    3.401053   3.872292   2.456125   0.000000
    20  H    2.161886   3.405739   4.293943   2.490374   0.000000
    21  H    1.092085   2.153197   4.966994   4.306987   2.493540
    22  H    2.155995   1.092989   4.312979   4.965220   4.307552
    23  H    3.976429   2.595713   3.821561   5.527975   5.854965
    24  Br   5.415534   4.495510   3.088405   5.082204   6.428737
    25  O    6.687852   5.460030   5.611691   7.617013   8.333197
    26  C    7.780577   6.524165   6.972016   8.974736   9.549302
    27  H    8.548829   7.351066   7.566424   9.547967  10.212235
    28  H    7.629775   6.408424   7.384860   9.219819   9.505620
    29  H    8.267646   6.941465   7.277964   9.419193  10.082029
                   21         22         23         24         25
    21  H    0.000000
    22  H    2.478212   0.000000
    23  H    4.646605   2.333387   0.000000
    24  Br   6.345158   4.897046   3.807599   0.000000
    25  O    7.334953   5.214840   3.799232   3.039953   0.000000
    26  C    8.320724   6.097480   4.694694   4.433240   1.407795
    27  H    9.102198   6.990551   5.669324   4.763897   2.013285
    28  H    8.036346   5.831082   4.738960   5.041702   2.081426
    29  H    8.834556   6.488061   4.798293   4.928712   2.082843
                   26         27         28         29
    26  C    0.000000
    27  H    1.097300   0.000000
    28  H    1.100876   1.797916   0.000000
    29  H    1.101229   1.798841   1.779027   0.000000
 Stoichiometry    C11H14BrNO2
 Framework group  C1[X(C11H14BrNO2)]
 Deg. of freedom    81
 Full point group                 C1      NOp   1
 Largest Abelian subgroup         C1      NOp   1
 Largest concise Abelian subgroup C1      NOp   1
                         Standard orientation:                         
 ---------------------------------------------------------------------
 Center     Atomic      Atomic             Coordinates (Angstroms)
 Number     Number       Type             X           Y           Z
 ---------------------------------------------------------------------
      1          6           0       -0.802680   -0.065568   -0.134901
      2          6           0       -2.002551   -0.716177   -0.519481
      3          8           0       -2.184942   -1.936856   -0.461771
      4          6           0        0.286739   -0.862849    0.387129
      5          6           0       -1.011662   -1.415918    2.547739
      6          1           0       -0.785562   -2.062698    3.403689
      7          1           0       -1.665021   -0.596867    2.866229
      8          1           0       -1.521422   -1.978527    1.752959
      9          7           0        0.252679   -0.857399    1.998619
     10          1           0        0.330510    0.134421    2.246259
     11          1           0        1.081658   -1.323810    2.377619
     12          6           0        1.713849   -0.557711   -0.012801
     13          6           0        2.471700    0.477528    0.546669
     14          6           0        3.773761    0.722757    0.110169
     15          6           0        4.334270   -0.057564   -0.897681
     16          6           0        3.584769   -1.086823   -1.467761
     17          6           0        2.288908   -1.335191   -1.025491
     18          1           0        2.046161    1.132019    1.311629
     19          1           0        4.347152    1.538876    0.555019
     20          1           0        5.351900    0.137965   -1.242171
     21          1           0        4.013248   -1.702233   -2.261691
     22          1           0        1.702358   -2.137871   -1.479681
     23          1           0        0.044318   -1.907389    0.145889
     24         35           0       -0.705958    1.825192    0.093599
     25          8           0       -2.976830    0.107364   -0.971071
     26          6           0       -4.174171   -0.514854   -1.372451
     27          1           0       -4.849490    0.290717   -1.687201
     28          1           0       -4.007811   -1.209484   -2.210151
     29          1           0       -4.631641   -1.084894   -0.548751
 ---------------------------------------------------------------------
 Rotational constants (GHZ):           0.6880675           0.3000956           0.2735158
 Standard basis: STO-3G (5D, 7F)
 There are   103 symmetry adapted cartesian basis functions of A   symmetry.
 There are   102 symmetry adapted basis functions of A   symmetry.
   102 basis functions,   309 primitive gaussians,   103 cartesian basis functions
    69 alpha electrons       69 beta electrons
       nuclear repulsion energy      1379.2275698557 Hartrees.
 NAtoms=   29 NActive=   29 NUniq=   29 SFac= 1.00D+00 NAtFMM=   60 NAOKFM=F Big=F
 Integral buffers will be    131072 words long.
 Raffenetti 1 integral format.
 Two-electron integral symmetry is turned on.
 External calculation of energy, first and second derivatives.
 Running external command "~/scripts/MiMe -H 'hf 6-31g(d)' -EF 'wb97xd def2svp' -c 12 -m 48GB R"
         input file       "/local/jobs/1158399/Gau-871853.EIn"
         output file      "/local/jobs/1158399/Gau-871853.EOu"
         message file     "/local/jobs/1158399/Gau-871853.EMs"
         fchk file        "/local/jobs/1158399/Gau-871853.EFC"
         mat. el file     "/local/jobs/1158399/Gau-871853.EUF"
 Read checkpoint file Gau-871853_H.chk type G16
 Write formatted file Gau-871853_H.fchk

deriv: 2

spelevel: wb97xd def2svp
gradlevel: wb97xd def2svp
hesslevel: hf 6-31g(d)

runspe: False
runforce: True
runfreq: True

Running Gaussian ...

Parsing files ...
SPE file: Gau-871853_F.out
FORCE file: Gau-871853_F.out
HESS file: Gau-871853_H.out

 ExternalExternalExternalExternalExternalExternalExternalExternalExternalExternal
 Output from external command:
 "~/scripts/MiMe -H 'hf 6-31g(d)' -EF 'wb97xd def2svp' -c 12 -m 48GB R /local/jobs/1158399/Gau-871853.EIn /local/jobs/1158399/Gau-871853.EOu /local/jobs/1158399/Gau-871853.EMs /local/jobs/1158399/Gau-871853.EFC /local/jobs/1158399/Gau-871853.EUF"
  
 --------------------------------------------------
 Force calculation at wb97xd def2svp
 Hessian calculation at hf 6-31g(d)
 ExternalExternalExternalExternalExternalExternalExternalExternalExternalExternal

 Recovered energy= -3205.98849195     dipole=      3.728200000000     -1.629000000000      5.833800000000
 Energy=    -3205.98849     NIter=   0.
 Dipole moment=       3.728200      -1.629000       5.833800
 ***** Axes restored to original set *****
 -------------------------------------------------------------------
 Center     Atomic                   Forces (Hartrees/Bohr)
 Number     Number              X              Y              Z
 -------------------------------------------------------------------
      1        6          -0.000209020   -0.000062059    0.000426659
      2        6           0.000035796   -0.000018783   -0.000093202
      3        8          -0.000006018    0.000007273    0.000011626
      4        6          -0.000134495    0.000328755   -0.000218062
      5        6          -0.000017123    0.000092436    0.000035304
      6        1          -0.000031372    0.000339823    0.000262472
      7        1          -0.000178299    0.000008538   -0.000401925
      8        1           0.000190039   -0.000332943    0.000100309
      9        7          -0.000149623    0.000154424    0.000005741
     10        1           0.000405964   -0.000139599    0.000424828
     11        1          -0.000103578   -0.000489584   -0.000376474
     12        6          -0.000039189    0.000159955    0.000002114
     13        6          -0.000023400    0.000057791   -0.000068389
     14        6           0.000000184    0.000002443    0.000003419
     15        6           0.000006546   -0.000004791    0.000001865
     16        6           0.000003119   -0.000011895    0.000003617
     17        6           0.000041171   -0.000081586    0.000098952
     18        1          -0.000007460    0.000008960   -0.000005959
     19        1           0.000002067   -0.000009152    0.000002219
     20        1          -0.000000575   -0.000002891    0.000001019
     21        1          -0.000001680    0.000001467   -0.000003517
     22        1          -0.000001833   -0.000001795   -0.000003273
     23        1           0.000162484   -0.000023756   -0.000061601
     24       35           0.000053698    0.000006333   -0.000133381
     25        8           0.000007317    0.000003413   -0.000016133
     26        6          -0.000005919   -0.000000749    0.000001173
     27        1           0.000001717    0.000002399   -0.000001561
     28        1          -0.000001601    0.000000468    0.000001779
     29        1           0.000001081    0.000005107    0.000000383
 -------------------------------------------------------------------
 Cartesian Forces:  Max     0.000489584 RMS     0.000146577
 FormGI is forming the generalized inverse of G from B-inverse, IUseBI=4.

 GradGradGradGradGradGradGradGradGradGradGradGradGradGradGradGradGradGrad
 Berny optimization.
 Internal  Forces:  Max     0.000294929 RMS     0.000081124
 Search for a saddle point.
 Step number   1 out of a maximum of   50
 All quantities printed in internal units (Hartrees-Bohrs-Radians)
 Swapping is turned off.
 Second derivative matrix not updated -- analytic derivatives used.
 ITU=  0
     Eigenvalues ---    0.00339   0.00471   0.01139   0.01276   0.01647
     Eigenvalues ---    0.02067   0.02332   0.02489   0.02571   0.02873
     Eigenvalues ---    0.03142   0.03289   0.03367   0.03534   0.03793
     Eigenvalues ---    0.03873   0.04494   0.04732   0.05408   0.06031
     Eigenvalues ---    0.06337   0.06997   0.07284   0.08210   0.08792
     Eigenvalues ---    0.10800   0.10911   0.11641   0.12413   0.13513
     Eigenvalues ---    0.14351   0.14805   0.14965   0.15455   0.16191
     Eigenvalues ---    0.16414   0.16819   0.17440   0.20487   0.21825
     Eigenvalues ---    0.22073   0.22306   0.22552   0.22691   0.23051
     Eigenvalues ---    0.23147   0.24205   0.25394   0.25819   0.27934
     Eigenvalues ---    0.30315   0.31020   0.32673   0.33833   0.34049
     Eigenvalues ---    0.34496   0.34712   0.35183   0.35213   0.35498
     Eigenvalues ---    0.36052   0.36275   0.36484   0.36551   0.36571
     Eigenvalues ---    0.36752   0.38513   0.40816   0.42801   0.44213
     Eigenvalues ---    0.44500   0.45883   0.46931   0.48101   0.50356
     Eigenvalues ---    0.51717   0.52050   0.55396   0.55717   0.57261
     Eigenvalues ---    0.80416
 Eigenvectors required to have negative eigenvalues:
                          D32       D33       D29       D30       D35
   1                    0.30732   0.30617   0.30374   0.30260   0.29186
                          D36       D31       D28       D34       D15
   1                    0.29072   0.28301   0.27944   0.26756  -0.12950
 RFO step:  Lambda0=3.639830774D-03 Lambda=-9.51129114D-08.
 Linear search not attempted -- option 19 set.
 Iteration  1 RMS(Cart)=  0.00046693 RMS(Int)=  0.00000018
 Iteration  2 RMS(Cart)=  0.00000019 RMS(Int)=  0.00000000
 Variable       Old X    -DE/DX   Delta X   Delta X   Delta X     New X
                                 (Linear)    (Quad)   (Total)
    R1        2.67974   0.00000   0.00000   0.00002   0.00002   2.67975
    R2        2.73522  -0.00002   0.00000  -0.00005  -0.00005   2.73517
    R3        3.60365  -0.00001   0.00000  -0.00001  -0.00001   3.60364
    R4        2.33491  -0.00000   0.00000  -0.00000  -0.00000   2.33490
    R5        2.55733   0.00000   0.00000  -0.00000  -0.00000   2.55733
    R6        3.04597   0.00005   0.00000   0.00021   0.00021   3.04618
    R7        2.85949  -0.00000   0.00000  -0.00001  -0.00001   2.85947
    R8        2.07700   0.00000   0.00000  -0.00000  -0.00000   2.07700
    R9        2.07190  -0.00000   0.00000  -0.00001  -0.00001   2.07189
   R10        2.06936  -0.00001   0.00000  -0.00001  -0.00001   2.06936
   R11        2.07703   0.00001   0.00000   0.00003   0.00003   2.07706
   R12        2.81057  -0.00001   0.00000   0.00000   0.00000   2.81057
   R13        1.93740  -0.00000   0.00000  -0.00001  -0.00001   1.93739
   R14        1.93491   0.00000   0.00000  -0.00000  -0.00000   1.93490
   R15        2.64499   0.00000   0.00000   0.00001   0.00001   2.64500
   R16        2.64610  -0.00000   0.00000  -0.00001  -0.00001   2.64608
   R17        2.63617  -0.00000   0.00000  -0.00001  -0.00001   2.63616
   R18        2.06543   0.00001   0.00000   0.00001   0.00001   2.06544
   R19        2.63129   0.00000   0.00000   0.00001   0.00001   2.63130
   R20        2.06380  -0.00000   0.00000  -0.00001  -0.00001   2.06379
   R21        2.63623   0.00000   0.00000   0.00000   0.00000   2.63623
   R22        2.06359  -0.00000   0.00000  -0.00000  -0.00000   2.06359
   R23        2.62974   0.00000   0.00000   0.00001   0.00001   2.62975
   R24        2.06374   0.00000   0.00000   0.00000   0.00000   2.06374
   R25        2.06545   0.00000   0.00000   0.00001   0.00001   2.06546
   R26        2.66035   0.00000   0.00000   0.00001   0.00001   2.66036
   R27        2.07360  -0.00000   0.00000  -0.00000  -0.00000   2.07359
   R28        2.08035  -0.00000   0.00000  -0.00000  -0.00000   2.08035
   R29        2.08102  -0.00000   0.00000  -0.00000  -0.00000   2.08102
    A1        2.07367  -0.00001   0.00000   0.00000   0.00000   2.07367
    A2        2.12977   0.00001   0.00000  -0.00002  -0.00002   2.12975
    A3        2.05416   0.00003   0.00000   0.00011   0.00011   2.05426
    A4        2.17184   0.00000   0.00000   0.00001   0.00001   2.17185
    A5        2.00475  -0.00000   0.00000  -0.00000  -0.00000   2.00475
    A6        2.10659  -0.00000   0.00000  -0.00000  -0.00000   2.10659
    A7        1.92071   0.00004   0.00000   0.00002   0.00002   1.92073
    A8        2.09839   0.00002   0.00000   0.00007   0.00007   2.09846
    A9        1.85284   0.00000   0.00000   0.00003   0.00003   1.85286
   A10        1.85822  -0.00003   0.00000  -0.00006  -0.00006   1.85816
   A11        1.79055  -0.00004   0.00000  -0.00008  -0.00008   1.79047
   A12        1.91947   0.00000   0.00000  -0.00000  -0.00000   1.91947
   A13        1.91474   0.00000   0.00000  -0.00002  -0.00002   1.91472
   A14        1.93714   0.00001   0.00000  -0.00005  -0.00005   1.93709
   A15        1.91183  -0.00000   0.00000  -0.00000  -0.00000   1.91182
   A16        1.89278  -0.00001   0.00000   0.00004   0.00004   1.89282
   A17        1.91103   0.00000   0.00000   0.00006   0.00006   1.91109
   A18        1.89601  -0.00001   0.00000  -0.00002  -0.00002   1.89599
   A19        1.96689  -0.00001   0.00000   0.00001   0.00001   1.96690
   A20        1.81642   0.00004   0.00000  -0.00001  -0.00001   1.81641
   A21        1.92988  -0.00003   0.00000  -0.00003  -0.00003   1.92985
   A22        1.91627  -0.00001   0.00000   0.00004   0.00004   1.91632
   A23        1.96117   0.00001   0.00000  -0.00000  -0.00000   1.96117
   A24        1.86482  -0.00000   0.00000  -0.00002  -0.00002   1.86480
   A25        2.15815  -0.00000   0.00000  -0.00001  -0.00001   2.15814
   A26        2.05613   0.00000   0.00000   0.00002   0.00002   2.05615
   A27        2.06848  -0.00000   0.00000  -0.00000  -0.00000   2.06848
   A28        2.10636   0.00000   0.00000   0.00000   0.00000   2.10636
   A29        2.10813  -0.00000   0.00000  -0.00002  -0.00002   2.10811
   A30        2.06818   0.00000   0.00000   0.00002   0.00002   2.06820
   A31        2.09866  -0.00000   0.00000   0.00000   0.00000   2.09866
   A32        2.08743   0.00000   0.00000   0.00000   0.00000   2.08744
   A33        2.09701  -0.00000   0.00000  -0.00000  -0.00000   2.09701
   A34        2.08631  -0.00000   0.00000  -0.00000  -0.00000   2.08631
   A35        2.09800  -0.00000   0.00000  -0.00000  -0.00000   2.09800
   A36        2.09886   0.00000   0.00000   0.00000   0.00000   2.09887
   A37        2.09683  -0.00000   0.00000  -0.00000  -0.00000   2.09683
   A38        2.09677  -0.00000   0.00000  -0.00001  -0.00001   2.09676
   A39        2.08959   0.00000   0.00000   0.00001   0.00001   2.08959
   A40        2.10968   0.00000   0.00000   0.00001   0.00001   2.10969
   A41        2.08048   0.00000   0.00000   0.00001   0.00001   2.08049
   A42        2.09293  -0.00000   0.00000  -0.00001  -0.00001   2.09292
   A43        2.02471  -0.00000   0.00000   0.00000   0.00000   2.02471
   A44        1.85536  -0.00000   0.00000  -0.00000  -0.00000   1.85536
   A45        1.94691   0.00000   0.00000   0.00000   0.00000   1.94691
   A46        1.94856  -0.00000   0.00000  -0.00001  -0.00001   1.94855
   A47        1.91555   0.00000   0.00000   0.00001   0.00001   1.91555
   A48        1.91655   0.00000   0.00000   0.00000   0.00000   1.91655
   A49        1.88108   0.00000   0.00000   0.00000   0.00000   1.88108
    D1       -0.02138   0.00009   0.00000   0.00031   0.00031  -0.02107
    D2        3.11970   0.00009   0.00000   0.00030   0.00030   3.12000
    D3       -2.91622  -0.00006   0.00000  -0.00009  -0.00009  -2.91632
    D4        0.22485  -0.00006   0.00000  -0.00010  -0.00010   0.22475
    D5       -1.67986  -0.00001   0.00000  -0.00001  -0.00001  -1.67987
    D6        2.43584  -0.00002   0.00000  -0.00000  -0.00000   2.43584
    D7        0.24567  -0.00004   0.00000  -0.00008  -0.00008   0.24559
    D8        1.22567   0.00013   0.00000   0.00036   0.00036   1.22603
    D9       -0.94181   0.00011   0.00000   0.00036   0.00036  -0.94144
   D10       -3.13198   0.00010   0.00000   0.00029   0.00029  -3.13169
   D11        3.13068   0.00001   0.00000   0.00008   0.00008   3.13076
   D12       -0.01141   0.00001   0.00000   0.00007   0.00007  -0.01134
   D13        1.04886  -0.00011   0.00000   0.00011   0.00011   1.04897
   D14       -1.02631  -0.00013   0.00000   0.00006   0.00006  -1.02625
   D15       -3.02310  -0.00013   0.00000   0.00010   0.00010  -3.02300
   D16       -2.93371  -0.00008   0.00000   0.00017   0.00017  -2.93354
   D17        1.27430  -0.00010   0.00000   0.00012   0.00012   1.27442
   D18       -0.72248  -0.00010   0.00000   0.00016   0.00016  -0.72232
   D19       -0.91723  -0.00011   0.00000   0.00011   0.00011  -0.91712
   D20       -2.99240  -0.00012   0.00000   0.00006   0.00006  -2.99235
   D21        1.29400  -0.00013   0.00000   0.00010   0.00010   1.29409
   D22        1.38238  -0.00007   0.00000  -0.00041  -0.00041   1.38196
   D23       -1.72747  -0.00009   0.00000  -0.00048  -0.00048  -1.72795
   D24       -0.81452  -0.00011   0.00000  -0.00045  -0.00045  -0.81496
   D25        2.35882  -0.00013   0.00000  -0.00051  -0.00051   2.35831
   D26       -2.74217  -0.00005   0.00000  -0.00032  -0.00032  -2.74249
   D27        0.43116  -0.00007   0.00000  -0.00038  -0.00038   0.43078
   D28        2.40683   0.00025   0.00000  -0.00106  -0.00106   2.40577
   D29       -1.86037   0.00029   0.00000  -0.00104  -0.00104  -1.86140
   D30        0.21241   0.00029   0.00000  -0.00103  -0.00103   0.21138
   D31       -1.77594   0.00026   0.00000  -0.00106  -0.00106  -1.77700
   D32        0.24005   0.00029   0.00000  -0.00103  -0.00103   0.23902
   D33        2.31282   0.00029   0.00000  -0.00103  -0.00103   2.31180
   D34        0.28826   0.00024   0.00000  -0.00099  -0.00099   0.28727
   D35        2.30425   0.00028   0.00000  -0.00096  -0.00096   2.30329
   D36       -1.90616   0.00028   0.00000  -0.00096  -0.00096  -1.90712
   D37       -3.11667  -0.00002   0.00000  -0.00004  -0.00004  -3.11671
   D38       -0.00997  -0.00002   0.00000  -0.00005  -0.00005  -0.01002
   D39       -0.00703  -0.00000   0.00000   0.00002   0.00002  -0.00701
   D40        3.09967   0.00000   0.00000   0.00001   0.00001   3.09968
   D41        3.11175   0.00002   0.00000   0.00004   0.00004   3.11179
   D42       -0.01575   0.00002   0.00000   0.00003   0.00003  -0.01572
   D43        0.00023  -0.00000   0.00000  -0.00002  -0.00002   0.00021
   D44       -3.12728  -0.00000   0.00000  -0.00003  -0.00003  -3.12731
   D45        0.00716   0.00000   0.00000  -0.00001  -0.00001   0.00715
   D46        3.13547   0.00000   0.00000  -0.00000  -0.00000   3.13547
   D47       -3.10032   0.00000   0.00000  -0.00000  -0.00000  -3.10033
   D48        0.02799   0.00000   0.00000   0.00001   0.00001   0.02799
   D49       -0.00037   0.00000   0.00000   0.00000   0.00000  -0.00037
   D50        3.13655  -0.00000   0.00000   0.00000   0.00000   3.13655
   D51       -3.12861  -0.00000   0.00000  -0.00001  -0.00001  -3.12861
   D52        0.00831  -0.00000   0.00000  -0.00001  -0.00001   0.00831
   D53       -0.00639  -0.00000   0.00000  -0.00000  -0.00000  -0.00640
   D54        3.13723  -0.00000   0.00000  -0.00000  -0.00000   3.13723
   D55        3.13988  -0.00000   0.00000  -0.00000  -0.00000   3.13987
   D56        0.00031  -0.00000   0.00000  -0.00000  -0.00000   0.00031
   D57        0.00649   0.00000   0.00000   0.00001   0.00001   0.00650
   D58        3.13389   0.00000   0.00000   0.00002   0.00002   3.13391
   D59       -3.13712   0.00000   0.00000   0.00001   0.00001  -3.13711
   D60       -0.00972   0.00000   0.00000   0.00002   0.00002  -0.00970
   D61        3.12364   0.00000   0.00000   0.00004   0.00004   3.12368
   D62       -1.07195   0.00000   0.00000   0.00004   0.00004  -1.07191
   D63        1.03390   0.00000   0.00000   0.00004   0.00004   1.03394
         Item               Value     Threshold  Converged?
 Maximum Force            0.000295     0.000450     YES
 RMS     Force            0.000081     0.000300     YES
 Maximum Displacement     0.002373     0.001800     NO 
 RMS     Displacement     0.000467     0.001200     YES
 Predicted change in Energy= 2.236290D-06
 GradGradGradGradGradGradGradGradGradGradGradGradGradGradGradGradGradGrad

                          Input orientation:                          
 ---------------------------------------------------------------------
 Center     Atomic      Atomic             Coordinates (Angstroms)
 Number     Number       Type             X           Y           Z
 ---------------------------------------------------------------------
      1          6           0       -0.802768   -0.065451   -0.134837
      2          6           0       -2.002652   -0.716044   -0.519433
      3          8           0       -2.185134   -1.936700   -0.461563
      4          6           0        0.286675   -0.862757    0.387039
      5          6           0       -1.011487   -1.416250    2.547809
      6          1           0       -0.785136   -2.063956    3.402987
      7          1           0       -1.664521   -0.597399    2.867463
      8          1           0       -1.521732   -1.977986    1.752699
      9          7           0        0.252733   -0.857502    1.998641
     10          1           0        0.330508    0.134293    2.246387
     11          1           0        1.081805   -1.323867    2.377494
     12          6           0        1.713785   -0.557626   -0.012870
     13          6           0        2.471505    0.477840    0.546377
     14          6           0        3.773595    0.723027    0.109953
     15          6           0        4.334282   -0.057571   -0.897592
     16          6           0        3.584921   -1.087061   -1.467438
     17          6           0        2.289023   -1.335384   -1.025235
     18          1           0        2.045811    1.132530    1.311087
     19          1           0        4.346877    1.539318    0.554616
     20          1           0        5.351937    0.137925   -1.242020
     21          1           0        4.013542   -1.702686   -2.261126
     22          1           0        1.702596   -2.138266   -1.479239
     23          1           0        0.044248   -1.907290    0.145779
     24         35           0       -0.705952    1.825350    0.093236
     25          8           0       -2.976840    0.107495   -0.971223
     26          6           0       -4.174228   -0.514696   -1.372529
     27          1           0       -4.849443    0.290874   -1.687500
     28          1           0       -4.007893   -1.209539   -2.210054
     29          1           0       -4.631796   -1.084491   -0.548717
 ---------------------------------------------------------------------
                    Distance matrix (angstroms):
                    1          2          3          4          5
     1  C    0.000000
     2  C    1.418065   0.000000
     3  O    2.349310   1.235577   0.000000
     4  C    1.447390   2.466624   2.825477   0.000000
     5  C    3.010782   3.298587   3.271794   2.580795   0.000000
     6  H    4.063315   4.322568   4.112291   3.418713   1.096397
     7  H    3.168499   3.405800   3.625903   3.167030   1.095056
     8  H    2.781634   2.643174   2.311874   2.525688   1.099135
     9  N    2.508616   3.383412   3.627736   1.611968   1.487292
    10  H    2.644700   3.717051   4.236798   2.110261   2.072677
    11  H    3.383346   4.274987   4.371350   2.192433   2.102240
    12  C    2.567129   3.754146   4.159897   1.513167   3.836850
    13  C    3.388227   4.751778   5.341371   2.568282   4.441232
    14  C    4.650239   5.985991   6.550362   3.840586   5.780714
    15  C    5.193375   6.382267   6.798826   4.322236   6.503387
    16  C    4.698014   5.679555   5.918379   3.790492   6.112082
    17  C    3.459004   4.365535   4.549438   2.495455   4.864828
    18  H    3.411782   4.812285   5.519362   2.815953   4.168073
    19  H    5.437782   6.823252   7.468768   4.720518   6.435858
    20  H    6.256806   7.439179   7.856248   5.414064   7.567790
    21  H    5.513482   6.340469   6.458853   4.648419   6.961237
    22  H    3.518641   4.083235   4.023773   2.667349   4.909651
    23  H    2.046595   2.459954   2.310817   1.099103   2.669353
    24  Br   1.906966   2.918129   4.080294   2.880546   4.077530
    25  O    2.335817   1.353282   2.250619   3.665623   4.309060
    26  C    3.619453   2.341805   2.609300   4.808001   5.117106
    27  H    4.348943   3.237666   3.682872   5.658116   5.965067
    28  H    3.986011   2.668843   2.628390   5.030752   5.626583
    29  H    3.983866   2.654996   2.592298   5.011602   4.775476
                    6          7          8          9         10
     6  H    0.000000
     7  H    1.791897   0.000000
     8  H    1.809258   1.780199   0.000000
     9  N    2.122472   2.120936   2.112983   0.000000
    10  H    2.722991   2.213876   2.852410   1.025224   0.000000
    11  H    2.254958   2.882730   2.756201   1.023907   1.645559
    12  C    4.492406   4.439690   3.950092   2.504151   2.737963
    13  C    5.022615   4.863156   4.840686   2.969034   2.755345
    14  C    6.276414   6.238629   6.167218   4.296706   4.094607
    15  C    6.980616   7.103006   6.708572   5.068244   5.094273
    16  C    6.616099   6.825524   6.102535   4.813510   5.086787
    17  C    5.439707   5.597162   4.759381   3.676775   4.086470
    18  H    4.754769   4.379671   4.753703   2.765517   2.193975
    19  H    6.887261   6.786142   6.946035   4.959029   4.579018
    20  H    8.005501   8.164511   7.790555   6.123287   6.114225
    21  H    7.432362   7.730749   6.842941   5.744879   6.103843
    22  H    5.480006   5.710128   4.568086   3.979712   4.574651
    23  H    3.364792   3.470341   2.244879   2.139771   2.943222
    24  Br   5.107585   3.805903   4.229028   3.427440   2.927453
    25  O    5.352802   4.117592   3.726436   4.492378   4.614356
    26  C    6.057368   4.927778   4.352471   5.574970   5.814669
    27  H    6.926534   5.628538   5.296825   6.398328   6.506295
    28  H    6.528585   5.625592   4.740772   5.999165   6.362976
    29  H    5.601081   4.551072   3.970812   5.513545   5.824302
                   11         12         13         14         15
    11  H    0.000000
    12  C    2.588505   0.000000
    13  C    2.920685   1.399674   0.000000
    14  C    4.071517   2.428575   1.394998   0.000000
    15  C    4.786261   2.810657   2.416950   1.392426   0.000000
    16  C    4.594036   2.428420   2.782816   2.408357   1.395033
    17  C    3.610550   1.400247   2.406460   2.780228   2.414992
    18  H    2.846123   2.172494   1.092985   2.143748   3.395837
    19  H    4.709714   3.413559   2.154953   1.092111   2.158499
    20  H    5.785477   3.902660   3.407462   2.159014   1.092004
    21  H    5.500489   3.413898   3.874874   3.400541   2.160672
    22  H    3.990365   2.156104   3.396815   3.873185   3.404904
    23  H    2.529320   2.152700   3.426500   4.563758   4.786907
    24  Br   4.281527   3.397787   3.480999   4.613213   5.470931
    25  O    5.453009   4.833507   5.667868   6.864124   7.313356
    26  C    6.507174   6.043112   6.988068   8.179095   8.534006
    27  H    7.369618   6.826441   7.656464   8.818978   9.224216
    28  H    6.853006   6.163619   7.240701   8.346784   8.522996
    29  H    6.423803   6.389923   7.355066   8.622735   9.031436
                   16         17         18         19         20
    16  C    0.000000
    17  C    1.391603   0.000000
    18  H    3.875004   3.407075   0.000000
    19  H    3.401051   3.872287   2.456142   0.000000
    20  H    2.161886   3.405743   4.293958   2.490371   0.000000
    21  H    1.092085   2.153208   4.967004   4.306983   2.493537
    22  H    2.155995   1.092993   4.312983   4.965220   4.307552
    23  H    3.976382   2.595643   3.821610   5.528008   5.854952
    24  Br   5.415665   4.495675   3.087938   5.081906   6.428712
    25  O    6.688041   5.460232   5.611297   7.616767   8.333234
    26  C    7.780809   6.524396   6.971659   8.974524   9.549386
    27  H    8.549013   7.351258   7.566005   9.547670  10.212248
    28  H    7.630026   6.408649   7.384514   9.219642   9.505744
    29  H    8.267919   6.941739   7.277670   9.419038  10.082158
                   21         22         23         24         25
    21  H    0.000000
    22  H    2.478214   0.000000
    23  H    4.646542   2.333271   0.000000
    24  Br   6.345367   4.897349   3.807645   0.000000
    25  O    7.335260   5.215232   3.799214   3.039906   0.000000
    26  C    8.321087   6.097903   4.694690   4.433195   1.407802
    27  H    9.102517   6.990945   5.669307   4.763837   2.013286
    28  H    8.036741   5.831493   4.738845   5.041677   2.081430
    29  H    8.834952   6.488516   4.798407   4.928643   2.082840
                   26         27         28         29
    26  C    0.000000
    27  H    1.097299   0.000000
    28  H    1.100873   1.797918   0.000000
    29  H    1.101227   1.798840   1.779026   0.000000
 Stoichiometry    C11H14BrNO2
 Framework group  C1[X(C11H14BrNO2)]
 Deg. of freedom    81
 Full point group                 C1      NOp   1
 Largest Abelian subgroup         C1      NOp   1
 Largest concise Abelian subgroup C1      NOp   1
                         Standard orientation:                         
 ---------------------------------------------------------------------
 Center     Atomic      Atomic             Coordinates (Angstroms)
 Number     Number       Type             X           Y           Z
 ---------------------------------------------------------------------
      1          6           0       -0.802754   -0.065434   -0.134783
      2          6           0       -2.002631   -0.715771   -0.519833
      3          8           0       -2.185080   -1.936475   -0.462869
      4          6           0        0.286724   -0.863101    0.386468
      5          6           0       -1.011365   -1.418242    2.546859
      6          1           0       -0.784974   -2.066581    3.401546
      7          1           0       -1.664412   -0.599647    2.867141
      8          1           0       -1.521617   -1.979398    1.751343
      9          7           0        0.252826   -0.859052    1.998075
     10          1           0        0.330581    0.132560    2.246559
     11          1           0        1.081920   -1.325678    2.376556
     12          6           0        1.713816   -0.557635   -0.013251
     13          6           0        2.471524    0.477433    0.546749
     14          6           0        3.773596    0.722980    0.110474
     15          6           0        4.334276   -0.056851   -0.897669
     16          6           0        3.584926   -1.085935   -1.468265
     17          6           0        2.289047   -1.334622   -1.026212
     18          1           0        2.045833    1.131541    1.311960
     19          1           0        4.346869    1.538953    0.555731
     20          1           0        5.351917    0.138929   -1.241979
     21          1           0        4.013542   -1.700955   -2.262424
     22          1           0        1.702629   -2.137179   -1.480800
     23          1           0        0.044318   -1.907460    0.144434
     24         35           0       -0.705981    1.825198    0.094700
     25          8           0       -2.976852    0.108080   -0.970982
     26          6           0       -4.174234   -0.513842   -1.372720
     27          1           0       -4.849479    0.291945   -1.687071
     28          1           0       -4.007904   -1.208055   -2.210769
     29          1           0       -4.631766   -1.084265   -0.549322
 ---------------------------------------------------------------------
 Rotational constants (GHZ):           0.6880297           0.3000968           0.2735046
 Standard basis: STO-3G (5D, 7F)
 There are   103 symmetry adapted cartesian basis functions of A   symmetry.
 There are   102 symmetry adapted basis functions of A   symmetry.
   102 basis functions,   309 primitive gaussians,   103 cartesian basis functions
    69 alpha electrons       69 beta electrons
       nuclear repulsion energy      1379.2116543859 Hartrees.
 NAtoms=   29 NActive=   29 NUniq=   29 SFac= 1.00D+00 NAtFMM=   60 NAOKFM=F Big=F
 Integral buffers will be    131072 words long.
 Raffenetti 1 integral format.
 Two-electron integral symmetry is turned on.
 External calculation of energy, first and second derivatives.
 Running external command "~/scripts/MiMe -H 'hf 6-31g(d)' -EF 'wb97xd def2svp' -c 12 -m 48GB R"
         input file       "/local/jobs/1158399/Gau-871853.EIn"
         output file      "/local/jobs/1158399/Gau-871853.EOu"
         message file     "/local/jobs/1158399/Gau-871853.EMs"
         fchk file        "/local/jobs/1158399/Gau-871853.EFC"
         mat. el file     "/local/jobs/1158399/Gau-871853.EUF"
 Read checkpoint file Gau-871853_H.chk type G16
 Write formatted file Gau-871853_H.fchk

deriv: 2

spelevel: wb97xd def2svp
gradlevel: wb97xd def2svp
hesslevel: hf 6-31g(d)

runspe: False
runforce: True
runfreq: True

Running Gaussian ...

Parsing files ...
SPE file: Gau-871853_F.out
FORCE file: Gau-871853_F.out
HESS file: Gau-871853_H.out

 ExternalExternalExternalExternalExternalExternalExternalExternalExternalExternal
 Output from external command:
 "~/scripts/MiMe -H 'hf 6-31g(d)' -EF 'wb97xd def2svp' -c 12 -m 48GB R /local/jobs/1158399/Gau-871853.EIn /local/jobs/1158399/Gau-871853.EOu /local/jobs/1158399/Gau-871853.EMs /local/jobs/1158399/Gau-871853.EFC /local/jobs/1158399/Gau-871853.EUF"
  
 --------------------------------------------------
 Force calculation at wb97xd def2svp
 Hessian calculation at hf 6-31g(d)
 ExternalExternalExternalExternalExternalExternalExternalExternalExternalExternal

 Recovered energy= -3205.98848973     dipole=      3.728700000000     -1.633800000000      5.831800000000
 Energy=    -3205.98849     NIter=   0.
 Dipole moment=       3.728700      -1.633800       5.831800
 ***** Axes restored to original set *****
 -------------------------------------------------------------------
 Center     Atomic                   Forces (Hartrees/Bohr)
 Number     Number              X              Y              Z
 -------------------------------------------------------------------
      1        6          -0.000210993   -0.000061156    0.000425073
      2        6           0.000032147   -0.000010851   -0.000096014
      3        8          -0.000005750    0.000003416    0.000012183
      4        6          -0.000133743    0.000324272   -0.000216772
      5        6          -0.000019962    0.000086140    0.000027077
      6        1          -0.000030983    0.000337148    0.000263649
      7        1          -0.000179609    0.000011138   -0.000399143
      8        1           0.000191417   -0.000329200    0.000104808
      9        7          -0.000145092    0.000160843    0.000006734
     10        1           0.000404371   -0.000143119    0.000422367
     11        1          -0.000103834   -0.000487738   -0.000374974
     12        6          -0.000038624    0.000163330    0.000007411
     13        6          -0.000026720    0.000060333   -0.000066096
     14        6          -0.000000697   -0.000003375    0.000000400
     15        6           0.000001824   -0.000004790    0.000003281
     16        6           0.000004419   -0.000009140    0.000005660
     17        6           0.000043835   -0.000086196    0.000092056
     18        1          -0.000005300    0.000005953   -0.000009205
     19        1           0.000003806   -0.000006165    0.000003961
     20        1           0.000000585   -0.000002857    0.000000354
     21        1          -0.000002460    0.000000951   -0.000003268
     22        1          -0.000000801    0.000000349   -0.000002102
     23        1           0.000162370   -0.000022317   -0.000061735
     24       35           0.000053728    0.000004741   -0.000133205
     25        8           0.000007892   -0.000000270   -0.000015669
     26        6          -0.000001991    0.000001711    0.000002888
     27        1           0.000001366    0.000002474   -0.000001636
     28        1          -0.000001277    0.000000066    0.000000847
     29        1           0.000000076    0.000004310    0.000001074
 -------------------------------------------------------------------
 Cartesian Forces:  Max     0.000487738 RMS     0.000146038
 FormGI is forming the generalized inverse of G from B-inverse, IUseBI=4.

 GradGradGradGradGradGradGradGradGradGradGradGradGradGradGradGradGradGrad
 Berny optimization.
 Internal  Forces:  Max     0.000293646 RMS     0.000080802
 Search for a saddle point.
 Step number   2 out of a maximum of   50
 All quantities printed in internal units (Hartrees-Bohrs-Radians)
 Swapping is turned off.
 Second derivative matrix not updated -- analytic derivatives used.
 ITU=  0  0
     Eigenvalues ---    0.00338   0.00471   0.01139   0.01276   0.01647
     Eigenvalues ---    0.02067   0.02332   0.02489   0.02571   0.02873
     Eigenvalues ---    0.03140   0.03289   0.03367   0.03534   0.03792
     Eigenvalues ---    0.03872   0.04494   0.04731   0.05407   0.06031
     Eigenvalues ---    0.06337   0.06997   0.07284   0.08210   0.08792
     Eigenvalues ---    0.10800   0.10911   0.11642   0.12410   0.13513
     Eigenvalues ---    0.14350   0.14805   0.14964   0.15455   0.16191
     Eigenvalues ---    0.16414   0.16819   0.17440   0.20484   0.21825
     Eigenvalues ---    0.22073   0.22306   0.22552   0.22691   0.23051
     Eigenvalues ---    0.23147   0.24205   0.25396   0.25819   0.27935
     Eigenvalues ---    0.30314   0.31022   0.32672   0.33834   0.34048
     Eigenvalues ---    0.34497   0.34712   0.35181   0.35213   0.35498
     Eigenvalues ---    0.36052   0.36274   0.36484   0.36552   0.36571
     Eigenvalues ---    0.36753   0.38512   0.40818   0.42802   0.44214
     Eigenvalues ---    0.44501   0.45883   0.46931   0.48102   0.50357
     Eigenvalues ---    0.51716   0.52050   0.55396   0.55719   0.57270
     Eigenvalues ---    0.80417
 Eigenvectors required to have negative eigenvalues:
                          D32       D33       D29       D30       D35
   1                    0.30727   0.30613   0.30371   0.30257   0.29180
                          D36       D31       D28       D34       D15
   1                    0.29066   0.28299   0.27943   0.26752  -0.12950
 RFO step:  Lambda0=3.633977614D-03 Lambda=-9.14178766D-08.
 Linear search not attempted -- option 19 set.
 Iteration  1 RMS(Cart)=  0.00046075 RMS(Int)=  0.00000018
 Iteration  2 RMS(Cart)=  0.00000019 RMS(Int)=  0.00000000
 Variable       Old X    -DE/DX   Delta X   Delta X   Delta X     New X
                                 (Linear)    (Quad)   (Total)
    R1        2.67975   0.00000   0.00000   0.00001   0.00001   2.67977
    R2        2.73517  -0.00001   0.00000  -0.00004  -0.00004   2.73513
    R3        3.60364  -0.00001   0.00000  -0.00002  -0.00002   3.60363
    R4        2.33490  -0.00000   0.00000   0.00000   0.00000   2.33490
    R5        2.55733  -0.00000   0.00000  -0.00001  -0.00001   2.55732
    R6        3.04618   0.00005   0.00000   0.00020   0.00020   3.04638
    R7        2.85947  -0.00000   0.00000  -0.00001  -0.00001   2.85946
    R8        2.07700  -0.00000   0.00000  -0.00000  -0.00000   2.07700
    R9        2.07189   0.00000   0.00000  -0.00000  -0.00000   2.07189
   R10        2.06936  -0.00000   0.00000   0.00000   0.00000   2.06936
   R11        2.07706   0.00000   0.00000   0.00001   0.00001   2.07708
   R12        2.81057  -0.00001   0.00000   0.00001   0.00001   2.81059
   R13        1.93739  -0.00001   0.00000  -0.00002  -0.00002   1.93738
   R14        1.93490  -0.00000   0.00000  -0.00000  -0.00000   1.93490
   R15        2.64500   0.00000   0.00000   0.00001   0.00001   2.64501
   R16        2.64608   0.00000   0.00000   0.00000   0.00000   2.64608
   R17        2.63616  -0.00000   0.00000  -0.00000  -0.00000   2.63616
   R18        2.06544   0.00000   0.00000  -0.00000  -0.00000   2.06544
   R19        2.63130  -0.00000   0.00000   0.00000   0.00000   2.63131
   R20        2.06379   0.00000   0.00000   0.00000   0.00000   2.06379
   R21        2.63623   0.00000   0.00000  -0.00000  -0.00000   2.63623
   R22        2.06359   0.00000   0.00000   0.00000   0.00000   2.06359
   R23        2.62975   0.00000   0.00000   0.00000   0.00000   2.62975
   R24        2.06374  -0.00000   0.00000   0.00000   0.00000   2.06374
   R25        2.06546  -0.00000   0.00000   0.00000   0.00000   2.06546
   R26        2.66036   0.00000   0.00000   0.00000   0.00000   2.66036
   R27        2.07359  -0.00000   0.00000  -0.00000  -0.00000   2.07359
   R28        2.08035   0.00000   0.00000  -0.00000  -0.00000   2.08035
   R29        2.08102  -0.00000   0.00000   0.00000   0.00000   2.08102
    A1        2.07367  -0.00001   0.00000   0.00000   0.00000   2.07368
    A2        2.12975   0.00000   0.00000  -0.00002  -0.00002   2.12972
    A3        2.05426   0.00003   0.00000   0.00010   0.00010   2.05436
    A4        2.17185   0.00000   0.00000  -0.00000  -0.00000   2.17185
    A5        2.00475   0.00000   0.00000   0.00000   0.00000   2.00475
    A6        2.10659  -0.00000   0.00000  -0.00000  -0.00000   2.10658
    A7        1.92073   0.00004   0.00000   0.00002   0.00002   1.92075
    A8        2.09846   0.00002   0.00000   0.00007   0.00007   2.09853
    A9        1.85286   0.00000   0.00000   0.00003   0.00003   1.85289
   A10        1.85816  -0.00003   0.00000  -0.00006  -0.00006   1.85810
   A11        1.79047  -0.00004   0.00000  -0.00007  -0.00007   1.79039
   A12        1.91947   0.00000   0.00000  -0.00000  -0.00000   1.91947
   A13        1.91472   0.00000   0.00000  -0.00003  -0.00003   1.91469
   A14        1.93709   0.00001   0.00000  -0.00005  -0.00005   1.93705
   A15        1.91182  -0.00000   0.00000  -0.00001  -0.00001   1.91182
   A16        1.89282  -0.00001   0.00000   0.00004   0.00004   1.89287
   A17        1.91109   0.00000   0.00000   0.00006   0.00006   1.91115
   A18        1.89599  -0.00000   0.00000  -0.00002  -0.00002   1.89597
   A19        1.96690  -0.00001   0.00000   0.00001   0.00001   1.96691
   A20        1.81641   0.00004   0.00000  -0.00000  -0.00000   1.81641
   A21        1.92985  -0.00003   0.00000  -0.00003  -0.00003   1.92982
   A22        1.91632  -0.00001   0.00000   0.00005   0.00005   1.91637
   A23        1.96117   0.00001   0.00000  -0.00001  -0.00001   1.96116
   A24        1.86480  -0.00000   0.00000  -0.00002  -0.00002   1.86478
   A25        2.15814  -0.00000   0.00000  -0.00001  -0.00001   2.15812
   A26        2.05615   0.00000   0.00000   0.00002   0.00002   2.05616
   A27        2.06848  -0.00000   0.00000  -0.00000  -0.00000   2.06848
   A28        2.10636   0.00000   0.00000  -0.00000  -0.00000   2.10636
   A29        2.10811  -0.00000   0.00000  -0.00002  -0.00002   2.10810
   A30        2.06820   0.00000   0.00000   0.00002   0.00002   2.06822
   A31        2.09866   0.00000   0.00000   0.00000   0.00000   2.09867
   A32        2.08744   0.00000   0.00000  -0.00000  -0.00000   2.08744
   A33        2.09701  -0.00000   0.00000  -0.00000  -0.00000   2.09701
   A34        2.08631   0.00000   0.00000   0.00000   0.00000   2.08631
   A35        2.09800  -0.00000   0.00000  -0.00000  -0.00000   2.09800
   A36        2.09887   0.00000   0.00000  -0.00000  -0.00000   2.09887
   A37        2.09683  -0.00000   0.00000  -0.00000  -0.00000   2.09683
   A38        2.09676   0.00000   0.00000   0.00000   0.00000   2.09676
   A39        2.08959   0.00000   0.00000   0.00000   0.00000   2.08960
   A40        2.10969   0.00000   0.00000   0.00000   0.00000   2.10969
   A41        2.08049   0.00000   0.00000   0.00001   0.00001   2.08050
   A42        2.09292  -0.00000   0.00000  -0.00001  -0.00001   2.09291
   A43        2.02471  -0.00000   0.00000   0.00000   0.00000   2.02471
   A44        1.85536  -0.00000   0.00000  -0.00000  -0.00000   1.85535
   A45        1.94691   0.00000   0.00000  -0.00000  -0.00000   1.94691
   A46        1.94855  -0.00000   0.00000  -0.00001  -0.00001   1.94855
   A47        1.91555  -0.00000   0.00000   0.00000   0.00000   1.91556
   A48        1.91655   0.00000   0.00000  -0.00000  -0.00000   1.91655
   A49        1.88108  -0.00000   0.00000   0.00000   0.00000   1.88108
    D1       -0.02107   0.00009   0.00000   0.00031   0.00031  -0.02077
    D2        3.12000   0.00009   0.00000   0.00029   0.00029   3.12029
    D3       -2.91632  -0.00006   0.00000  -0.00009  -0.00009  -2.91641
    D4        0.22475  -0.00006   0.00000  -0.00011  -0.00011   0.22464
    D5       -1.67987  -0.00001   0.00000  -0.00001  -0.00001  -1.67988
    D6        2.43584  -0.00002   0.00000  -0.00000  -0.00000   2.43584
    D7        0.24559  -0.00004   0.00000  -0.00008  -0.00008   0.24551
    D8        1.22603   0.00012   0.00000   0.00035   0.00035   1.22638
    D9       -0.94144   0.00011   0.00000   0.00036   0.00036  -0.94108
   D10       -3.13169   0.00010   0.00000   0.00029   0.00029  -3.13141
   D11        3.13076   0.00001   0.00000   0.00008   0.00008   3.13084
   D12       -0.01134   0.00001   0.00000   0.00007   0.00007  -0.01127
   D13        1.04897  -0.00011   0.00000   0.00012   0.00012   1.04909
   D14       -1.02625  -0.00012   0.00000   0.00006   0.00006  -1.02619
   D15       -3.02300  -0.00013   0.00000   0.00009   0.00009  -3.02290
   D16       -2.93354  -0.00008   0.00000   0.00018   0.00018  -2.93336
   D17        1.27442  -0.00010   0.00000   0.00012   0.00012   1.27454
   D18       -0.72232  -0.00010   0.00000   0.00015   0.00015  -0.72217
   D19       -0.91712  -0.00011   0.00000   0.00012   0.00012  -0.91700
   D20       -2.99235  -0.00012   0.00000   0.00006   0.00006  -2.99229
   D21        1.29409  -0.00013   0.00000   0.00009   0.00009   1.29419
   D22        1.38196  -0.00007   0.00000  -0.00041  -0.00041   1.38155
   D23       -1.72795  -0.00009   0.00000  -0.00047  -0.00047  -1.72842
   D24       -0.81496  -0.00011   0.00000  -0.00044  -0.00044  -0.81540
   D25        2.35831  -0.00013   0.00000  -0.00050  -0.00050   2.35781
   D26       -2.74249  -0.00005   0.00000  -0.00032  -0.00032  -2.74281
   D27        0.43078  -0.00007   0.00000  -0.00038  -0.00038   0.43040
   D28        2.40577   0.00025   0.00000  -0.00105  -0.00105   2.40472
   D29       -1.86140   0.00029   0.00000  -0.00102  -0.00102  -1.86242
   D30        0.21138   0.00029   0.00000  -0.00101  -0.00101   0.21037
   D31       -1.77700   0.00026   0.00000  -0.00105  -0.00105  -1.77805
   D32        0.23902   0.00029   0.00000  -0.00102  -0.00102   0.23800
   D33        2.31180   0.00029   0.00000  -0.00101  -0.00101   2.31078
   D34        0.28727   0.00024   0.00000  -0.00098  -0.00098   0.28630
   D35        2.30329   0.00028   0.00000  -0.00094  -0.00094   2.30234
   D36       -1.90712   0.00028   0.00000  -0.00094  -0.00094  -1.90806
   D37       -3.11671  -0.00002   0.00000  -0.00005  -0.00005  -3.11676
   D38       -0.01002  -0.00002   0.00000  -0.00005  -0.00005  -0.01007
   D39       -0.00701  -0.00000   0.00000   0.00001   0.00001  -0.00700
   D40        3.09968   0.00000   0.00000   0.00001   0.00001   3.09970
   D41        3.11179   0.00002   0.00000   0.00004   0.00004   3.11183
   D42       -0.01572   0.00002   0.00000   0.00003   0.00003  -0.01569
   D43        0.00021  -0.00000   0.00000  -0.00002  -0.00002   0.00019
   D44       -3.12731  -0.00000   0.00000  -0.00002  -0.00002  -3.12733
   D45        0.00715   0.00000   0.00000  -0.00000  -0.00000   0.00715
   D46        3.13547   0.00000   0.00000   0.00000   0.00000   3.13547
   D47       -3.10033   0.00000   0.00000  -0.00000  -0.00000  -3.10033
   D48        0.02799   0.00000   0.00000  -0.00000  -0.00000   0.02799
   D49       -0.00037  -0.00000   0.00000  -0.00001  -0.00001  -0.00037
   D50        3.13655  -0.00000   0.00000  -0.00000  -0.00000   3.13655
   D51       -3.12861  -0.00000   0.00000  -0.00001  -0.00001  -3.12862
   D52        0.00831  -0.00000   0.00000  -0.00000  -0.00000   0.00830
   D53       -0.00640  -0.00000   0.00000   0.00000   0.00000  -0.00639
   D54        3.13723  -0.00000   0.00000   0.00000   0.00000   3.13723
   D55        3.13987  -0.00000   0.00000  -0.00000  -0.00000   3.13987
   D56        0.00031  -0.00000   0.00000   0.00000   0.00000   0.00031
   D57        0.00650   0.00000   0.00000   0.00001   0.00001   0.00651
   D58        3.13391   0.00000   0.00000   0.00002   0.00002   3.13393
   D59       -3.13711   0.00000   0.00000   0.00001   0.00001  -3.13710
   D60       -0.00970   0.00000   0.00000   0.00001   0.00001  -0.00968
   D61        3.12368   0.00000   0.00000   0.00004   0.00004   3.12372
   D62       -1.07191   0.00000   0.00000   0.00004   0.00004  -1.07186
   D63        1.03394   0.00000   0.00000   0.00004   0.00004   1.03398
         Item               Value     Threshold  Converged?
 Maximum Force            0.000294     0.000450     YES
 RMS     Force            0.000081     0.000300     YES
 Maximum Displacement     0.002343     0.001800     NO 
 RMS     Displacement     0.000461     0.001200     YES
 Predicted change in Energy= 2.198643D-06
 GradGradGradGradGradGradGradGradGradGradGradGradGradGradGradGradGradGrad

                          Input orientation:                          
 ---------------------------------------------------------------------
 Center     Atomic      Atomic             Coordinates (Angstroms)
 Number     Number       Type             X           Y           Z
 ---------------------------------------------------------------------
      1          6           0       -0.802859   -0.065335   -0.134776
      2          6           0       -2.002757   -0.715906   -0.519392
      3          8           0       -2.185327   -1.936543   -0.461359
      4          6           0        0.286610   -0.862666    0.386950
      5          6           0       -1.011319   -1.416579    2.547872
      6          1           0       -0.784718   -2.065196    3.402292
      7          1           0       -1.664034   -0.597924    2.868677
      8          1           0       -1.522038   -1.977452    1.752447
      9          7           0        0.252786   -0.857597    1.998661
     10          1           0        0.330504    0.134167    2.246510
     11          1           0        1.081947   -1.323918    2.377370
     12          6           0        1.713721   -0.557542   -0.012937
     13          6           0        2.471309    0.478148    0.546084
     14          6           0        3.773432    0.723288    0.109739
     15          6           0        4.334292   -0.057581   -0.897503
     16          6           0        3.585072   -1.087299   -1.467120
     17          6           0        2.289139   -1.335578   -1.024988
     18          1           0        2.045467    1.133032    1.310545
     19          1           0        4.346608    1.539751    0.554220
     20          1           0        5.351975    0.137881   -1.241872
     21          1           0        4.013831   -1.703139   -2.260566
     22          1           0        1.702835   -2.138654   -1.478806
     23          1           0        0.044179   -1.907191    0.145669
     24         35           0       -0.705942    1.825502    0.092875
     25          8           0       -2.976850    0.107628   -0.971374
     26          6           0       -4.174282   -0.514532   -1.372602
     27          1           0       -4.849396    0.291037   -1.687791
     28          1           0       -4.007974   -1.209584   -2.209958
     29          1           0       -4.631951   -1.084089   -0.548680
 ---------------------------------------------------------------------
                    Distance matrix (angstroms):
                    1          2          3          4          5
     1  C    0.000000
     2  C    1.418072   0.000000
     3  O    2.349317   1.235578   0.000000
     4  C    1.447370   2.466617   2.825476   0.000000
     5  C    3.010966   3.298788   3.271717   2.580896   0.000000
     6  H    4.063327   4.322477   4.111698   3.418495   1.096397
[...]
 438,0.00074611,-0.00061803,-0.00177272,0.00029726,-0.00004057,0.000039
 30,-0.00042287,0.00001264,0.00005212,0.00002307,0.00004630,0.00005825,
 0.00007427,0.00001067,0.00000254,-0.00001109,0.00051053,0.00114179,0.0
 8608674,-0.00089562,-0.02120403,-0.00204532,-0.00091932,-0.00385549,0.
 00036811,-0.00455041,0.00242189,-0.00156007,-0.05023782,-0.30366779,-0
 .05170962,0.00026488,0.00058949,0.00009854,0.00019374,0.00007703,0.000
 14752,0.00005406,0.00010822,0.00017676,0.00040629,0.00051158,-0.000085
 74,-0.00051671,0.00344768,0.00002336,-0.00029261,0.00071572,0.00153717
 ,-0.00014874,-0.00011594,-0.00090382,-0.00145623,-0.00249817,-0.000696
 72,-0.00084335,0.00018142,0.00024522,0.00070191,-0.00024433,-0.0005630
 2,0.00020062,0.00064390,0.00045059,-0.00086456,0.00025098,-0.00001076,
 0.00218600,0.00056875,-0.00145238,0.00006918,0.00000200,0.00008061,-0.
 00001572,-0.00001973,0.00006680,0.00005594,-0.00001363,0.00009231,-0.0
 0000868,-0.00004439,0.00001301,0.00039413,0.00057525,0.00062762,0.0542
 9026,0.32376009,0.00021485,0.01067302,0.00466942,0.00101472,0.00416524
 ,-0.00094374,-0.00042241,-0.00239512,-0.00117491,-0.00561657,-0.044444
 84,-0.06758282,-0.00286583,-0.00208786,0.00110300,0.00012549,0.0001107
 9,0.00005240,0.00022296,0.00025435,0.00015094,0.00116653,0.00025202,-0
 .00003087,-0.00509011,-0.03499630,-0.02580463,-0.00008741,0.00123253,-
 0.00708748,-0.00010981,-0.00039225,0.00044984,-0.00001432,0.00818695,0
 .00399926,0.00243778,-0.00013240,-0.00042097,-0.00012415,0.00033370,0.
 00064377,0.00007127,-0.00013099,-0.00015927,-0.00021622,0.00017345,-0.
 00042513,0.00173055,0.00135359,0.00049516,-0.00008782,0.00020308,-0.00
 008862,0.00015925,0.00005181,-0.00007861,0.00002638,-0.00006495,0.0000
 2989,0.00004967,-0.00000356,-0.00003272,0.00085476,-0.00029208,-0.0002
 1995,0.00902145,0.05526042,0.09039181,-0.02903443,-0.00347391,-0.01228
 024,0.00323849,-0.01887547,0.00172918,-0.00326335,-0.00341382,-0.00240
 763,0.00091420,0.01735682,0.00253099,-0.00046832,-0.00006056,0.0001994
 1,0.00008475,0.00003459,-0.00003385,0.00000095,0.00017649,-0.00017852,
 -0.00005671,0.00007474,-0.00023640,0.00083988,-0.00027673,0.00116949,-
 0.00007766,-0.00055084,0.00039560,0.00011012,0.00010639,0.00045672,0.0
 0017234,0.00167706,0.00061621,-0.00363659,0.00065216,-0.00214313,0.000
 31100,0.00066770,-0.00019146,0.00024936,0.00027841,0.00038036,-0.00058
 948,-0.00007396,0.00026239,0.00038388,-0.00034648,-0.00043563,-0.00206
 973,0.00168037,0.00095545,-0.00002856,0.00003006,-0.00008993,-0.000042
 73,0.00000194,0.00010361,-0.00001567,0.00001829,0.00002543,-0.00000937
 ,0.00005832,-0.00002258,-0.00232474,0.00206313,-0.00217669,0.03779882,
 -0.01126712,-0.14375010,-0.01409655,0.01821975,-0.02832959,0.00285089,
 -0.00835096,-0.00495796,-0.00205178,-0.00918180,-0.03500389,-0.0096332
 4,0.00093399,-0.00020276,-0.00106369,-0.00006701,0.00010188,0.00019005
 ,-0.00019197,0.00044406,0.00030055,0.00006159,0.00013889,-0.00057006,-
 0.00073016,0.00052826,0.00134591,0.00032894,0.00004919,0.00084607,-0.0
 0035067,0.00056596,-0.00037476,-0.00205197,0.00088873,0.00117058,0.001
 28425,0.00006032,-0.00057416,0.00066834,-0.00005216,-0.00020693,0.0001
 2759,0.00050254,0.00029790,-0.00048261,-0.00024484,0.00002583,0.000635
 47,0.00002960,-0.00067723,0.00057731,-0.00054884,0.00033245,0.00017086
 ,0.00005143,0.00002173,0.00006242,0.00001770,0.00000126,0.00005619,-0.
 00003149,-0.00001712,-0.00011052,0.00013515,0.00026144,0.00458151,-0.0
 0262401,0.00296118,0.00771950,0.20971150,-0.01284329,-0.01536278,-0.00
 572079,0.00872499,-0.00568913,-0.00503284,-0.00362946,-0.00290679,0.00
 489413,-0.00085530,0.00554326,-0.00760905,-0.00051845,-0.00002374,0.00
 024175,0.00012039,0.00005752,0.00005063,-0.00010511,-0.00065039,0.0001
 7090,-0.00006677,0.00010235,-0.00020983,0.00016447,0.00302710,0.001998
 30,0.00066288,-0.00137095,0.00052151,0.00038113,-0.00011823,0.00066362
 ,-0.00015634,-0.00083640,0.00026167,-0.00072271,-0.00046716,-0.0012281
 2,-0.00001184,0.00027703,0.00043962,-0.00007974,-0.00009882,0.00005050
 ,0.00000024,0.00004474,0.00004259,-0.00002181,0.00006579,-0.00012753,-
 0.00068895,0.00070662,0.00061750,-0.00001668,0.00002512,-0.00006254,-0
 .00003274,0.00002927,0.00003759,-0.00001415,0.00001474,0.00001454,-0.0
 0002624,0.00004805,0.00004312,-0.00069804,0.00001447,0.00181485,0.0121
 7160,0.01927235,0.00960660,-0.06591760,0.03381416,-0.02956895,-0.20510
 958,0.06097104,-0.05358770,0.01376785,0.04106486,-0.01073180,0.0053871
 8,-0.01301872,0.00869855,-0.00242061,-0.00084781,0.00111490,-0.0000413
 8,0.00003260,-0.00049832,0.00001074,-0.00005280,-0.00034295,-0.0001449
 8,-0.00018339,0.00122442,-0.00324386,0.00321304,-0.01002028,0.00026867
 ,0.00046112,0.00098148,0.00041732,-0.00001974,-0.00196478,0.00051656,0
 .00115223,-0.00276782,-0.00068069,0.00038528,0.00030186,-0.00003891,0.
 00021339,0.00051545,-0.00051403,-0.00034116,-0.00011098,0.00055317,-0.
 00012374,-0.00014875,-0.00121054,-0.00035975,0.00012911,0.00022448,0.0
 0017714,0.00007682,-0.00020758,-0.00016016,-0.00001991,-0.00021003,-0.
 00002692,0.00005538,-0.00021187,0.00010066,0.00016489,0.00020520,-0.00
 008930,-0.00017401,0.00131231,-0.00020851,-0.00024794,-0.00297730,-0.0
 0297614,-0.00233029,0.54251753,0.00826144,0.01330906,-0.00041483,0.024
 66615,-0.19081090,0.02122594,0.05201105,-0.07535827,0.03215606,-0.0070
 9419,0.00096290,-0.00404303,0.00023189,-0.00039346,-0.00011399,0.00010
 070,0.00014008,0.00024647,0.00009522,0.00011931,0.00030658,-0.00030629
 ,-0.00012373,-0.00143841,0.00094186,-0.00028515,0.00256591,0.00017285,
 -0.00045940,0.00011663,-0.00011254,0.00002184,0.00044851,-0.00035274,0
 .00092109,0.00058648,0.00003366,-0.00022305,-0.00030703,0.00017080,0.0
 0005257,-0.00013497,0.00011207,0.00017701,0.00011469,-0.00021288,0.000
 01438,0.00013078,0.00012164,-0.00015207,-0.00019250,-0.00000270,-0.000
 02638,0.00019200,0.00006809,0.00003625,0.00000580,0.00004750,0.0000117
 8,0.00000552,0.00002408,-0.00003277,-0.00001129,-0.00009635,0.00007647
 ,0.00008793,-0.00123754,0.00034806,-0.00031345,-0.00522885,0.00222557,
 -0.00158413,0.01044010,0.40572320,-0.02846423,0.01302835,0.00315766,-0
 .05320256,0.03209798,-0.10531963,-0.01020653,0.02826731,0.02154525,-0.
 00030268,-0.00438570,0.00684532,-0.00027900,-0.00029509,0.00046859,-0.
 00007618,0.00008865,-0.00016342,0.00007050,0.00001403,0.00010032,0.000
 02474,-0.00027914,0.00026184,-0.00050123,0.00006798,-0.00225147,0.0002
 2108,0.00014478,0.00016893,0.00009261,-0.00004944,-0.00034640,-0.00030
 458,0.00114727,-0.00167584,-0.00028215,0.00018553,0.00015647,-0.000022
 47,0.00008938,0.00032273,-0.00029913,-0.00019412,-0.00005472,0.0003038
 9,-0.00010388,-0.00001629,-0.00064026,-0.00021552,0.00007321,0.0000676
 2,0.00009823,-0.00001050,-0.00009669,-0.00006648,-0.00001162,-0.000097
 23,-0.00000383,0.00001608,-0.00011733,0.00006368,0.00006851,0.00009622
 ,0.00004512,-0.00010714,0.00057837,-0.00019737,0.00015674,-0.00101151,
 -0.00076252,-0.00125368,0.17356547,-0.02751920,0.16046362,0.00907338,-
 0.00047439,0.00158266,-0.06440549,0.01223298,-0.02605941,0.00001682,-0
 .01784432,0.00500822,-0.00272369,0.00256690,-0.00443336,0.00061652,0.0
 0025476,-0.00039942,0.00013464,-0.00002901,0.00023200,0.00001893,0.000
 06265,-0.00002781,0.00002500,0.00025705,-0.00066729,0.00074163,-0.0007
 4283,0.00311603,-0.00022702,0.00001517,-0.00041562,-0.00012371,0.00001
 965,0.00048115,-0.00020537,-0.00018699,0.00102042,0.00028027,-0.000106
 43,-0.00002252,0.00000688,-0.00014530,-0.00019874,0.00017233,0.0001271
 1,0.00004428,-0.00020619,0.00005667,0.00009799,0.00039717,0.00008210,-
 0.00005465,-0.00011510,-0.00007610,-0.00013031,0.00007476,0.00007098,0
 .00000956,0.00009430,0.00001591,-0.00003365,0.00007563,-0.00004476,-0.
 00007170,-0.00010072,0.00006878,0.00005444,-0.00040434,0.00005798,0.00
 002942,0.00039385,0.00018460,0.00066020,-0.20717467,-0.05610233,-0.045
 07294,0.58456995,0.00524999,-0.00629953,0.00245341,0.02035254,0.034872
 97,0.00415402,0.00094188,-0.01034981,0.00081792,0.00035039,0.00178660,
 -0.00085082,0.00037472,0.00019482,-0.00015592,0.00002803,-0.00001621,0
 .00008326,0.00000857,0.00003577,0.00000970,0.00012691,0.00006993,-0.00
 016288,0.00033452,-0.00043560,0.00123424,-0.00009814,0.00001172,-0.000
 15984,-0.00006623,0.00001718,0.00024474,-0.00008074,-0.00029725,0.0004
 4378,0.00009616,-0.00002890,-0.00002602,0.00000425,-0.00003982,-0.0000
 8015,0.00007484,0.00004621,0.00001631,-0.00008860,0.00000424,0.0000081
 9,0.00021939,0.00011218,-0.00000445,-0.00003186,-0.00002958,-0.0000305
 8,0.00002347,0.00002159,-0.00000302,0.00002798,0.00000365,-0.00001006,
 0.00004280,-0.00001354,-0.00003040,-0.00002776,-0.00000046,0.00002897,
 -0.00016770,0.00004079,0.00008617,-0.00028432,0.00015406,-0.00007964,-
 0.08563964,-0.15433759,-0.02481495,-0.04656255,0.63943272,0.00310341,0
 .00061769,0.00223113,-0.02675963,0.00084616,-0.01031211,0.00288142,-0.
 00622221,-0.00478794,-0.00216543,0.00099012,0.00035510,0.00001941,0.00
 002857,-0.00006769,0.00008096,-0.00002008,0.00005790,-0.00007013,-0.00
 006242,-0.00013683,-0.00022699,0.00016372,-0.00019665,0.00092982,-0.00
 058295,0.00142074,-0.00008396,-0.00005586,-0.00015226,-0.00007520,0.00
 001603,0.00032877,-0.00040362,0.00024314,0.00003071,0.00006750,0.00000
 976,0.00000155,0.00001454,-0.00006070,-0.00005533,0.00004171,0.0000419
 3,0.00000733,-0.00005386,-0.00001711,0.00002588,0.00015189,0.00009222,
 -0.00000232,-0.00003453,-0.00006161,-0.00006823,0.00002173,0.00001783,
 0.00000330,0.00003441,0.00000099,-0.00001040,0.00004315,-0.00002210,-0
 .00002503,-0.00002704,0.00000786,0.00004110,-0.00019706,0.00002134,0.0
 0011455,0.00017965,0.00016086,-0.00016487,-0.04322180,-0.01404157,-0.0
 9091445,-0.00933896,-0.01830705,0.62019938,-0.00199867,0.00190416,-0.0
 0075793,-0.00066138,-0.00809221,0.00064184,0.00126755,0.00127881,-0.00
 010728,0.00001445,-0.00075994,0.00043224,-0.00009020,-0.00002779,0.000
 06570,-0.00001375,0.00000224,-0.00003229,0.00000118,0.00000065,-0.0000
 0156,-0.00000294,-0.00003538,0.00007633,-0.00017554,0.00014174,-0.0005
 0077,0.00001890,0.00003176,0.00004772,0.00002101,-0.00000172,-0.000099
 71,0.00003453,0.00008953,-0.00018179,-0.00004668,0.00001638,0.00002462
 ,-0.00000281,0.00000967,0.00003434,-0.00003277,-0.00002311,-0.00000683
 ,0.00003486,-0.00001047,-0.00000952,-0.00007717,-0.00001509,0.00001828
 ,0.00001253,0.00001232,-0.00000056,-0.00001516,-0.00001057,-0.00000263
 ,-0.00001530,-0.00000148,0.00000277,-0.00001348,0.00000762,0.00001008,
 0.00001570,-0.00000832,-0.00001269,0.00010292,-0.00003901,0.00000864,0
 .00002960,-0.00023409,-0.00002809,-0.03670285,0.02424672,-0.01666915,-
 0.14691596,0.10900669,-0.03745539,0.17500596,0.00021163,0.00081285,-0.
 00012844,-0.00443059,-0.00459072,-0.00116558,0.00299706,0.00196224,0.0
 0108307,-0.00029248,-0.00002917,-0.00016085,-0.00003356,-0.00003899,-0
 .00002342,0.00001509,0.00000266,0.00001423,-0.00000001,-0.00000044,-0.
 00000754,-0.00004904,0.00001825,-0.00005690,0.00006658,0.00001001,0.00
 009407,-0.00000271,-0.00001185,-0.00000856,-0.00000613,0.00000052,0.00
 001144,-0.00002881,0.00005425,0.00002624,0.00001774,-0.00000585,-0.000
 00723,0.00000318,-0.00000614,-0.00000658,0.00000531,0.00000665,0.00000
 262,-0.00000652,0.00000729,0.00001180,0.00000535,-0.00001592,-0.000011
 28,-0.00000592,-0.00000502,-0.00000431,0.00000573,0.00000494,0.0000019
 7,0.00000737,0.00000148,-0.00000164,0.00000168,-0.00000378,-0.00000297
 ,-0.00000908,0.00000928,0.00000443,-0.00004724,0.00003319,-0.00002134,
 0.00006992,0.00012696,0.00006831,-0.01884435,0.01749469,-0.00840187,0.
 12250299,-0.21706731,0.05768908,-0.12342023,0.22671727,-0.00078133,0.0
 0068573,-0.00014236,-0.00005213,-0.00249737,0.00032929,-0.00033185,0.0
 0033042,0.00097071,-0.00000204,-0.00028181,0.00015677,-0.00001390,0.00
 000804,0.00003505,-0.00001139,0.00000022,-0.00001371,0.00000477,0.0000
 1150,0.00001165,0.00004655,-0.00001865,0.00003309,-0.00007890,0.000039
 59,-0.00016899,0.00000139,0.00001674,0.00002026,0.00000798,-0.00000364
 ,-0.00003151,0.00001204,0.00002931,-0.00007649,-0.00002213,0.00000687,
 0.00001305,0.00000009,0.00000462,0.00001453,-0.00001416,-0.00000941,-0
 .00000353,0.00001559,-0.00000153,-0.00000320,-0.00003547,-0.00001351,0
 .00000478,0.00000489,0.00000609,-0.00000048,-0.00000634,-0.00000437,-0
 .00000038,-0.00000540,-0.00000049,0.00000159,-0.00000608,0.00000235,0.
 00000438,0.00000414,-0.00000122,-0.00000619,0.00004630,-0.00002515,0.0
 0000440,0.00002292,-0.00010593,-0.00004987,-0.01276450,0.00793615,-0.0
 0399552,-0.03858764,0.05252429,-0.08883533,0.05277516,-0.05958046,0.08
 556614,-0.00155017,0.00027623,0.00012544,0.00527463,-0.00571177,0.0001
 0143,-0.00094745,0.00213966,-0.00047633,0.00020174,-0.00037962,0.00070
 557,-0.00008457,-0.00005863,0.00006356,0.00000038,0.00000946,-0.000012
 01,-0.00000463,-0.00000416,-0.00000249,-0.00002382,-0.00000954,0.00001
 049,-0.00004551,0.00005817,-0.00034559,0.00002730,-0.00000871,0.000045
 83,0.00000722,0.00000010,-0.00005013,-0.00001912,0.00009657,-0.0001420
 8,-0.00003331,0.00001125,-0.00000259,0.00000786,0.00001891,0.00002655,
 -0.00002867,-0.00001394,-0.00000088,0.00002631,-0.00000610,0.00000158,
 -0.00005854,-0.00003302,-0.00000318,0.00001330,0.00000844,0.00001603,-
 0.00000692,-0.00000552,-0.00000052,-0.00000722,0.00000014,0.00000319,-
 0.00001096,0.00000513,0.00000634,0.00000242,0.00001003,-0.00000766,-0.
 00000682,0.00001498,-0.00003193,0.00002639,0.00014853,-0.00009865,-0.0
 0677170,-0.02834219,-0.03548006,-0.07595715,0.03680336,0.04476736,-0.0
 0199768,0.01157703,0.01710727,0.08218871,-0.00078773,0.00039378,-0.000
 18009,0.00376094,-0.00375495,0.00174569,0.00064162,0.00197220,0.000758
 38,0.00015943,-0.00027536,0.00035751,-0.00005380,-0.00002149,0.0000220
 4,-0.00001508,0.00000352,-0.00001977,-0.00000279,-0.00000872,0.0000067
 3,-0.00000146,-0.00001703,0.00006599,-0.00005813,0.00007723,-0.0002337
 8,0.00002770,-0.00000804,0.00004358,0.00001785,-0.00000059,-0.00004166
 ,0.00001518,0.00002822,-0.00010679,-0.00003388,0.00000669,-0.00000004,
 0.00000292,0.00001492,0.00001928,-0.00002011,-0.00001016,0.00000160,0.
 00001599,-0.00000743,-0.00000150,-0.00004372,-0.00002909,0.00000135,0.
 00001179,0.00001110,0.00001948,-0.00000696,-0.00000568,-0.00000067,-0.
 00000986,-0.00000011,0.00000269,-0.00001286,0.00000737,0.00000695,0.00
 000747,0.00000814,-0.00001272,0.00004736,0.00001235,-0.00000401,-0.000
 04376,0.00001175,-0.00010179,-0.01089529,-0.01029191,-0.01507292,0.030
 13185,-0.16090817,-0.11594325,0.00602474,-0.01433734,-0.02048931,-0.02
 619672,0.17374372,-0.00070470,0.00059060,-0.00024997,0.00311407,-0.006
 57603,0.00105410,0.00122730,0.00309202,0.00154215,0.00016323,-0.000286
 40,0.00021726,-0.00000908,-0.00005469,0.00000317,-0.00002113,0.0000115
 9,-0.00000418,0.00002576,0.00003330,0.00004844,0.00003695,-0.00004272,
 -0.00003483,-0.00008657,0.00008155,-0.00018564,0.00003162,-0.00000857,
 0.00003427,0.00001076,-0.00000939,-0.00003398,0.00000783,0.00005634,-0
 .00005682,-0.00001747,0.00000094,-0.00000831,0.00000712,0.00001601,0.0
 0001727,-0.00001571,-0.00000515,0.00000224,0.00001250,0.00000092,0.000
 00313,-0.00004623,-0.00004184,-0.00001301,0.00000888,0.00001114,0.0000
 1807,-0.00000276,-0.00000285,0.00000019,-0.00000516,0.00000060,0.00000
 270,-0.00001089,0.00000365,0.00000618,-0.00000017,0.00000851,-0.000004
 69,-0.00003229,0.00003278,-0.00003506,0.00001346,0.00018365,-0.0000175
 1,-0.01144207,-0.00742447,-0.00565593,0.03685963,-0.11390346,-0.209477
 49,-0.00080240,0.00723986,0.01178205,-0.03629304,0.13462794,0.22232317
 ,-0.00159519,0.00066540,-0.00100372,0.00495968,-0.00883098,0.00503395,
 0.00076261,0.00382715,-0.00118193,0.00058704,-0.00059100,0.00053492,-0
 .00021952,-0.00010328,0.00005719,0.00002360,0.00000880,-0.00001409,-0.
 00000949,-0.00002741,-0.00003895,-0.00011702,0.00000299,0.00002386,-0.
 00013762,0.00026485,-0.00068103,0.00002766,-0.00000756,0.00008119,0.00
 001596,0.00000937,-0.00012606,0.00004155,0.00001916,-0.00011058,-0.000
 02295,0.00001112,-0.00000803,-0.00000296,0.00001787,0.00002124,-0.0000
 1500,-0.00001451,-0.00000686,0.00002227,0.00000037,-0.00000967,-0.0000
 4410,-0.00000982,-0.00000220,0.00001292,0.00000781,0.00002019,-0.00000
 637,-0.00000750,0.,-0.00000865,-0.00000163,0.00000410,-0.00000644,0.00
 000295,0.00000790,0.00000896,-0.00001077,0.00000029,-0.00001498,0.0000
 4420,-0.00004248,0.00004097,0.00023419,0.00005874,-0.03160282,-0.02265
 722,0.01810542,-0.09813268,-0.04101894,0.06777665,0.01220314,0.0096900
 1,-0.01733580,-0.00022205,-0.00268267,0.00797055,0.11345146,-0.0008445
 1,0.00035302,-0.00034409,0.00365557,-0.00315506,0.00188777,0.00109219,
 0.00152521,-0.00049486,0.00028794,-0.00028609,0.00029955,-0.00011618,-
 0.00001384,0.00008160,0.00000990,-0.00000255,-0.00002024,-0.00002520,-
 0.00002854,-0.00003930,-0.00001251,0.00001930,0.00007293,-0.00009416,0
 .00008588,-0.00038090,0.00001226,-0.00000483,0.00004962,0.00001571,0.0
 0000421,-0.00006562,0.00003578,0.00002536,-0.00007263,-0.00002051,0.00
 000795,-0.00000263,-0.00000231,0.00001538,0.00001669,-0.00001428,-0.00
 001167,-0.00000500,0.00001860,-0.00000415,-0.00000791,-0.00003676,-0.0
 0000597,0.00000449,0.00001021,0.00000598,0.00001465,-0.00000597,-0.000
 00623,-0.00000027,-0.00000767,-0.00000157,0.00000313,-0.00000649,0.000
 00345,0.00000615,0.00000878,-0.00000563,-0.00000624,0.00005273,-0.0000
 0085,-0.00001917,-0.00003718,0.00000207,-0.00000676,-0.01823818,-0.009
 13960,0.00702378,-0.04639310,-0.12698067,0.09444960,-0.01009361,-0.011
 15000,0.02143092,0.00959192,0.01338510,-0.01763584,0.06115703,0.135364
 35,-0.00025945,-0.00041156,-0.00031915,-0.00014811,0.00213753,0.000665
 38,-0.00254239,-0.00118626,0.00017407,0.00013497,-0.00004535,-0.000113
 27,0.00002118,0.00002935,-0.00001676,-0.00000095,-0.00000286,0.0000043
 7,-0.00000094,0.00000247,-0.00000220,0.00002236,-0.00000066,0.00000355
 ,-0.00005069,0.00003880,-0.00002848,-0.00000563,0.00001693,-0.00000288
 ,0.00000362,0.00000616,-0.00002043,0.00003301,-0.00004942,0.00000404,-
 0.00000565,-0.00000468,0.00000737,-0.00000129,-0.00000251,0.00000032,-
 0.00000291,-0.00000247,0.00000254,0.00000104,0.00000222,0.00000459,-0.
 00000522,-0.00001339,0.00000213,-0.00000101,0.00000606,-0.00000072,-0.
 00000122,0.00000132,-0.00000034,-0.00000087,0.00000161,-0.00000129,-0.
 00000467,0.00000310,-0.00000105,-0.00000244,0.00000991,-0.00000865,0.0
 0002706,-0.00000666,0.00000875,-0.00000488,-0.00008877,0.00000722,-0.0
 0688548,-0.00858657,0.01797133,0.07631799,0.09651421,-0.21961053,0.002
 53090,0.00334183,-0.00562018,0.00996648,0.01452909,-0.02127695,-0.0791
 3481,-0.10623944,0.22816725\\0.00020300,0.00005847,-0.00041117,-0.0000
 3074,0.00001002,0.00009265,0.00000478,-0.00000337,-0.00000920,0.000127
 20,-0.00030761,0.00020951,0.00001923,-0.00008009,-0.00002369,0.0000273
 7,-0.00031862,-0.00025599,0.00017411,-0.00001562,0.00037998,-0.0001825
 9,0.00031656,-0.00009727,0.00013878,-0.00015141,-0.00000757,-0.0003856
 0,0.00013521,-0.00039950,0.00009871,0.00046306,0.00035629,0.00003631,-
 0.00015548,-0.00000780,0.00002498,-0.00005721,0.00006235,0.00000121,0.
 00000311,-0.00000143,-0.00000148,0.00000493,-0.00000298,-0.00000541,0.
 00000761,-0.00000575,-0.00004097,0.00008086,-0.00008762,0.00000500,-0.
 00000478,0.00000770,-0.00000355,0.00000601,-0.00000465,-0.00000055,0.0
 0000236,-0.00000067,0.00000246,-0.00000150,0.00000331,0.00000093,-0.00
 000099,0.00000245,-0.00015494,0.00002139,0.00005917,-0.00005237,-0.000
 00423,0.00012965,-0.00000701,0.00000030,0.00001423,0.00000156,-0.00000
 205,-0.00000319,-0.00000110,-0.00000253,0.00000113,0.00000104,-0.00000
 109,0.00000023,-0.00000035,-0.00000332,-0.00000014\\\@
 The archive entry for this job was punched.


 SCIENCE IS LONG AND LIFE IS SHORT.

                     DON MOSER IN THE FEBRUARY 1979 SMITHSONIAN
 Job cpu time:       0 days  6 hours  4 minutes 33.3 seconds.
 Elapsed time:       0 days  0 hours 55 minutes 46.8 seconds.
 File lengths (MBytes):  RWF=      6 Int=      0 D2E=      0 Chk=      2 Scr=      1
 Normal termination of Gaussian 16 at Sat Jan 20 06:55:38 2024.
