Unloading slurm/anatra/current
  ERROR: No such file or directory on
    '/cm/local/modulefiles/slurm/anatra/current'
environment: line 0: unalias: gv: not found
environment: line 0: unalias: sl: not found
 Entering Gaussian System, Link 0=g16
 Initial command:
 /apps/gaussian/g16/C.01/g16/l1.exe "/local/jobs/1153156/Gau-1514135.inp" -scrdir="/local/jobs/1153156/"
 Entering Link 1 = /apps/gaussian/g16/C.01/g16/l1.exe PID=   1514136.
  
 Copyright (c) 1988-2019, Gaussian, Inc.  All Rights Reserved.
  
 This is part of the Gaussian(R) 16 program.  It is based on
 the Gaussian(R) 09 system (copyright 2009, Gaussian, Inc.),
 the Gaussian(R) 03 system (copyright 2003, Gaussian, Inc.),
 the Gaussian(R) 98 system (copyright 1998, Gaussian, Inc.),
 the Gaussian(R) 94 system (copyright 1995, Gaussian, Inc.),
 the Gaussian 92(TM) system (copyright 1992, Gaussian, Inc.),
 the Gaussian 90(TM) system (copyright 1990, Gaussian, Inc.),
 the Gaussian 88(TM) system (copyright 1988, Gaussian, Inc.),
 the Gaussian 86(TM) system (copyright 1986, Carnegie Mellon
 University), and the Gaussian 82(TM) system (copyright 1983,
 Carnegie Mellon University). Gaussian is a federally registered
 trademark of Gaussian, Inc.
  
 This software contains proprietary and confidential information,
 including trade secrets, belonging to Gaussian, Inc.
  
 This software is provided under written license and may be
 used, copied, transmitted, or stored only in accord with that
 written license.
  
 The following legend is applicable only to US Government
 contracts under FAR:
  
                    RESTRICTED RIGHTS LEGEND
  
 Use, reproduction and disclosure by the US Government is
 subject to restrictions as set forth in subparagraphs (a)
 and (c) of the Commercial Computer Software - Restricted
 Rights clause in FAR 52.227-19.
  
 Gaussian, Inc.
 340 Quinnipiac St., Bldg. 40, Wallingford CT 06492
  
  
 ---------------------------------------------------------------
 Warning -- This program may not be used in any manner that
 competes with the business of Gaussian, Inc. or will provide
 assistance to any competitor of Gaussian, Inc.  The licensee
 of this program is prohibited from giving any competitor of
 Gaussian, Inc. access to this program.  By using this program,
 the user acknowledges that Gaussian, Inc. is engaged in the
 business of creating and licensing software in the field of
 computational chemistry and represents and warrants to the
 licensee that it is not a competitor of Gaussian, Inc. and that
 it will not use this program in any manner prohibited above.
 ---------------------------------------------------------------
  

 Cite this work as:
 Gaussian 16, Revision C.01,
 M. J. Frisch, G. W. Trucks, H. B. Schlegel, G. E. Scuseria, 
 M. A. Robb, J. R. Cheeseman, G. Scalmani, V. Barone, 
 G. A. Petersson, H. Nakatsuji, X. Li, M. Caricato, A. V. Marenich, 
 J. Bloino, B. G. Janesko, R. Gomperts, B. Mennucci, H. P. Hratchian, 
 J. V. Ortiz, A. F. Izmaylov, J. L. Sonnenberg, D. Williams-Young, 
 F. Ding, F. Lipparini, F. Egidi, J. Goings, B. Peng, A. Petrone, 
 T. Henderson, D. Ranasinghe, V. G. Zakrzewski, J. Gao, N. Rega, 
 G. Zheng, W. Liang, M. Hada, M. Ehara, K. Toyota, R. Fukuda, 
 J. Hasegawa, M. Ishida, T. Nakajima, Y. Honda, O. Kitao, H. Nakai, 
 T. Vreven, K. Throssell, J. A. Montgomery, Jr., J. E. Peralta, 
 F. Ogliaro, M. J. Bearpark, J. J. Heyd, E. N. Brothers, K. N. Kudin, 
 V. N. Staroverov, T. A. Keith, R. Kobayashi, J. Normand, 
 K. Raghavachari, A. P. Rendell, J. C. Burant, S. S. Iyengar, 
 J. Tomasi, M. Cossi, J. M. Millam, M. Klene, C. Adamo, R. Cammi, 
 J. W. Ochterski, R. L. Martin, K. Morokuma, O. Farkas, 
 J. B. Foresman, and D. J. Fox, Gaussian, Inc., Wallingford CT, 2019.
 
 ******************************************
 Gaussian 16:  ES64L-G16RevC.01  3-Jul-2019
                30-Dec-2023 
 ******************************************
 %chk=BPA_TS_2_opt_hf_re2_freq.chk
 %nprocshared=12
 Will use up to   12 processors via shared memory.
 %mem=48GB
 -----------------------------------------------------------
 # wb97xd def2svp scrf=(iefpcm,solvent=toluene) freq=noraman
 -----------------------------------------------------------
 1/10=4,30=1,38=1/1,3;
 2/12=2,17=6,18=5,40=1/2;
 3/5=43,7=101,11=2,25=1,30=1,70=2201,71=2,72=13,74=-58,140=1/1,2,3;
 4//1;
 5/5=2,38=5,53=13,98=1/2;
 8/6=4,10=90,11=11/1;
 11/6=1,8=1,9=11,15=111,16=1/1,2,10;
 10/6=1/2;
 6/7=2,8=2,9=2,10=2,28=1/1;
 7/8=1,10=1,25=1/1,2,3,16;
 1/10=4,30=1/3;
 99//99;
 -----------------------
 BPA_TS_2_opt_hf_re2.out
 -----------------------
 Symbolic Z-matrix:
 Charge =  0 Multiplicity = 1
 C                    -0.85189   0.67477  -2.39809 
 C                    -0.80658   1.84188  -1.54845 
 C                     0.0987    4.03473  -0.73294 
 C                     2.76388   2.91642  -0.97463 
 O                    -1.67893   1.90864  -0.54985 
 H                     0.18687   3.75283   0.32852 
 H                    -0.85909   4.5637   -0.85096 
 H                     0.89873   4.75033  -0.96215 
 O                     3.14381   3.38435   0.06942 
 O                     3.11833   3.37006  -2.1694 
 C                     4.01222   4.4746   -2.19 
 H                     4.18447   4.70937  -3.24539 
 H                     3.5726    5.34039  -1.6743 
 H                     4.96086   4.21432  -1.6999 
 Si                   -3.39074   1.73593  -0.46696 
 C                    -4.04406   1.18959  -2.13309 
 H                    -5.14079   1.29664  -2.13939 
 H                    -3.64083   1.8097   -2.94816 
 H                    -3.80824   0.13985  -2.35703 
 C                    -3.74478   0.4918    0.87456 
 H                    -3.60354   0.91728   1.87899 
 H                    -3.08367  -0.38056   0.7748 
 H                    -4.78573   0.13925   0.80318 
 C                    -4.0611    3.45481  -0.02426 
 C                    -3.87928   4.4075   -1.21626 
 H                    -4.21046   5.42571  -0.94863 
 H                    -2.82748   4.47697  -1.53503 
 H                    -4.47057   4.08886  -2.08895 
 C                    -5.55968   3.32818   0.30134 
 H                    -6.1392    2.93189  -0.54827 
 H                    -5.97987   4.31871   0.54721 
 H                    -5.73916   2.6725    1.16825 
 C                    -3.31933   4.00355   1.20377 
 H                    -3.68565   5.01451   1.45293 
 H                    -3.4823    3.36985   2.09006 
 H                    -2.23447   4.06586   1.03439 
 C                     1.87225   1.68778  -1.05665 
 C                     0.17507   2.82569  -1.62759 
 C                    -0.05168   0.45413  -3.46162 
 O                     2.14992   0.83872  -1.93316 
 H                     1.46221   1.39782  -0.07589 
 C                    -0.011    -0.83413  -4.20539 
 H                    -1.51889  -0.12765  -2.07205 
 H                     0.66081   2.9413   -2.59783 
 C                     1.79831   2.68785   3.04725 
 C                     0.58941   3.23062   3.40248 
 C                    -0.59907   2.4864    3.21072 
 C                    -0.55498   1.22045   2.68082 
 H                     2.72103   3.26036   3.15876 
 H                     0.53885   4.23854   3.81923 
 H                    -1.56118   2.92729   3.47762 
 H                    -1.47835   0.66672   2.52169 
 C                     1.87433   1.38068   2.49395 
 C                     0.68307   0.62171   2.31905 
 C                     0.77482  -0.68991   1.74025 
 C                     2.00111  -1.1224    1.27172 
 C                     3.19919  -0.3604    1.40513 
 C                     3.11175   0.85423   2.04534 
 O                     2.07525  -2.34269   0.64766 
 H                     4.01126   1.45921   2.17265 
 C                    -2.80106  -3.00434   1.12974 
 C                    -1.98661  -2.71462   0.05965 
 C                    -0.76949  -2.02077   0.32109 
 C                    -0.42522  -1.55828   1.57845 
 H                    -3.74366  -3.52898   0.95599 
 O                     0.06053  -1.75122  -0.73853 
 C                    -1.24353  -1.93346   2.69572 
 C                    -2.44604  -2.65805   2.4586 
 C                    -3.27252  -3.01963   3.55788 
 C                    -2.91324  -2.69893   4.84303 
 C                    -1.70025  -2.01028   5.08425 
 C                    -0.88733  -1.6382    4.04131 
 H                    -4.19683  -3.56761   3.35958 
 H                    -3.55209  -2.98479   5.68113 
 H                    -1.40406  -1.77919   6.10957 
 H                     0.04986  -1.11899   4.24435 
 C                     6.93522  -1.6056   -0.30818 
 C                     6.47257  -0.30256  -0.48317 
 C                     5.25703   0.08716   0.07476 
 C                     4.48458  -0.81837   0.81503 
 C                     4.95869  -2.12661   0.98432 
 C                     6.17526  -2.51413   0.42873 
 H                     7.88544  -1.91521  -0.74881 
 H                     7.05627   0.41443  -1.06458 
 H                     4.89143   1.10558  -0.07448 
 H                     4.3703   -2.84582   1.5552 
 H                     6.53127  -3.53671   0.57128 
 P                     1.49191  -2.54135  -0.8615 
 O                     1.42095  -3.97437  -1.18741 
 O                     2.28374  -1.63196  -1.84018 
 H                     2.1639   -0.60519  -1.8094 
 C                    -3.33559  -3.52493  -3.93818 
 C                    -2.1057   -4.02513  -3.50928 
 C                    -1.64841  -3.77293  -2.21727 
 C                    -2.42578  -3.01567  -1.33086 
 C                    -3.66712  -2.52959  -1.76439 
 C                    -4.1185   -2.77732  -3.06017 
 H                    -3.6845   -3.72061  -4.95449 
 H                    -1.48915  -4.61798  -4.1884 
 H                    -0.68017  -4.16364  -1.89778 
 H                    -4.27865  -1.93834  -1.07815 
 H                    -5.08378  -2.38116  -3.38341 
 H                     0.61062   1.24645  -3.81982 
 H                    -0.15401  -0.67121  -5.28503 
 H                     0.98235  -1.2937   -4.07688 
 H                    -0.76561  -1.54374  -3.83939 
 

 GradGradGradGradGradGradGradGradGradGradGradGradGradGradGradGradGradGrad
 Berny optimization.
 Initialization pass.
 Trust Radius=3.00D-01 FncErr=1.00D-07 GrdErr=1.00D-07 EigMax=2.50D+02 EigMin=1.00D-04
 Number of steps in this run=      2 maximum allowed number of steps=      2.
 GradGradGradGradGradGradGradGradGradGradGradGradGradGradGradGradGradGrad

 Stoichiometry    C47H49O8PSi
 Framework group  C1[X(C47H49O8PSi)]
 Deg. of freedom   312
 Full point group                 C1      NOp   1
 Largest Abelian subgroup         C1      NOp   1
 Largest concise Abelian subgroup C1      NOp   1
                         Standard orientation:                         
 ---------------------------------------------------------------------
 Center     Atomic      Atomic             Coordinates (Angstroms)
 Number     Number       Type             X           Y           Z
 ---------------------------------------------------------------------
      1          6           0       -0.851890    0.674771   -2.398090
      2          6           0       -0.806579    1.841881   -1.548450
      3          6           0        0.098701    4.034730   -0.732940
      4          6           0        2.763881    2.916419   -0.974630
      5          8           0       -1.678929    1.908641   -0.549850
      6          1           0        0.186871    3.752830    0.328520
      7          1           0       -0.859088    4.563701   -0.850960
      8          1           0        0.898732    4.750330   -0.962150
      9          8           0        3.143811    3.384349    0.069420
     10          8           0        3.118331    3.370059   -2.169400
     11          6           0        4.012222    4.474599   -2.190000
     12          1           0        4.184472    4.709369   -3.245390
     13          1           0        3.572602    5.340389   -1.674300
     14          1           0        4.960862    4.214318   -1.699900
     15         14           0       -3.390739    1.735932   -0.466960
     16          6           0       -4.044060    1.189592   -2.133090
     17          1           0       -5.140790    1.296642   -2.139390
     18          1           0       -3.640829    1.809702   -2.948160
     19          1           0       -3.808240    0.139852   -2.357030
     20          6           0       -3.744780    0.491802    0.874560
     21          1           0       -3.603540    0.917282    1.878990
     22          1           0       -3.083670   -0.380558    0.774800
     23          1           0       -4.785730    0.139252    0.803180
     24          6           0       -4.061099    3.454812   -0.024260
     25          6           0       -3.879278    4.407502   -1.216260
     26          1           0       -4.210458    5.425712   -0.948630
     27          1           0       -2.827478    4.476971   -1.535030
     28          1           0       -4.470569    4.088862   -2.088950
     29          6           0       -5.559679    3.328183    0.301340
     30          1           0       -6.139199    2.931893   -0.548270
     31          1           0       -5.979868    4.318713    0.547210
     32          1           0       -5.739159    2.672503    1.168250
     33          6           0       -3.319329    4.003552    1.203770
     34          1           0       -3.685648    5.014512    1.452930
     35          1           0       -3.482299    3.369852    2.090060
     36          1           0       -2.234469    4.065861    1.034390
     37          6           0        1.872251    1.687779   -1.056650
     38          6           0        0.175071    2.825690   -1.627590
     39          6           0       -0.051680    0.454130   -3.461620
     40          8           0        2.149920    0.838719   -1.933160
     41          1           0        1.462210    1.397820   -0.075890
     42          6           0       -0.011001   -0.834130   -4.205390
     43          1           0       -1.518890   -0.127649   -2.072050
     44          1           0        0.660811    2.941300   -2.597830
     45          6           0        1.798311    2.687850    3.047250
     46          6           0        0.589411    3.230620    3.402480
     47          6           0       -0.599069    2.486401    3.210720
     48          6           0       -0.554980    1.220450    2.680820
     49          1           0        2.721031    3.260359    3.158760
     50          1           0        0.538852    4.238540    3.819230
     51          1           0       -1.561179    2.927291    3.477620
     52          1           0       -1.478350    0.666721    2.521690
     53          6           0        1.874330    1.380679    2.493950
     54          6           0        0.683070    0.621710    2.319050
     55          6           0        0.774820   -0.689910    1.740250
     56          6           0        2.001109   -1.122401    1.271720
     57          6           0        3.199190   -0.360401    1.405130
     58          6           0        3.111750    0.854229    2.045340
     59          8           0        2.075249   -2.342691    0.647660
     60          1           0        4.011260    1.459209    2.172650
     61          6           0       -2.801061   -3.004339    1.129740
     62          6           0       -1.986611   -2.714619    0.059650
     63          6           0       -0.769491   -2.020769    0.321090
     64          6           0       -0.425221   -1.558280    1.578450
     65          1           0       -3.743662   -3.528978    0.955990
     66          8           0        0.060529   -1.751220   -0.738530
     67          6           0       -1.243531   -1.933459    2.695720
     68          6           0       -2.446041   -2.658049    2.458600
     69          6           0       -3.272521   -3.019628    3.557880
     70          6           0       -2.913241   -2.698929    4.843030
     71          6           0       -1.700251   -2.010279    5.084250
     72          6           0       -0.887331   -1.638199    4.041310
     73          1           0       -4.196832   -3.567608    3.359580
     74          1           0       -3.552091   -2.984788    5.681130
     75          1           0       -1.404061   -1.779189    6.109570
     76          1           0        0.049859   -1.118990    4.244350
     77          6           0        6.935219   -1.605603   -0.308180
     78          6           0        6.472570   -0.302562   -0.483170
     79          6           0        5.257030    0.087158    0.074760
     80          6           0        4.484579   -0.818372    0.815030
     81          6           0        4.958689   -2.126612    0.984320
     82          6           0        6.175259   -2.514132    0.428730
     83          1           0        7.885439   -1.915213   -0.748810
     84          1           0        7.056270    0.414427   -1.064580
     85          1           0        4.891430    1.105578   -0.074480
     86          1           0        4.370299   -2.845822    1.555200
     87          1           0        6.531268   -3.536712    0.571280
     88         15           0        1.491909   -2.541350   -0.861500
     89          8           0        1.420948   -3.974370   -1.187410
     90          8           0        2.283739   -1.631961   -1.840180
     91          1           0        2.163900   -0.605191   -1.809400
     92          6           0       -3.335592   -3.524928   -3.938180
     93          6           0       -2.105702   -4.025129   -3.509280
     94          6           0       -1.648412   -3.772929   -2.217270
     95          6           0       -2.425781   -3.015669   -1.330860
     96          6           0       -3.667121   -2.529588   -1.764390
     97          6           0       -4.118501   -2.777318   -3.060170
     98          1           0       -3.684502   -3.720608   -4.954490
     99          1           0       -1.489152   -4.617979   -4.188400
    100          1           0       -0.680172   -4.163639   -1.897780
    101          1           0       -4.278651   -1.938338   -1.078150
    102          1           0       -5.083781   -2.381158   -3.383410
    103          1           0        0.610620    1.246450   -3.819820
    104          1           0       -0.154010   -0.671210   -5.285030
    105          1           0        0.982349   -1.293700   -4.076880
    106          1           0       -0.765611   -1.543739   -3.839390
 ---------------------------------------------------------------------
 Rotational constants (GHZ):           0.0572150           0.0458834           0.0409961
 Standard basis: def2SVP (5D, 7F)
 There are  1108 symmetry adapted cartesian basis functions of A   symmetry.
 There are  1051 symmetry adapted basis functions of A   symmetry.
  1051 basis functions,  1792 primitive gaussians,  1108 cartesian basis functions
   212 alpha electrons      212 beta electrons
       nuclear repulsion energy      9582.0346456879 Hartrees.
 NAtoms=  106 NActive=  106 NUniq=  106 SFac= 1.00D+00 NAtFMM=   60 NAOKFM=T Big=T
 Integral buffers will be    131072 words long.
 Raffenetti 2 integral format.
 Two-electron integral symmetry is turned on.
 Nuclear repulsion after empirical dispersion term =     9581.9018418018 Hartrees.
 Force inversion solution in PCM.
 ------------------------------------------------------------------------------
 Polarizable Continuum Model (PCM)
 =================================
 Model                : PCM.
 Atomic radii         : UFF (Universal Force Field).
 Polarization charges : Total charges.
 Charge compensation  : None.
 Solution method      : Matrix inversion.
 Cavity type          : Scaled VdW (van der Waals Surface) (Alpha=1.100).
 Cavity algorithm     : GePol (No added spheres)
                        Default sphere list used, NSphG=  106.
                        Lebedev-Laikov grids with approx.  5.0 points / Ang**2.
                        Smoothing algorithm: York/Karplus (Gamma=1.0000).
                        Polarization charges: spherical gaussians, with
                                              point-specific exponents (IZeta= 3).
                        Self-potential: point-specific (ISelfS= 7).
                        Self-field    : sphere-specific E.n sum rule (ISelfD= 2).
 1st derivatives      : Analytical E(r).r(x)/FMM algorithm (CHGder, D1EAlg=3).
                        Cavity 1st derivative terms included.
 2nd derivatives      : Analytical E(r).r(xy)/FMM algorithm (CHGder, D2EAlg=3).
                        Cavity 2nd derivative terms included.
 Solvent              : Toluene, Eps=   2.374100 Eps(inf)=   2.238315
 ------------------------------------------------------------------------------
 One-electron integrals computed using PRISM.
   1 Symmetry operations used in ECPInt.
 ECPInt:  NShTT=  121771 NPrTT=  444119 LenC2=   97147 LenP2D=  219381.
 LDataN:  DoStor=T MaxTD1= 4 Len=   56
 NBasis=  1051 RedAO= T EigKep=  1.52D-04  NBF=  1051
 NBsUse=  1051 1.00D-06 EigRej= -1.00D+00 NBFU=  1051
 ExpMin= 7.80D-02 ExpMax= 8.00D+03 ExpMxC= 1.20D+03 IAcc=3 IRadAn=         5 AccDes= 0.00D+00
 Harris functional with IExCor= 4639 and IRadAn=       5 diagonalized for initial guess.
 HarFok:  IExCor= 4639 AccDes= 0.00D+00 IRadAn=         5 IDoV= 1 UseB2=F ITyADJ=14
 ICtDFT=  3500011 ScaDFX=  1.000000  1.000000  1.000000  1.000000
 FoFCou: FMM=F IPFlag=           0 FMFlag=      100000 FMFlg1=        2001
         NFxFlg=           0 DoJE=T BraDBF=F KetDBF=T FulRan=T
         wScrn=  0.000000 ICntrl=       500 IOpCl=  0 I1Cent=   200000004 NGrid=           0
         NMat0=    1 NMatS0=      1 NMatT0=    0 NMatD0=    1 NMtDS0=    0 NMtDT0=    0
 Petite list used in FoFCou.
 Requested convergence on RMS density matrix=1.00D-08 within 128 cycles.
 Requested convergence on MAX density matrix=1.00D-06.
 Requested convergence on             energy=1.00D-06.
 No special actions if energy rises.
 Inv3:  Mode=1 IEnd=   114725568.
 Iteration    1 A*A^-1 deviation from unit magnitude is 3.77D-15 for   5175.
 Iteration    1 A*A^-1 deviation from orthogonality  is 2.69D-15 for   3940   1117.
 Iteration    1 A^-1*A deviation from unit magnitude is 3.55D-15 for   1275.
 Iteration    1 A^-1*A deviation from orthogonality  is 2.22D-15 for   5426   4270.
 Error on total polarization charges =  0.01123
 SCF Done:  E(RwB97XD) =  -3050.63556567     A.U. after   14 cycles
            NFock= 14  Conv=0.79D-08     -V/T= 2.0091
 DoSCS=F DFT=T ScalE2(SS,OS)=  1.000000  1.000000
 Range of M.O.s used for correlation:     1  1051
 NBasis=  1051 NAE=   212 NBE=   212 NFC=     0 NFV=     0
 NROrb=   1051 NOA=   212 NOB=   212 NVA=   839 NVB=   839

 **** Warning!!: The largest alpha MO coefficient is  0.12770754D+02

   1 Symmetry operations used in ECPInt.
 ECPInt:  NShTT=  121771 NPrTT=  444119 LenC2=   97147 LenP2D=  219381.
 LDataN:  DoStor=T MaxTD1= 5 Len=  102
 Number of processors reduced to   5 by ecpmxn.
 Symmetrizing basis deriv contribution to polar:
 IMax=3 JMax=2 DiffMx= 0.00D+00
 G2DrvN: will do   107 centers at a time, making    1 passes.
 Calling FoFCou, ICntrl=  3107 FMM=T I1Cent=   0 AccDes= 0.00D+00.
 NEqPCM:  Using equilibrium solvation (IEInf=0, Eps=   2.3741, EpsInf=   2.2383)
 G2PCM: DoFxE=T DoFxN=T DoGrad=T DoDP/DQ/DG/TGxP=FFFF NFrqRd=   0 IEInf=0 SqF1=F DoCFld=F IF1Alg=4.
 End of G2Drv F.D. properties file   721 does not exist.
 End of G2Drv F.D. properties file   722 does not exist.
 End of G2Drv F.D. properties file   788 does not exist.
          IDoAtm=11111111111111111111111111111111111111111111111111
          IDoAtm=11111111111111111111111111111111111111111111111111
          IDoAtm=111111
 NEqPCM:  Using equilibrium solvation (IEInf=0, Eps=   2.3741, EpsInf=   2.2383)
          Differentiating once with respect to electric field.
                with respect to dipole field.
          Differentiating once with respect to nuclear coordinates.
 CalDSu exits because no D1Ps are significant.
          There are   321 degrees of freedom in the 1st order CPHF.  IDoFFX=6 NUNeed=     3.
    321 vectors produced by pass  0 Test12= 1.78D-13 1.00D-09 XBig12= 3.39D+02 4.89D+00.
 AX will form    72 AO Fock derivatives at one time.
    318 vectors produced by pass  1 Test12= 1.78D-13 1.00D-09 XBig12= 3.76D+01 5.79D-01.
    318 vectors produced by pass  2 Test12= 1.78D-13 1.00D-09 XBig12= 1.03D+00 1.37D-01.
    318 vectors produced by pass  3 Test12= 1.78D-13 1.00D-09 XBig12= 1.54D-02 1.03D-02.
    318 vectors produced by pass  4 Test12= 1.78D-13 1.00D-09 XBig12= 1.39D-04 8.15D-04.
    318 vectors produced by pass  5 Test12= 1.78D-13 1.00D-09 XBig12= 9.68D-07 5.98D-05.
    266 vectors produced by pass  6 Test12= 1.78D-13 1.00D-09 XBig12= 5.77D-09 3.27D-06.
     73 vectors produced by pass  7 Test12= 1.78D-13 1.00D-09 XBig12= 2.82D-11 2.36D-07.
     20 vectors produced by pass  8 Test12= 1.78D-13 1.00D-09 XBig12= 1.41D-13 2.08D-08.
     10 vectors produced by pass  9 Test12= 1.78D-13 1.00D-09 XBig12= 4.34D-15 2.55D-09.
      5 vectors produced by pass 10 Test12= 1.78D-13 1.00D-09 XBig12= 3.32D-15 2.37D-09.
      3 vectors produced by pass 11 Test12= 1.78D-13 1.00D-09 XBig12= 2.35D-15 2.47D-09.
      1 vectors produced by pass 12 Test12= 1.78D-13 1.00D-09 XBig12= 5.76D-16 1.41D-09.
      1 vectors produced by pass 13 Test12= 1.78D-13 1.00D-09 XBig12= 5.61D-16 1.42D-09.
      1 vectors produced by pass 14 Test12= 1.78D-13 1.00D-09 XBig12= 5.36D-16 1.08D-09.
 InvSVY:  IOpt=1 It=  1 EMax= 2.49D-14
 Solved reduced A of dimension  2291 with   321 vectors.
 Isotropic polarizability for W=    0.000000      664.94 Bohr**3.
 End of Minotr F.D. properties file   721 does not exist.
 End of Minotr F.D. properties file   722 does not exist.
 End of Minotr F.D. properties file   788 does not exist.
 Hyperfine terms turned off by default for NAtoms > 100.

 **********************************************************************

            Population analysis using the SCF Density.

 **********************************************************************

 Orbital symmetries:
       Occupied  (A) (A) (A) (A) (A) (A) (A) (A) (A) (A) (A) (A)
                 (A) (A) (A) (A) (A) (A) (A) (A) (A) (A) (A) (A)
                 (A) (A) (A) (A) (A) (A) (A) (A) (A) (A) (A) (A)
                 (A) (A) (A) (A) (A) (A) (A) (A) (A) (A) (A) (A)
                 (A) (A) (A) (A) (A) (A) (A) (A) (A) (A) (A) (A)
                 (A) (A) (A) (A) (A) (A) (A) (A) (A) (A) (A) (A)
                 (A) (A) (A) (A) (A) (A) (A) (A) (A) (A) (A) (A)
                 (A) (A) (A) (A) (A) (A) (A) (A) (A) (A) (A) (A)
                 (A) (A) (A) (A) (A) (A) (A) (A) (A) (A) (A) (A)
                 (A) (A) (A) (A) (A) (A) (A) (A) (A) (A) (A) (A)
                 (A) (A) (A) (A) (A) (A) (A) (A) (A) (A) (A) (A)
                 (A) (A) (A) (A) (A) (A) (A) (A) (A) (A) (A) (A)
                 (A) (A) (A) (A) (A) (A) (A) (A) (A) (A) (A) (A)
                 (A) (A) (A) (A) (A) (A) (A) (A) (A) (A) (A) (A)
                 (A) (A) (A) (A) (A) (A) (A) (A) (A) (A) (A) (A)
                 (A) (A) (A) (A) (A) (A) (A) (A) (A) (A) (A) (A)
                 (A) (A) (A) (A) (A) (A) (A) (A) (A) (A) (A) (A)
                 (A) (A) (A) (A) (A) (A) (A) (A)
       Virtual   (A) (A) (A) (A) (A) (A) (A) (A) (A) (A) (A) (A)
                 (A) (A) (A) (A) (A) (A) (A) (A) (A) (A) (A) (A)
                 (A) (A) (A) (A) (A) (A) (A) (A) (A) (A) (A) (A)
                 (A) (A) (A) (A) (A) (A) (A) (A) (A) (A) (A) (A)
                 (A) (A) (A) (A) (A) (A) (A) (A) (A) (A) (A) (A)
                 (A) (A) (A) (A) (A) (A) (A) (A) (A) (A) (A) (A)
                 (A) (A) (A) (A) (A) (A) (A) (A) (A) (A) (A) (A)
                 (A) (A) (A) (A) (A) (A) (A) (A) (A) (A) (A) (A)
                 (A) (A) (A) (A) (A) (A) (A) (A) (A) (A) (A) (A)
                 (A) (A) (A) (A) (A) (A) (A) (A) (A) (A) (A) (A)
                 (A) (A) (A) (A) (A) (A) (A) (A) (A) (A) (A) (A)
                 (A) (A) (A) (A) (A) (A) (A) (A) (A) (A) (A) (A)
                 (A) (A) (A) (A) (A) (A) (A) (A) (A) (A) (A) (A)
                 (A) (A) (A) (A) (A) (A) (A) (A) (A) (A) (A) (A)
                 (A) (A) (A) (A) (A) (A) (A) (A) (A) (A) (A) (A)
                 (A) (A) (A) (A) (A) (A) (A) (A) (A) (A) (A) (A)
                 (A) (A) (A) (A) (A) (A) (A) (A) (A) (A) (A) (A)
                 (A) (A) (A) (A) (A) (A) (A) (A) (A) (A) (A) (A)
                 (A) (A) (A) (A) (A) (A) (A) (A) (A) (A) (A) (A)
                 (A) (A) (A) (A) (A) (A) (A) (A) (A) (A) (A) (A)
                 (A) (A) (A) (A) (A) (A) (A) (A) (A) (A) (A) (A)
                 (A) (A) (A) (A) (A) (A) (A) (A) (A) (A) (A) (A)
                 (A) (A) (A) (A) (A) (A) (A) (A) (A) (A) (A) (A)
                 (A) (A) (A) (A) (A) (A) (A) (A) (A) (A) (A) (A)
                 (A) (A) (A) (A) (A) (A) (A) (A) (A) (A) (A) (A)
                 (A) (A) (A) (A) (A) (A) (A) (A) (A) (A) (A) (A)
                 (A) (A) (A) (A) (A) (A) (A) (A) (A) (A) (A) (A)
                 (A) (A) (A) (A) (A) (A) (A) (A) (A) (A) (A) (A)
                 (A) (A) (A) (A) (A) (A) (A) (A) (A) (A) (A) (A)
                 (A) (A) (A) (A) (A) (A) (A) (A) (A) (A) (A) (A)
                 (A) (A) (A) (A) (A) (A) (A) (A) (A) (A) (A) (A)
                 (A) (A) (A) (A) (A) (A) (A) (A) (A) (A) (A) (A)
                 (A) (A) (A) (A) (A) (A) (A) (A) (A) (A) (A) (A)
                 (A) (A) (A) (A) (A) (A) (A) (A) (A) (A) (A) (A)
                 (A) (A) (A) (A) (A) (A) (A) (A) (A) (A) (A) (A)
                 (A) (A) (A) (A) (A) (A) (A) (A) (A) (A) (A) (A)
                 (A) (A) (A) (A) (A) (A) (A) (A) (A) (A) (A) (A)
                 (A) (A) (A) (A) (A) (A) (A) (A) (A) (A) (A) (A)
                 (A) (A) (A) (A) (A) (A) (A) (A) (A) (A) (A) (A)
                 (A) (A) (A) (A) (A) (A) (A) (A) (A) (A) (A) (A)
                 (A) (A) (A) (A) (A) (A) (A) (A) (A) (A) (A) (A)
                 (A) (A) (A) (A) (A) (A) (A) (A) (A) (A) (A) (A)
                 (A) (A) (A) (A) (A) (A) (A) (A) (A) (A) (A) (A)
                 (A) (A) (A) (A) (A) (A) (A) (A) (A) (A) (A) (A)
                 (A) (A) (A) (A) (A) (A) (A) (A) (A) (A) (A) (A)
                 (A) (A) (A) (A) (A) (A) (A) (A) (A) (A) (A) (A)
                 (A) (A) (A) (A) (A) (A) (A) (A) (A) (A) (A) (A)
                 (A) (A) (A) (A) (A) (A) (A) (A) (A) (A) (A) (A)
                 (A) (A) (A) (A) (A) (A) (A) (A) (A) (A) (A) (A)
                 (A) (A) (A) (A) (A) (A) (A) (A) (A) (A) (A) (A)
                 (A) (A) (A) (A) (A) (A) (A) (A) (A) (A) (A) (A)
                 (A) (A) (A) (A) (A) (A) (A) (A) (A) (A) (A) (A)
                 (A) (A) (A) (A) (A) (A) (A) (A) (A) (A) (A) (A)
                 (A) (A) (A) (A) (A) (A) (A) (A) (A) (A) (A) (A)
                 (A) (A) (A) (A) (A) (A) (A) (A) (A) (A) (A) (A)
                 (A) (A) (A) (A) (A) (A) (A) (A) (A) (A) (A) (A)
                 (A) (A) (A) (A) (A) (A) (A) (A) (A) (A) (A) (A)
                 (A) (A) (A) (A) (A) (A) (A) (A) (A) (A) (A) (A)
                 (A) (A) (A) (A) (A) (A) (A) (A) (A) (A) (A) (A)
                 (A) (A) (A) (A) (A) (A) (A) (A) (A) (A) (A) (A)
                 (A) (A) (A) (A) (A) (A) (A) (A) (A) (A) (A) (A)
                 (A) (A) (A) (A) (A) (A) (A) (A) (A) (A) (A) (A)
                 (A) (A) (A) (A) (A) (A) (A) (A) (A) (A) (A) (A)
                 (A) (A) (A) (A) (A) (A) (A) (A) (A) (A) (A) (A)
                 (A) (A) (A) (A) (A) (A) (A) (A) (A) (A) (A) (A)
                 (A) (A) (A) (A) (A) (A) (A) (A) (A) (A) (A) (A)
                 (A) (A) (A) (A) (A) (A) (A) (A) (A) (A) (A) (A)
                 (A) (A) (A) (A) (A) (A) (A) (A) (A) (A) (A) (A)
                 (A) (A) (A) (A) (A) (A) (A) (A) (A) (A) (A) (A)
                 (A) (A) (A) (A) (A) (A) (A) (A) (A) (A) (A)
 The electronic state is 1-A.
 Alpha  occ. eigenvalues --  -77.37323 -66.29195 -19.31553 -19.30471 -19.30115
 Alpha  occ. eigenvalues --  -19.28714 -19.26827 -19.25962 -19.25077 -19.21607
 Alpha  occ. eigenvalues --  -10.43518 -10.39718 -10.39493 -10.37987 -10.37803
 Alpha  occ. eigenvalues --  -10.36083 -10.33015 -10.32725 -10.32630 -10.32426
 Alpha  occ. eigenvalues --  -10.32379 -10.32303 -10.32141 -10.31891 -10.31830
 Alpha  occ. eigenvalues --  -10.31609 -10.31593 -10.31299 -10.31270 -10.31231
 Alpha  occ. eigenvalues --  -10.31084 -10.30983 -10.30942 -10.30885 -10.30868
 Alpha  occ. eigenvalues --  -10.30824 -10.30809 -10.30792 -10.30693 -10.30678
 Alpha  occ. eigenvalues --  -10.30660 -10.30638 -10.30425 -10.30193 -10.30084
 Alpha  occ. eigenvalues --  -10.30072 -10.30030 -10.30011 -10.29992 -10.29970
 Alpha  occ. eigenvalues --  -10.29915 -10.29858 -10.29727 -10.29588 -10.29383
 Alpha  occ. eigenvalues --  -10.28786 -10.28603  -6.80740  -5.41792  -4.96136
 Alpha  occ. eigenvalues --   -4.96031  -4.95807  -3.76897  -3.76450  -3.76409
 Alpha  occ. eigenvalues --   -1.21955  -1.20989  -1.15416  -1.15357  -1.13296
 Alpha  occ. eigenvalues --   -1.12279  -1.11345  -1.05367  -0.99182  -0.97962
 Alpha  occ. eigenvalues --   -0.96044  -0.95543  -0.93116  -0.92389  -0.92004
 Alpha  occ. eigenvalues --   -0.90630  -0.90477  -0.88198  -0.86730  -0.86291
 Alpha  occ. eigenvalues --   -0.85865  -0.84680  -0.84192  -0.83941  -0.83619
 Alpha  occ. eigenvalues --   -0.82585  -0.81850  -0.81773  -0.80836  -0.80377
 Alpha  occ. eigenvalues --   -0.78697  -0.77963  -0.77406  -0.76895  -0.75993
 Alpha  occ. eigenvalues --   -0.75003  -0.73585  -0.73140  -0.72302  -0.71434
 Alpha  occ. eigenvalues --   -0.70359  -0.69827  -0.69391  -0.68813  -0.68328
 Alpha  occ. eigenvalues --   -0.67959  -0.66751  -0.66659  -0.66459  -0.65919
 Alpha  occ. eigenvalues --   -0.65106  -0.64037  -0.62976  -0.62373  -0.61475
 Alpha  occ. eigenvalues --   -0.61247  -0.61023  -0.60503  -0.60288  -0.58878
 Alpha  occ. eigenvalues --   -0.57704  -0.57543  -0.57408  -0.57199  -0.57036
 Alpha  occ. eigenvalues --   -0.56127  -0.55797  -0.55624  -0.55011  -0.54534
 Alpha  occ. eigenvalues --   -0.54466  -0.54185  -0.53690  -0.53579  -0.53203
 Alpha  occ. eigenvalues --   -0.53085  -0.52852  -0.52688  -0.52559  -0.52238
 Alpha  occ. eigenvalues --   -0.52200  -0.51993  -0.51593  -0.51384  -0.51242
 Alpha  occ. eigenvalues --   -0.51064  -0.50825  -0.50674  -0.50423  -0.50148
 Alpha  occ. eigenvalues --   -0.49736  -0.49220  -0.49117  -0.48962  -0.48759
 Alpha  occ. eigenvalues --   -0.48529  -0.48428  -0.48373  -0.48121  -0.47689
 Alpha  occ. eigenvalues --   -0.47263  -0.47126  -0.46934  -0.46865  -0.46582
 Alpha  occ. eigenvalues --   -0.46408  -0.46143  -0.45946  -0.45487  -0.45267
 Alpha  occ. eigenvalues --   -0.45084  -0.44949  -0.44630  -0.44485  -0.44369
 Alpha  occ. eigenvalues --   -0.43941  -0.43417  -0.43235  -0.43123  -0.42693
 Alpha  occ. eigenvalues --   -0.42447  -0.42128  -0.41680  -0.41445  -0.41181
 Alpha  occ. eigenvalues --   -0.40980  -0.40682  -0.40516  -0.40345  -0.39926
 Alpha  occ. eigenvalues --   -0.39585  -0.38453  -0.38242  -0.37958  -0.36887
 Alpha  occ. eigenvalues --   -0.36496  -0.35102  -0.34559  -0.34498  -0.33726
 Alpha  occ. eigenvalues --   -0.33474  -0.32964  -0.31509  -0.30824  -0.30267
 Alpha  occ. eigenvalues --   -0.29887  -0.28717
 Alpha virt. eigenvalues --   -0.01440  -0.00149   0.01035   0.03057   0.03526
 Alpha virt. eigenvalues --    0.05189   0.05529   0.06312   0.06386   0.07243
 Alpha virt. eigenvalues --    0.08013   0.09907   0.10796   0.11603   0.12259
 Alpha virt. eigenvalues --    0.13292   0.13439   0.13856   0.14559   0.14835
 Alpha virt. eigenvalues --    0.14964   0.15176   0.15458   0.15628   0.15917
 Alpha virt. eigenvalues --    0.16052   0.16298   0.16367   0.16842   0.16944
 Alpha virt. eigenvalues --    0.17630   0.17727   0.17998   0.18144   0.18184
 Alpha virt. eigenvalues --    0.18517   0.18898   0.19187   0.19503   0.19745
 Alpha virt. eigenvalues --    0.20020   0.20324   0.20569   0.20607   0.20850
 Alpha virt. eigenvalues --    0.21183   0.21596   0.21769   0.21935   0.22171
 Alpha virt. eigenvalues --    0.22272   0.22508   0.22604   0.22855   0.23108
 Alpha virt. eigenvalues --    0.23434   0.23572   0.23772   0.24107   0.24249
 Alpha virt. eigenvalues --    0.24437   0.24693   0.24846   0.25039   0.25189
 Alpha virt. eigenvalues --    0.25781   0.25931   0.26225   0.26509   0.26964
 Alpha virt. eigenvalues --    0.27196   0.27511   0.27759   0.28341   0.29016
 Alpha virt. eigenvalues --    0.29330   0.29485   0.29730   0.29993   0.30392
 Alpha virt. eigenvalues --    0.30808   0.30907   0.31286   0.32071   0.32270
 Alpha virt. eigenvalues --    0.32589   0.33195   0.33455   0.34045   0.34083
 Alpha virt. eigenvalues --    0.34926   0.35122   0.35303   0.35508   0.36130
 Alpha virt. eigenvalues --    0.36631   0.36894   0.37069   0.37214   0.37454
 Alpha virt. eigenvalues --    0.37507   0.37782   0.37981   0.38423   0.38768
 Alpha virt. eigenvalues --    0.39068   0.39605   0.39692   0.40244   0.40647
 Alpha virt. eigenvalues --    0.40733   0.40958   0.41890   0.42109   0.42327
 Alpha virt. eigenvalues --    0.42872   0.43147   0.43602   0.43994   0.44141
 Alpha virt. eigenvalues --    0.44588   0.45065   0.45216   0.45723   0.45899
 Alpha virt. eigenvalues --    0.46426   0.46694   0.47084   0.47295   0.47630
 Alpha virt. eigenvalues --    0.48089   0.48513   0.48696   0.49022   0.49305
 Alpha virt. eigenvalues --    0.49738   0.50013   0.50117   0.50409   0.50593
 Alpha virt. eigenvalues --    0.51487   0.51621   0.51746   0.52347   0.52665
 Alpha virt. eigenvalues --    0.52810   0.52933   0.53603   0.53712   0.53852
 Alpha virt. eigenvalues --    0.54084   0.54321   0.54660   0.55038   0.55118
 Alpha virt. eigenvalues --    0.55167   0.55482   0.55660   0.55977   0.56159
 Alpha virt. eigenvalues --    0.56384   0.56604   0.56987   0.57353   0.57557
 Alpha virt. eigenvalues --    0.57899   0.57998   0.58260   0.58304   0.58785
 Alpha virt. eigenvalues --    0.59069   0.59191   0.59626   0.60061   0.60326
 Alpha virt. eigenvalues --    0.60647   0.61217   0.61475   0.61882   0.62157
 Alpha virt. eigenvalues --    0.62320   0.62472   0.62850   0.63375   0.63570
 Alpha virt. eigenvalues --    0.63917   0.64127   0.64486   0.65172   0.65448
 Alpha virt. eigenvalues --    0.65541   0.65786   0.65954   0.66028   0.66471
 Alpha virt. eigenvalues --    0.66692   0.66761   0.67075   0.67501   0.67874
 Alpha virt. eigenvalues --    0.68104   0.68343   0.68684   0.69229   0.69344
 Alpha virt. eigenvalues --    0.69674   0.69748   0.70133   0.70229   0.70440
 Alpha virt. eigenvalues --    0.70643   0.70767   0.71277   0.71423   0.71563
 Alpha virt. eigenvalues --    0.72045   0.72210   0.72320   0.72593   0.72705
 Alpha virt. eigenvalues --    0.72986   0.73161   0.73505   0.73677   0.73816
 Alpha virt. eigenvalues --    0.74007   0.74084   0.74316   0.74499   0.74702
 Alpha virt. eigenvalues --    0.74732   0.75031   0.75189   0.75357   0.75560
 Alpha virt. eigenvalues --    0.75823   0.76086   0.76129   0.76239   0.76476
 Alpha virt. eigenvalues --    0.76531   0.76672   0.76844   0.77009   0.77176
 Alpha virt. eigenvalues --    0.77276   0.77612   0.77852   0.77998   0.78279
 Alpha virt. eigenvalues --    0.78382   0.78599   0.78955   0.79057   0.79530
 Alpha virt. eigenvalues --    0.79727   0.80002   0.80041   0.80370   0.80800
 Alpha virt. eigenvalues --    0.80859   0.81088   0.81382   0.81712   0.81906
 Alpha virt. eigenvalues --    0.82013   0.82275   0.82466   0.82624   0.82772
 Alpha virt. eigenvalues --    0.82910   0.83247   0.83478   0.83704   0.84108
 Alpha virt. eigenvalues --    0.84345   0.84684   0.84974   0.85265   0.85727
 Alpha virt. eigenvalues --    0.85856   0.85971   0.86210   0.86345   0.86812
 Alpha virt. eigenvalues --    0.86949   0.87407   0.87469   0.87845   0.88210
 Alpha virt. eigenvalues --    0.88425   0.88731   0.89119   0.89265   0.89598
 Alpha virt. eigenvalues --    0.89967   0.90497   0.90705   0.90865   0.91159
 Alpha virt. eigenvalues --    0.91539   0.91734   0.92056   0.92551   0.92940
 Alpha virt. eigenvalues --    0.93380   0.93595   0.94282   0.94557   0.95242
 Alpha virt. eigenvalues --    0.95334   0.95707   0.95959   0.96585   0.96661
 Alpha virt. eigenvalues --    0.97463   0.97977   0.98271   0.98974   0.99186
 Alpha virt. eigenvalues --    1.00048   1.00733   1.00910   1.01179   1.01504
 Alpha virt. eigenvalues --    1.02298   1.02508   1.02743   1.02839   1.03333
 Alpha virt. eigenvalues --    1.04028   1.04343   1.04914   1.05476   1.05619
 Alpha virt. eigenvalues --    1.06421   1.07145   1.07544   1.07762   1.08180
 Alpha virt. eigenvalues --    1.08558   1.09494   1.10286   1.10956   1.11832
 Alpha virt. eigenvalues --    1.12041   1.12306   1.13020   1.13449   1.14650
 Alpha virt. eigenvalues --    1.15273   1.15711   1.15941   1.16419   1.16949
 Alpha virt. eigenvalues --    1.17852   1.18079   1.18618   1.18674   1.19896
 Alpha virt. eigenvalues --    1.20161   1.20640   1.21038   1.21815   1.22044
 Alpha virt. eigenvalues --    1.22287   1.23377   1.23905   1.24311   1.24573
 Alpha virt. eigenvalues --    1.24850   1.25601   1.25704   1.26262   1.26629
 Alpha virt. eigenvalues --    1.26834   1.27259   1.27894   1.28268   1.28392
 Alpha virt. eigenvalues --    1.29047   1.29172   1.30083   1.30182   1.30413
 Alpha virt. eigenvalues --    1.30724   1.30857   1.32156   1.32391   1.32783
 Alpha virt. eigenvalues --    1.33002   1.33164   1.33287   1.33932   1.34310
 Alpha virt. eigenvalues --    1.34378   1.34682   1.34855   1.35039   1.35463
 Alpha virt. eigenvalues --    1.35675   1.35822   1.36337   1.36522   1.36820
 Alpha virt. eigenvalues --    1.37226   1.37414   1.37749   1.38063   1.38415
 Alpha virt. eigenvalues --    1.38743   1.38846   1.39501   1.39845   1.40451
 Alpha virt. eigenvalues --    1.40688   1.40704   1.41462   1.41955   1.42801
 Alpha virt. eigenvalues --    1.43090   1.43199   1.44356   1.45282   1.45798
 Alpha virt. eigenvalues --    1.46867   1.47682   1.48084   1.48160   1.48359
 Alpha virt. eigenvalues --    1.49839   1.50072   1.51220   1.51956   1.52688
 Alpha virt. eigenvalues --    1.52838   1.54383   1.55170   1.56331   1.56884
 Alpha virt. eigenvalues --    1.57255   1.58994   1.59397   1.60253   1.60939
 Alpha virt. eigenvalues --    1.61010   1.61536   1.61889   1.62029   1.62524
 Alpha virt. eigenvalues --    1.62872   1.62876   1.63547   1.63865   1.64170
 Alpha virt. eigenvalues --    1.64368   1.64555   1.65159   1.65730   1.67001
 Alpha virt. eigenvalues --    1.67367   1.67604   1.67883   1.68509   1.69225
 Alpha virt. eigenvalues --    1.69775   1.70098   1.70288   1.70740   1.71033
 Alpha virt. eigenvalues --    1.71387   1.72138   1.72428   1.73761   1.73986
 Alpha virt. eigenvalues --    1.74713   1.75378   1.75793   1.76556   1.76715
 Alpha virt. eigenvalues --    1.76893   1.77815   1.78035   1.78581   1.78736
 Alpha virt. eigenvalues --    1.79531   1.79565   1.79885   1.80319   1.80728
 Alpha virt. eigenvalues --    1.80820   1.81010   1.81511   1.81865   1.82007
 Alpha virt. eigenvalues --    1.82423   1.82533   1.82726   1.83064   1.83195
 Alpha virt. eigenvalues --    1.83377   1.83609   1.84044   1.84135   1.84322
 Alpha virt. eigenvalues --    1.84389   1.84735   1.84863   1.84879   1.85210
 Alpha virt. eigenvalues --    1.85497   1.85664   1.86001   1.86332   1.86352
 Alpha virt. eigenvalues --    1.86537   1.86716   1.87178   1.87324   1.87581
 Alpha virt. eigenvalues --    1.87974   1.88150   1.88415   1.88605   1.88891
 Alpha virt. eigenvalues --    1.89028   1.89201   1.89562   1.89903   1.90106
 Alpha virt. eigenvalues --    1.90376   1.90548   1.90749   1.90773   1.91381
 Alpha virt. eigenvalues --    1.91532   1.91937   1.92410   1.92542   1.92914
 Alpha virt. eigenvalues --    1.93282   1.94023   1.94291   1.94540   1.94643
 Alpha virt. eigenvalues --    1.94977   1.95193   1.95670   1.96024   1.96624
 Alpha virt. eigenvalues --    1.96885   1.97067   1.97563   1.97690   1.98026
 Alpha virt. eigenvalues --    1.98240   1.98883   1.99062   1.99661   1.99852
 Alpha virt. eigenvalues --    2.00843   2.01507   2.01928   2.02403   2.02859
 Alpha virt. eigenvalues --    2.03102   2.03226   2.03427   2.03568   2.03702
 Alpha virt. eigenvalues --    2.03956   2.04107   2.04279   2.04714   2.04937
 Alpha virt. eigenvalues --    2.05281   2.05522   2.05799   2.06485   2.07041
 Alpha virt. eigenvalues --    2.07149   2.07221   2.07698   2.07838   2.08151
 Alpha virt. eigenvalues --    2.08185   2.08411   2.08431   2.08873   2.08974
 Alpha virt. eigenvalues --    2.09719   2.09892   2.10193   2.10741   2.11678
 Alpha virt. eigenvalues --    2.11847   2.12490   2.12551   2.13343   2.14334
 Alpha virt. eigenvalues --    2.14945   2.15210   2.15405   2.16028   2.16635
 Alpha virt. eigenvalues --    2.16815   2.17189   2.18824   2.19264   2.19454
 Alpha virt. eigenvalues --    2.20781   2.21596   2.22025   2.22260   2.22869
 Alpha virt. eigenvalues --    2.23420   2.23714   2.23748   2.23906   2.24013
 Alpha virt. eigenvalues --    2.24395   2.24892   2.25076   2.25563   2.25778
 Alpha virt. eigenvalues --    2.25813   2.26192   2.26331   2.27287   2.27589
 Alpha virt. eigenvalues --    2.27689   2.27844   2.28683   2.29331   2.29816
 Alpha virt. eigenvalues --    2.30072   2.30617   2.31009   2.31595   2.31751
 Alpha virt. eigenvalues --    2.32104   2.32900   2.33843   2.34231   2.35088
 Alpha virt. eigenvalues --    2.35564   2.35928   2.36048   2.36416   2.37689
 Alpha virt. eigenvalues --    2.37939   2.38335   2.39030   2.39128   2.39180
 Alpha virt. eigenvalues --    2.39310   2.39743   2.39811   2.40205   2.40640
 Alpha virt. eigenvalues --    2.40958   2.41427   2.42352   2.42589   2.43401
 Alpha virt. eigenvalues --    2.43806   2.43907   2.44248   2.44567   2.44768
 Alpha virt. eigenvalues --    2.45790   2.46244   2.46678   2.46877   2.47363
 Alpha virt. eigenvalues --    2.47713   2.48186   2.49174   2.49537   2.49825
 Alpha virt. eigenvalues --    2.50366   2.52031   2.52660   2.53397   2.54504
 Alpha virt. eigenvalues --    2.54631   2.55378   2.55542   2.55935   2.56047
 Alpha virt. eigenvalues --    2.56961   2.57842   2.58271   2.60494   2.61038
 Alpha virt. eigenvalues --    2.61556   2.61760   2.62509   2.62878   2.63198
 Alpha virt. eigenvalues --    2.63593   2.63782   2.64754   2.65722   2.66387
 Alpha virt. eigenvalues --    2.67155   2.68169   2.68531   2.69071   2.69576
 Alpha virt. eigenvalues --    2.69837   2.70073   2.70453   2.70967   2.71201
 Alpha virt. eigenvalues --    2.71587   2.71783   2.72126   2.72305   2.72452
 Alpha virt. eigenvalues --    2.72704   2.73266   2.73488   2.74176   2.74253
 Alpha virt. eigenvalues --    2.74908   2.75338   2.75860   2.75974   2.76868
 Alpha virt. eigenvalues --    2.77137   2.77440   2.77865   2.78067   2.78341
 Alpha virt. eigenvalues --    2.78768   2.79126   2.79397   2.80354   2.81133
 Alpha virt. eigenvalues --    2.81466   2.82016   2.82408   2.82594   2.82984
 Alpha virt. eigenvalues --    2.83350   2.84072   2.84263   2.84513   2.84965
 Alpha virt. eigenvalues --    2.86765   2.87389   2.88079   2.88082   2.88424
 Alpha virt. eigenvalues --    2.88701   2.89152   2.91178   2.91870   2.93013
 Alpha virt. eigenvalues --    2.93209   2.94537   2.95427   2.95660   2.95865
 Alpha virt. eigenvalues --    2.96449   2.97112   2.97233   2.97755   2.98298
 Alpha virt. eigenvalues --    2.98554   2.99308   2.99772   3.00029   3.00198
 Alpha virt. eigenvalues --    3.00938   3.02213   3.02427   3.02922   3.03099
 Alpha virt. eigenvalues --    3.03327   3.03541   3.04125   3.04337   3.04867
 Alpha virt. eigenvalues --    3.05418   3.05818   3.06151   3.06829   3.07485
 Alpha virt. eigenvalues --    3.07941   3.08251   3.08488   3.08601   3.09636
 Alpha virt. eigenvalues --    3.09921   3.10537   3.11745   3.13731   3.14038
 Alpha virt. eigenvalues --    3.14979   3.15185   3.15387   3.16317   3.16956
 Alpha virt. eigenvalues --    3.20663   3.21181   3.21528   3.21887   3.24083
 Alpha virt. eigenvalues --    3.24871   3.25224   3.25996   3.26754   3.28497
 Alpha virt. eigenvalues --    3.28878   3.31203   3.33252   3.35971   3.36599
 Alpha virt. eigenvalues --    3.38043   3.41208   3.41903   3.45695   3.45923
 Alpha virt. eigenvalues --    3.48254   3.54175   3.55166   3.64371   3.64900
 Alpha virt. eigenvalues --    3.66535   3.69596   3.70536   3.71879   3.75361
 Alpha virt. eigenvalues --    3.76522   3.77716   3.78096   3.99970
          Condensed to atoms (all electrons):
 Mulliken charges:
               1
     1  C   -0.029664
     2  C    0.225538
     3  C    0.069871
     4  C    0.180933
     5  O   -0.454296
     6  H    0.061904
     7  H    0.045371
     8  H    0.037746
     9  O   -0.252126
    10  O   -0.315640
    11  C    0.126778
    12  H    0.066402
    13  H    0.056065
    14  H    0.059175
    15  Si   0.680989
    16  C   -0.288059
    17  H    0.073483
    18  H    0.077210
    19  H    0.065787
    20  C   -0.281850
    21  H    0.082174
    22  H    0.093469
    23  H    0.074926
    24  C   -0.505524
    25  C    0.016358
    26  H    0.030769
    27  H    0.035205
    28  H    0.033909
    29  C    0.017347
    30  H    0.034704
    31  H    0.032781
    32  H    0.036743
    33  C    0.027682
    34  H    0.026599
    35  H    0.030605
    36  H    0.033820
    37  C    0.236267
    38  C   -0.300975
    39  C   -0.090363
    40  O   -0.366576
    41  H    0.035826
    42  C   -0.001016
    43  H    0.025881
    44  H    0.070348
    45  C   -0.020132
    46  C   -0.022827
    47  C   -0.011899
    48  C   -0.007225
    49  H    0.019627
    50  H    0.026948
    51  H    0.020603
    52  H   -0.014313
    53  C    0.009260
    54  C    0.019884
    55  C    0.026692
    56  C    0.072742
    57  C    0.054492
    58  C   -0.077049
    59  O   -0.445373
    60  H    0.014179
    61  C   -0.089679
    62  C    0.039268
    63  C    0.123140
    64  C    0.012703
    65  H    0.011537
    66  O   -0.471104
    67  C    0.027743
    68  C    0.031563
    69  C   -0.042278
    70  C   -0.014609
    71  C   -0.015957
    72  C   -0.039757
    73  H    0.017711
    74  H    0.030665
    75  H    0.030839
    76  H    0.031764
    77  C   -0.019148
    78  C   -0.021861
    79  C   -0.033204
    80  C    0.005143
    81  C   -0.013356
    82  C   -0.027293
    83  H    0.028753
    84  H    0.023649
    85  H    0.007197
    86  H    0.028585
    87  H    0.030114
    88  P    1.131069
    89  O   -0.483062
    90  O   -0.420541
    91  H    0.272639
    92  C   -0.020130
    93  C   -0.033054
    94  C   -0.030961
    95  C    0.007191
    96  C   -0.039231
    97  C   -0.021628
    98  H    0.030344
    99  H    0.033247
   100  H    0.029147
   101  H    0.008284
   102  H    0.027171
   103  H    0.055032
   104  H    0.054120
   105  H    0.074951
   106  H    0.051094
 Sum of Mulliken charges =  -0.00000
 Mulliken charges with hydrogens summed into heavy atoms:
               1
     1  C   -0.003782
     2  C    0.225538
     3  C    0.214893
     4  C    0.180933
     5  O   -0.454296
     9  O   -0.252126
    10  O   -0.315640
    11  C    0.308420
    15  Si   0.680989
    16  C   -0.071579
    20  C   -0.031280
    24  C   -0.505524
    25  C    0.116241
    29  C    0.121575
    33  C    0.118706
    37  C    0.272093
    38  C   -0.230627
    39  C   -0.035330
    40  O   -0.366576
    42  C    0.179148
    45  C   -0.000505
    46  C    0.004122
    47  C    0.008704
    48  C   -0.021538
    53  C    0.009260
    54  C    0.019884
    55  C    0.026692
    56  C    0.072742
    57  C    0.054492
    58  C   -0.062870
    59  O   -0.445373
    61  C   -0.078142
    62  C    0.039268
    63  C    0.123140
    64  C    0.012703
    66  O   -0.471104
    67  C    0.027743
    68  C    0.031563
    69  C   -0.024567
    70  C    0.016056
    71  C    0.014882
    72  C   -0.007993
    77  C    0.009605
    78  C    0.001788
    79  C   -0.026007
    80  C    0.005143
    81  C    0.015229
    82  C    0.002822
    88  P    1.131069
    89  O   -0.483062
    90  O   -0.147902
    92  C    0.010215
    93  C    0.000193
    94  C   -0.001814
    95  C    0.007191
    96  C   -0.030947
    97  C    0.005542
 APT charges:
               1
     1  C   -0.390335
     2  C    1.199831
     3  C    0.073071
     4  C    1.232484
     5  O   -1.453547
     6  H    0.018228
     7  H   -0.018888
     8  H   -0.008283
     9  O   -0.837175
    10  O   -0.989550
    11  C    0.559537
    12  H    0.008112
    13  H   -0.015604
    14  H   -0.016014
    15  Si   2.049321
    16  C   -0.505024
    17  H    0.032438
    18  H    0.036439
    19  H    0.058856
    20  C   -0.497086
    21  H    0.043200
    22  H    0.049915
    23  H    0.028401
    24  C   -0.317674
    25  C    0.045098
    26  H   -0.042420
    27  H   -0.010925
    28  H   -0.010454
    29  C    0.051899
    30  H   -0.008695
    31  H   -0.042325
    32  H   -0.008373
    33  C    0.035713
    34  H   -0.048513
    35  H   -0.004740
    36  H    0.010982
    37  C    0.851874
    38  C   -0.718300
    39  C    0.260308
    40  O   -0.884685
    41  H   -0.080060
    42  C   -0.068923
    43  H    0.061577
    44  H    0.113959
    45  C   -0.009001
    46  C   -0.065380
    47  C   -0.023694
    48  C   -0.082734
    49  H    0.051994
    50  H    0.034506
    51  H    0.042982
    52  H    0.069049
    53  C   -0.039772
    54  C   -0.012997
    55  C   -0.031180
    56  C    0.494014
    57  C    0.060788
    58  C   -0.041631
    59  O   -1.141399
    60  H    0.066505
    61  C   -0.038525
    62  C    0.033208
    63  C    0.504548
    64  C   -0.005621
    65  H    0.051039
    66  O   -1.179953
    67  C    0.010342
    68  C   -0.047916
    69  C   -0.005154
    70  C   -0.065312
    71  C   -0.009041
    72  C   -0.072760
    73  H    0.037492
    74  H    0.029997
    75  H    0.034636
    76  H    0.063284
    77  C   -0.052220
    78  C   -0.036558
    79  C   -0.090048
    80  C    0.085123
    81  C   -0.070609
    82  C   -0.030563
    83  H    0.029359
    84  H    0.027436
    85  H    0.059990
    86  H    0.073317
    87  H    0.028299
    88  P    2.679677
    89  O   -0.987463
    90  O   -1.175279
    91  H    0.758041
    92  C   -0.046381
    93  C   -0.026629
    94  C   -0.126840
    95  C    0.093970
    96  C   -0.108671
    97  C   -0.054476
    98  H    0.034550
    99  H    0.037875
   100  H    0.145715
   101  H    0.055956
   102  H    0.032960
   103  H    0.045991
   104  H   -0.009466
   105  H    0.055375
   106  H    0.015606
 Sum of APT charges =  -0.00000
 APT charges with hydrogens summed into heavy atoms:
               1
     1  C   -0.328758
     2  C    1.199831
     3  C    0.064128
     4  C    1.232484
     5  O   -1.453547
     9  O   -0.837175
    10  O   -0.989550
    11  C    0.536032
    15  Si   2.049321
    16  C   -0.377290
    20  C   -0.375570
    24  C   -0.317674
    25  C   -0.018702
    29  C   -0.007493
    33  C   -0.006558
    37  C    0.771814
    38  C   -0.604341
    39  C    0.306300
    40  O   -0.884685
    42  C   -0.007408
    45  C    0.042993
    46  C   -0.030874
    47  C    0.019288
    48  C   -0.013685
    53  C   -0.039772
    54  C   -0.012997
    55  C   -0.031180
    56  C    0.494014
    57  C    0.060788
    58  C    0.024874
    59  O   -1.141399
    61  C    0.012515
    62  C    0.033208
    63  C    0.504548
    64  C   -0.005621
    66  O   -1.179953
    67  C    0.010342
    68  C   -0.047916
    69  C    0.032339
    70  C   -0.035316
    71  C    0.025595
    72  C   -0.009477
    77  C   -0.022861
    78  C   -0.009122
    79  C   -0.030059
    80  C    0.085123
    81  C    0.002708
    82  C   -0.002264
    88  P    2.679677
    89  O   -0.987463
    90  O   -0.417238
    92  C   -0.011831
    93  C    0.011246
    94  C    0.018875
    95  C    0.093970
    96  C   -0.052714
    97  C   -0.021517
 Electronic spatial extent (au):  <R**2>=          32128.9076
 Charge=             -0.0000 electrons
 Dipole moment (field-independent basis, Debye):
    X=             -5.7971    Y=              8.1939    Z=             -0.7207  Tot=             10.0631
 Quadrupole moment (field-independent basis, Debye-Ang):
   XX=           -315.7382   YY=           -348.6659   ZZ=           -327.2094
   XY=             15.2800   XZ=             -4.3206   YZ=            -12.0824
 Traceless Quadrupole moment (field-independent basis, Debye-Ang):
   XX=             14.7997   YY=            -18.1281   ZZ=              3.3284
   XY=             15.2800   XZ=             -4.3206   YZ=            -12.0824
 Octapole moment (field-independent basis, Debye-Ang**2):
  XXX=             43.6301  YYY=            227.2070  ZZZ=            -68.3355  XYY=             28.2454
  XXY=             41.7642  XXZ=            -59.1084  XZZ=            -38.3390  YZZ=              4.7207
  YYZ=            -29.1852  XYZ=            -36.6507
 Hexadecapole moment (field-independent basis, Debye-Ang**3):
 XXXX=         -18560.0299 YYYY=         -13783.4906 ZZZZ=          -9784.4500 XXXY=             94.9972
 XXXZ=           -426.8868 YYYX=            269.9846 YYYZ=           -204.9853 ZZZX=           -190.0129
 ZZZY=             -3.6221 XXYY=          -5158.7523 XXZZ=          -4901.2546 YYZZ=          -3776.4693
 XXYZ=           -246.2877 YYXZ=           -189.9959 ZZXY=            289.3783
 N-N= 9.581901841802D+03 E-N=-2.628757965032D+04  KE= 3.023045542022D+03
  Exact polarizability:     734.967       8.997     610.654     -49.763      75.997     649.196
 Approx polarizability:     697.149       2.344     615.530     -50.473      75.098     650.604
   1 Symmetry operations used in ECPInt.
 ECPInt:  NShTT=  121771 NPrTT=  444119 LenC2=   97147 LenP2D=  219381.
 LDataN:  DoStor=T MaxTD1= 6 Len=  172
 D2PCM: PCM CHGder 2nd derivatives, FixD1E=F FixD2E=F DoIter=F DoCFld=F I1PDM=0
 Calling FoFJK, ICntrl=    100127 FMM=F ISym2X=0 I1Cent= 0 IOpClX= 0 NMat=1 NMatS=1 NMatT=0.
 Full mass-weighted force constant matrix:
 Low frequencies --- -278.0044   -5.2148   -3.9464   -1.3548   -0.0005    0.0003
 Low frequencies ---    0.0008   16.9665   21.7517
 ******    1 imaginary frequencies (negative Signs) ****** 
 Diagonal vibrational polarizability:
      336.0451349     137.5482683     121.5321864
 Harmonic frequencies (cm**-1), IR intensities (KM/Mole), Raman scattering
 activities (A**4/AMU), depolarization ratios for plane and unpolarized
 incident light, reduced masses (AMU), force constants (mDyne/A),
 and normal coordinates:
                      1                      2                      3
                      A                      A                      A
 Frequencies --   -278.0044                16.8590                21.7258
 Red. masses --      8.5882                 5.2737                 5.3945
 Frc consts  --      0.3911                 0.0009                 0.0015
 IR Inten    --    436.1851                 0.2531                 0.3836
  Atom  AN      X      Y      Z        X      Y      Z        X      Y      Z
     1   6    -0.05  -0.02   0.01    -0.08  -0.00   0.04    -0.01   0.02  -0.03
     2   6     0.04  -0.12   0.03    -0.05   0.01   0.03    -0.02  -0.01   0.01
     3   6     0.12  -0.15  -0.00    -0.01   0.00  -0.00    -0.02  -0.03   0.07
     4   6    -0.06  -0.00  -0.01    -0.02  -0.03  -0.05     0.00   0.01  -0.05
     5   8     0.03   0.07  -0.08    -0.04   0.04   0.03    -0.01  -0.05   0.02
     6   1     0.01  -0.00   0.04     0.01   0.01  -0.00    -0.01  -0.06   0.06
     7   1     0.07  -0.30  -0.23    -0.01   0.00   0.02    -0.01  -0.02   0.10
     8   1     0.07  -0.09   0.01    -0.02  -0.00  -0.03    -0.02  -0.02   0.09
     9   8     0.03  -0.04  -0.02     0.01  -0.03  -0.06     0.05  -0.04  -0.05
    10   8    -0.01   0.01  -0.01    -0.05  -0.02  -0.06    -0.07   0.06  -0.05
    11   6     0.02  -0.02   0.01    -0.05  -0.03  -0.08    -0.08   0.06  -0.05
    12   1     0.03  -0.01   0.02    -0.08  -0.02  -0.08    -0.14   0.11  -0.05
    13   1     0.04  -0.01   0.02    -0.03  -0.03  -0.06    -0.05   0.04   0.01
    14   1     0.01  -0.04   0.02    -0.03  -0.04  -0.11    -0.05   0.05  -0.12
    15  14    -0.02  -0.01  -0.00    -0.04   0.04   0.05    -0.01  -0.04   0.01
    16   6    -0.00  -0.00  -0.00    -0.07   0.09   0.04    -0.01  -0.07   0.02
    17   1     0.00   0.01   0.01    -0.06   0.11   0.05    -0.01  -0.08   0.03
    18   1    -0.00  -0.01  -0.01    -0.07   0.11   0.05    -0.02  -0.08   0.01
    19   1    -0.02  -0.01  -0.00    -0.08   0.10   0.00    -0.00  -0.07   0.04
    20   6     0.03  -0.00  -0.00    -0.03  -0.01   0.01    -0.02  -0.01   0.04
    21   1     0.02  -0.00  -0.00    -0.01  -0.05   0.02    -0.01   0.00   0.03
    22   1     0.03  -0.01   0.00    -0.03  -0.00  -0.03    -0.03  -0.02   0.05
    23   1     0.03  -0.00  -0.01    -0.03  -0.01   0.01    -0.02  -0.00   0.05
    24   6     0.01   0.00  -0.00    -0.03   0.03   0.11    -0.01  -0.03  -0.02
    25   6     0.00   0.00  -0.00    -0.06   0.06   0.13     0.02  -0.05  -0.02
    26   1    -0.02  -0.00   0.00    -0.05   0.05   0.16     0.02  -0.04  -0.04
    27   1     0.00   0.03   0.00    -0.06   0.06   0.11     0.03  -0.05   0.00
    28   1     0.01  -0.00  -0.00    -0.08   0.08   0.13     0.04  -0.05  -0.03
    29   6     0.01  -0.01  -0.00    -0.02   0.02   0.14    -0.02  -0.02  -0.05
    30   1     0.01  -0.00  -0.00    -0.04   0.04   0.14    -0.00  -0.02  -0.06
    31   1     0.02  -0.01  -0.00    -0.02   0.02   0.17    -0.02  -0.02  -0.06
    32   1     0.01  -0.01   0.00    -0.00   0.00   0.13    -0.05  -0.01  -0.05
    33   6     0.01   0.00  -0.00    -0.00  -0.00   0.10    -0.04  -0.03  -0.00
    34   1    -0.00  -0.00  -0.00     0.00  -0.01   0.14    -0.03  -0.02  -0.03
    35   1     0.02  -0.00  -0.00     0.02  -0.03   0.09    -0.07  -0.01   0.00
    36   1     0.01   0.02  -0.01    -0.01   0.01   0.07    -0.03  -0.05   0.03
    37   6    -0.40   0.23  -0.11    -0.03  -0.02  -0.03     0.00   0.00  -0.04
    38   6     0.41  -0.30   0.16    -0.04  -0.01   0.01    -0.03   0.01   0.03
    39   6     0.05  -0.02   0.06    -0.10  -0.02   0.03    -0.02   0.06  -0.04
    40   8    -0.17   0.01  -0.02    -0.06  -0.02  -0.04    -0.02   0.02  -0.07
    41   1     0.02   0.13   0.04    -0.01  -0.02  -0.02     0.04  -0.02  -0.04
    42   6     0.03   0.02   0.03    -0.12  -0.04   0.05     0.01   0.08  -0.07
    43   1    -0.12   0.00  -0.08    -0.08   0.01   0.06     0.01  -0.00  -0.04
    44   1    -0.09  -0.03  -0.07    -0.05  -0.02  -0.00    -0.04   0.04   0.03
    45   6    -0.00  -0.00  -0.00     0.02   0.01  -0.02     0.02   0.01  -0.03
    46   6     0.00   0.00  -0.00     0.03   0.01  -0.02     0.02   0.02  -0.03
    47   6     0.00   0.00   0.00     0.02   0.02  -0.03     0.02   0.02  -0.03
    48   6     0.00   0.00   0.00     0.02   0.02  -0.03     0.01   0.02  -0.03
    49   1    -0.00  -0.00  -0.01     0.03  -0.00  -0.01     0.02   0.01  -0.02
    50   1     0.00   0.00  -0.00     0.03   0.01  -0.02     0.02   0.02  -0.03
    51   1     0.00   0.00   0.01     0.03   0.02  -0.03     0.02   0.03  -0.03
    52   1     0.00  -0.01   0.02     0.01   0.03  -0.04     0.01   0.02  -0.03
    53   6    -0.00  -0.00  -0.00     0.02   0.01  -0.02     0.02   0.01  -0.02
    54   6    -0.00  -0.00   0.00     0.02   0.01  -0.03     0.01   0.02  -0.03
    55   6    -0.00   0.00   0.00     0.01   0.01  -0.02     0.01   0.02  -0.03
    56   6    -0.00  -0.00  -0.00     0.01  -0.00  -0.01     0.01   0.01  -0.02
    57   6    -0.00   0.00  -0.00     0.02  -0.01   0.00     0.02  -0.01   0.00
    58   6    -0.00   0.00  -0.01     0.02  -0.00  -0.01     0.02  -0.00  -0.00
    59   8    -0.01   0.00   0.00     0.02  -0.00   0.00    -0.00   0.02  -0.04
    60   1    -0.00   0.01  -0.01     0.02  -0.01   0.00     0.02  -0.02   0.02
    61   6    -0.00  -0.00   0.00     0.00   0.02  -0.05     0.02  -0.01   0.01
    62   6    -0.00  -0.00   0.00     0.02   0.00  -0.04    -0.00   0.01  -0.01
    63   6    -0.00  -0.00   0.00     0.02   0.00  -0.03    -0.00   0.02  -0.02
    64   6    -0.00  -0.00   0.00     0.01   0.01  -0.03     0.01   0.02  -0.02
    65   1    -0.00  -0.00   0.00     0.00   0.03  -0.06     0.03  -0.02   0.02
    66   8    -0.02   0.00   0.00     0.03  -0.01  -0.02    -0.01   0.03  -0.02
    67   6    -0.00  -0.00   0.00    -0.01   0.03  -0.04     0.03   0.01  -0.01
    68   6    -0.00  -0.00   0.00    -0.01   0.04  -0.05     0.04  -0.01   0.00
    69   6    -0.00  -0.00   0.00    -0.03   0.06  -0.05     0.06  -0.03   0.01
    70   6    -0.00  -0.00   0.00    -0.05   0.07  -0.05     0.07  -0.03   0.01
    71   6    -0.00  -0.00   0.00    -0.05   0.06  -0.04     0.06  -0.01  -0.01
    72   6    -0.00  -0.00   0.00    -0.03   0.04  -0.03     0.04   0.01  -0.02
    73   1    -0.00  -0.00   0.00    -0.04   0.07  -0.06     0.06  -0.04   0.02
    74   1    -0.00  -0.00   0.00    -0.07   0.09  -0.06     0.09  -0.04   0.02
    75   1     0.00  -0.00   0.00    -0.06   0.07  -0.04     0.07  -0.01  -0.01
    76   1    -0.00  -0.00  -0.00    -0.02   0.03  -0.03     0.04   0.03  -0.03
    77   6    -0.00   0.00   0.00     0.05  -0.05   0.09     0.08  -0.09   0.22
    78   6    -0.00   0.00  -0.00     0.06  -0.04   0.07     0.12  -0.08   0.19
    79   6    -0.01   0.00  -0.00     0.05  -0.03   0.04     0.10  -0.05   0.11
    80   6    -0.00   0.00  -0.00     0.03  -0.02   0.03     0.03  -0.04   0.06
    81   6    -0.00   0.00   0.00     0.01  -0.02   0.05    -0.01  -0.05   0.09
    82   6    -0.00   0.00   0.00     0.02  -0.04   0.08     0.02  -0.07   0.17
    83   1     0.00   0.00   0.00     0.05  -0.06   0.12     0.11  -0.11   0.28
    84   1    -0.01  -0.00  -0.00     0.08  -0.05   0.08     0.18  -0.09   0.22
    85   1    -0.02  -0.01  -0.02     0.06  -0.03   0.03     0.13  -0.04   0.09
    86   1    -0.00   0.00   0.00    -0.01  -0.02   0.04    -0.05  -0.03   0.06
    87   1    -0.00   0.00   0.00     0.01  -0.04   0.09    -0.01  -0.08   0.19
    88  15     0.02   0.05  -0.02     0.03  -0.02  -0.00    -0.01   0.03  -0.03
    89   8     0.01   0.04  -0.02     0.04  -0.02   0.01    -0.02   0.03  -0.04
    90   8    -0.02   0.12   0.04     0.04  -0.02  -0.00    -0.01   0.03  -0.04
    91   1     0.00   0.25   0.09    -0.00  -0.02  -0.02    -0.02   0.03  -0.05
    92   6     0.00   0.00  -0.00     0.12  -0.05  -0.06    -0.10   0.04   0.02
    93   6     0.00   0.00   0.00     0.08  -0.10   0.00    -0.06   0.08  -0.03
    94   6     0.00   0.00   0.00     0.05  -0.08   0.01    -0.03   0.07  -0.04
    95   6    -0.00   0.00   0.00     0.05  -0.02  -0.04    -0.03   0.02  -0.00
    96   6    -0.00  -0.00   0.00     0.09   0.03  -0.10    -0.07  -0.02   0.05
    97   6    -0.00  -0.00  -0.00     0.13   0.01  -0.11    -0.10  -0.01   0.06
    98   1     0.00  -0.00   0.00     0.15  -0.07  -0.06    -0.12   0.05   0.03
    99   1     0.00   0.00   0.00     0.08  -0.15   0.04    -0.06   0.12  -0.07
   100   1     0.01   0.01   0.00     0.03  -0.11   0.05    -0.00   0.10  -0.08
   101   1    -0.01  -0.01   0.00     0.10   0.07  -0.14    -0.07  -0.06   0.08
   102   1    -0.00  -0.01   0.00     0.16   0.05  -0.16    -0.13  -0.05   0.10
   103   1     0.07  -0.01   0.10    -0.10  -0.04   0.01    -0.04   0.09  -0.03
   104   1     0.10   0.06   0.03    -0.11  -0.05   0.05    -0.01   0.10  -0.07
   105   1     0.03   0.02   0.07    -0.13  -0.06   0.07     0.02   0.10  -0.10
   106   1     0.01   0.02  -0.02    -0.14  -0.01   0.06     0.03   0.05  -0.08
                      4                      5                      6
                      A                      A                      A
 Frequencies --     29.3710                34.8087                39.8465
 Red. masses --      5.5676                 4.7501                 5.1485
 Frc consts  --      0.0028                 0.0034                 0.0048
 IR Inten    --      0.0847                 0.3655                 0.4760
  Atom  AN      X      Y      Z        X      Y      Z        X      Y      Z
     1   6    -0.02  -0.01  -0.01     0.01  -0.01   0.00    -0.03   0.00   0.02
     2   6     0.00  -0.01  -0.01     0.00  -0.05   0.06    -0.01   0.02  -0.00
     3   6     0.05  -0.03  -0.00     0.01  -0.09   0.16     0.00   0.02  -0.04
     4   6     0.03  -0.08  -0.06     0.03  -0.04  -0.02    -0.02  -0.01   0.09
     5   8     0.02  -0.01   0.01     0.00  -0.11   0.07    -0.02   0.05  -0.01
     6   1     0.05  -0.05  -0.01     0.03  -0.14   0.14    -0.03   0.04  -0.03
     7   1     0.06  -0.01   0.01     0.02  -0.07   0.21     0.01   0.04  -0.07
     8   1     0.06  -0.05   0.00     0.01  -0.08   0.19     0.02   0.00  -0.03
     9   8     0.05  -0.08  -0.07     0.10  -0.08  -0.02    -0.04  -0.05   0.11
    10   8     0.03  -0.10  -0.07    -0.06   0.01  -0.02     0.02   0.03   0.11
    11   6     0.07  -0.13  -0.09    -0.06   0.02  -0.04     0.03   0.02   0.18
    12   1     0.06  -0.13  -0.09    -0.15   0.07  -0.04     0.06   0.06   0.19
    13   1     0.10  -0.11  -0.08    -0.02  -0.01   0.04     0.01   0.01   0.20
    14   1     0.07  -0.15  -0.10    -0.02  -0.01  -0.13     0.01   0.00   0.20
    15  14     0.01   0.03   0.01    -0.00  -0.06   0.03    -0.02   0.03  -0.01
    16   6    -0.01   0.05   0.01     0.01  -0.07   0.03    -0.02  -0.01   0.01
    17   1    -0.00   0.08   0.02     0.01  -0.07   0.02    -0.02   0.00   0.01
    18   1     0.01   0.05   0.01     0.02  -0.08   0.03    -0.02  -0.04  -0.01
    19   1    -0.03   0.05   0.01     0.02  -0.07   0.04    -0.04  -0.02   0.05
    20   6    -0.01   0.03   0.00    -0.05  -0.03   0.05    -0.00   0.05   0.02
    21   1    -0.01   0.02   0.01    -0.05  -0.02   0.05     0.02   0.06   0.01
    22   1    -0.03   0.02   0.00    -0.08  -0.05   0.06    -0.01   0.05   0.01
    23   1    -0.02   0.05  -0.00    -0.06   0.00   0.05    -0.01   0.06   0.04
    24   6     0.06   0.05   0.02     0.02  -0.04  -0.00    -0.02   0.04  -0.04
    25   6     0.07   0.04   0.01     0.10  -0.05   0.00    -0.02   0.01  -0.07
    26   1     0.10   0.05   0.01     0.12  -0.04  -0.02    -0.02   0.02  -0.10
    27   1     0.07   0.01   0.01     0.12  -0.08   0.04    -0.01   0.01  -0.07
    28   1     0.06   0.05   0.02     0.13  -0.03  -0.02    -0.01  -0.01  -0.06
    29   6     0.05   0.08   0.02     0.00   0.00  -0.08    -0.02   0.06  -0.04
    30   1     0.04   0.09   0.02     0.03   0.02  -0.10    -0.02   0.04  -0.03
    31   1     0.08   0.09   0.02     0.02   0.01  -0.09    -0.02   0.06  -0.06
    32   1     0.04   0.09   0.02    -0.06   0.00  -0.09    -0.02   0.08  -0.02
    33   6     0.07   0.03   0.01    -0.02  -0.06   0.03    -0.02   0.07  -0.06
    34   1     0.10   0.04   0.01     0.00  -0.04   0.00    -0.01   0.08  -0.08
    35   1     0.05   0.04   0.01    -0.10  -0.04   0.03    -0.01   0.10  -0.04
    36   1     0.07   0.00   0.01    -0.01  -0.10   0.09    -0.02   0.07  -0.07
    37   6     0.01  -0.06  -0.05     0.03  -0.04  -0.00    -0.02  -0.01   0.02
    38   6     0.01  -0.03  -0.01    -0.01  -0.04   0.09     0.00   0.00  -0.01
    39   6    -0.04  -0.01  -0.03     0.01   0.04  -0.00    -0.05  -0.03   0.01
    40   8    -0.03  -0.06  -0.06     0.00  -0.02  -0.03    -0.00   0.02   0.01
    41   1     0.02  -0.06  -0.04     0.07  -0.06   0.01    -0.04  -0.03   0.01
    42   6    -0.06  -0.01  -0.03     0.04   0.07  -0.05    -0.10  -0.04   0.03
    43   1    -0.03  -0.00  -0.01     0.02  -0.03  -0.02    -0.04   0.02   0.04
    44   1     0.00  -0.03  -0.02    -0.03   0.01   0.09     0.02  -0.02  -0.01
    45   6    -0.08   0.01   0.00     0.03  -0.01   0.05     0.03  -0.05   0.05
    46   6    -0.09  -0.02   0.02     0.03   0.00   0.05     0.03  -0.05   0.03
    47   6    -0.08  -0.05   0.03     0.02   0.03   0.01     0.02  -0.02  -0.02
    48   6    -0.05  -0.04   0.03     0.01   0.04  -0.01     0.02  -0.02  -0.04
    49   1    -0.10   0.03  -0.00     0.04  -0.03   0.08     0.03  -0.07   0.09
    50   1    -0.11  -0.02   0.02     0.05  -0.00   0.06     0.03  -0.05   0.05
    51   1    -0.08  -0.07   0.05     0.03   0.04  -0.00     0.02  -0.02  -0.05
    52   1    -0.04  -0.06   0.04     0.00   0.06  -0.04     0.02  -0.00  -0.08
    53   6    -0.06   0.01   0.00     0.02  -0.00   0.03     0.03  -0.04   0.02
    54   6    -0.04  -0.01   0.01     0.01   0.02   0.01     0.02  -0.02  -0.02
    55   6    -0.01  -0.01   0.00    -0.00   0.02  -0.00     0.02  -0.02  -0.04
    56   6    -0.01   0.02  -0.00    -0.00   0.01   0.01     0.02  -0.01  -0.04
    57   6    -0.02   0.04   0.01     0.00  -0.00   0.02     0.03  -0.02  -0.01
    58   6    -0.05   0.04   0.01     0.01  -0.01   0.04     0.03  -0.04   0.03
    59   8     0.01   0.02  -0.01    -0.01   0.01   0.01     0.02  -0.00  -0.06
    60   1    -0.06   0.05   0.02     0.02  -0.03   0.06     0.03  -0.06   0.06
    61   6    -0.01  -0.01   0.00    -0.01   0.03  -0.02    -0.01   0.03   0.00
    62   6    -0.01  -0.00  -0.00     0.00   0.01  -0.01    -0.01   0.00  -0.01
    63   6    -0.01  -0.01   0.00    -0.00   0.02  -0.01     0.00  -0.01  -0.03
    64   6    -0.00  -0.02   0.00    -0.01   0.03  -0.01     0.02  -0.01  -0.03
    65   1    -0.01  -0.01  -0.00    -0.01   0.03  -0.02    -0.02   0.05   0.01
    66   8    -0.01  -0.00   0.00     0.01   0.01  -0.00    -0.01  -0.02  -0.04
    67   6     0.01  -0.04   0.00    -0.03   0.05  -0.01     0.02   0.01  -0.02
    68   6     0.01  -0.04   0.00    -0.03   0.05  -0.02     0.00   0.04  -0.00
    69   6     0.02  -0.06   0.01    -0.06   0.09  -0.03    -0.00   0.08   0.00
    70   6     0.04  -0.09   0.01    -0.09   0.12  -0.03     0.01   0.09  -0.00
    71   6     0.04  -0.10   0.01    -0.08   0.11  -0.02     0.03   0.05  -0.02
    72   6     0.02  -0.07   0.01    -0.06   0.08  -0.01     0.04   0.02  -0.03
    73   1     0.02  -0.06   0.01    -0.06   0.09  -0.04    -0.02   0.10   0.01
    74   1     0.05  -0.12   0.01    -0.11   0.15  -0.04     0.01   0.12   0.00
    75   1     0.05  -0.12   0.01    -0.10   0.14  -0.02     0.05   0.06  -0.02
    76   1     0.02  -0.07   0.00    -0.05   0.07  -0.00     0.05  -0.01  -0.04
    77   6     0.06   0.18   0.07    -0.03   0.06  -0.10     0.08   0.06   0.03
    78   6     0.05   0.18   0.14    -0.01   0.08   0.00     0.10   0.08   0.11
    79   6     0.02   0.14   0.11     0.00   0.06   0.05     0.08   0.05   0.09
    80   6    -0.00   0.08   0.02    -0.00   0.01  -0.01     0.04  -0.00  -0.01
    81   6     0.01   0.07  -0.05    -0.02  -0.01  -0.11     0.02  -0.02  -0.09
    82   6     0.03   0.12  -0.02    -0.03   0.02  -0.16     0.04   0.01  -0.07
    83   1     0.08   0.22   0.09    -0.04   0.07  -0.14     0.09   0.09   0.05
    84   1     0.07   0.23   0.21    -0.01   0.11   0.05     0.13   0.12   0.19
    85   1     0.03   0.14   0.17     0.02   0.07   0.13     0.09   0.06   0.16
    86   1    -0.01   0.03  -0.12    -0.01  -0.04  -0.15    -0.00  -0.06  -0.17
    87   1     0.04   0.12  -0.07    -0.04   0.00  -0.24     0.03  -0.00  -0.14
    88  15    -0.02  -0.02   0.01     0.00  -0.01   0.01    -0.00   0.00  -0.06
    89   8    -0.04  -0.03   0.06    -0.00  -0.01   0.03     0.01   0.00  -0.07
    90   8    -0.03  -0.06  -0.03     0.01  -0.02   0.00    -0.02   0.02  -0.06
    91   1    -0.02  -0.06  -0.05     0.01  -0.03  -0.02    -0.01   0.02  -0.03
    92   6    -0.02   0.04  -0.01     0.02  -0.02  -0.02    -0.07  -0.15   0.04
    93   6    -0.03   0.02  -0.01     0.04   0.01  -0.02    -0.05  -0.12   0.04
    94   6    -0.03   0.00  -0.00     0.03   0.02  -0.02    -0.03  -0.06   0.02
    95   6    -0.02   0.01  -0.00     0.01   0.00  -0.01    -0.02  -0.03   0.00
    96   6    -0.01   0.04  -0.00    -0.00  -0.03  -0.01    -0.03  -0.06   0.01
    97   6    -0.01   0.05  -0.00     0.00  -0.04  -0.01    -0.06  -0.12   0.02
    98   1    -0.02   0.06  -0.01     0.03  -0.03  -0.02    -0.08  -0.20   0.06
    99   1    -0.04   0.01  -0.01     0.05   0.03  -0.02    -0.06  -0.15   0.06
   100   1    -0.04  -0.01  -0.00     0.04   0.04  -0.02    -0.02  -0.04   0.02
   101   1     0.00   0.05   0.00    -0.02  -0.05  -0.01    -0.03  -0.04  -0.01
   102   1    -0.00   0.07  -0.00    -0.01  -0.07  -0.01    -0.06  -0.14   0.02
   103   1    -0.04  -0.02  -0.03    -0.00   0.07   0.02    -0.04  -0.05  -0.01
   104   1    -0.07  -0.01  -0.03     0.03   0.10  -0.04    -0.11  -0.05   0.03
   105   1    -0.07  -0.03  -0.03     0.05   0.08  -0.07    -0.11  -0.07   0.02
   106   1    -0.07  -0.00  -0.02     0.06   0.04  -0.06    -0.11  -0.02   0.05
                      7                      8                      9
                      A                      A                      A
 Frequencies --     43.0701                48.4605                49.6298
 Red. masses --      5.0374                 4.7153                 4.2848
 Frc consts  --      0.0055                 0.0065                 0.0062
 IR Inten    --      0.3662                 0.3537                 1.0764
  Atom  AN      X      Y      Z        X      Y      Z        X      Y      Z
     1   6     0.02  -0.01   0.03     0.05  -0.01  -0.03    -0.01   0.08   0.04
     2   6     0.04  -0.01   0.03     0.05  -0.01  -0.03    -0.01   0.07   0.05
     3   6     0.04   0.01  -0.01     0.02   0.01  -0.05     0.01   0.05   0.09
     4   6     0.02   0.06  -0.03     0.03   0.02  -0.00     0.03  -0.01  -0.01
     5   8     0.07  -0.02   0.06     0.06  -0.01  -0.02    -0.01   0.06   0.06
     6   1     0.05   0.02  -0.01     0.04   0.02  -0.05     0.01   0.03   0.08
     7   1     0.04   0.02  -0.00     0.01  -0.01  -0.04     0.02   0.06   0.10
     8   1     0.04   0.01  -0.03     0.01   0.02  -0.06     0.02   0.04   0.10
     9   8     0.07   0.02  -0.03    -0.02   0.04   0.00    -0.00   0.05  -0.02
    10   8    -0.06   0.12  -0.03     0.10  -0.02   0.00     0.11  -0.11  -0.02
    11   6    -0.11   0.16  -0.03     0.11  -0.03   0.02     0.20  -0.18  -0.06
    12   1    -0.18   0.22  -0.03     0.17  -0.06   0.02     0.27  -0.28  -0.07
    13   1    -0.11   0.12   0.03     0.09  -0.01  -0.03     0.24  -0.11  -0.15
    14   1    -0.06   0.18  -0.10     0.08  -0.02   0.08     0.15  -0.22   0.01
    15  14     0.06   0.02   0.06     0.06  -0.04   0.01    -0.01   0.01   0.06
    16   6     0.05  -0.02   0.08     0.05   0.01  -0.00    -0.00  -0.08   0.08
    17   1     0.05   0.01   0.09     0.05   0.02   0.00    -0.00  -0.11   0.09
    18   1     0.06  -0.06   0.06     0.05   0.02   0.01    -0.03  -0.11   0.05
    19   1     0.02  -0.04   0.12     0.03   0.01  -0.02     0.02  -0.08   0.13
    20   6     0.02   0.06   0.09     0.07  -0.10  -0.04     0.02   0.04   0.09
    21   1     0.03   0.07   0.08     0.01  -0.12  -0.02     0.03   0.06   0.08
    22   1    -0.02   0.03   0.10     0.12  -0.06  -0.04     0.01   0.03   0.10
    23   1     0.01   0.10   0.09     0.09  -0.14  -0.09     0.01   0.04   0.11
    24   6     0.10   0.05   0.00     0.04  -0.08   0.10    -0.04   0.01  -0.01
    25   6     0.12  -0.00  -0.04    -0.04  -0.02   0.13    -0.00  -0.03  -0.04
    26   1     0.15   0.02  -0.08    -0.06  -0.04   0.19    -0.03  -0.02  -0.09
    27   1     0.11  -0.05  -0.06    -0.06   0.02   0.09     0.01  -0.02   0.01
    28   1     0.09  -0.02  -0.02    -0.07  -0.01   0.15     0.04  -0.06  -0.05
    29   6     0.10   0.11   0.02     0.06  -0.14   0.17    -0.05   0.01  -0.06
    30   1     0.09   0.08   0.04     0.03  -0.12   0.18    -0.02  -0.01  -0.08
    31   1     0.13   0.13  -0.03     0.04  -0.16   0.22    -0.07   0.01  -0.10
    32   1     0.09   0.15   0.05     0.12  -0.17   0.15    -0.08   0.03  -0.06
    33   6     0.12   0.09  -0.02     0.08  -0.11   0.09    -0.09   0.06  -0.00
    34   1     0.15   0.11  -0.07     0.06  -0.13   0.16    -0.10   0.07  -0.06
[...]
 000740,-0.00000471,-0.00000233,0.00001183,-0.00000185,-0.00000503,0.00
 000044,-0.00000077,0.00000104,0.00000022,-0.00000031,0.00000071,0.0003
 7794,0.00061644,0.00030466,-0.00004590,-0.00011180,-0.00021498,0.00017
 083,-0.00070609,0.00052024,-0.00039249,-0.00027826,-0.00102948,-0.0000
 2929,-0.00000551,0.00005655,0.00000125,0.00006980,0.00005457,0.0000047
 8,0.00001831,-0.00008884,-0.00000666,0.00002966,-0.00001887,0.00004315
 ,-0.00002070,-0.00000732,0.00005983,-0.00007540,-0.00004227,0.00001326
 ,0.00001909,0.00000626,-0.00001255,-0.00002995,-0.00002822,-0.00001870
 ,-0.00002127,0.00004051,-0.00000549,-0.00000325,0.00000887,0.00000660,
 0.00000185,-0.00000516,-0.00093157,0.00076430,-0.00028929,0.00313876,-
 0.00214160,-0.00002625,-0.11133386,0.09804353,-0.00116468,-0.00197608,
 -0.00186734,-0.00085287,0.00139383,-0.00111937,0.00007095,-0.00008078,
 0.00005548,-0.00005162,0.00020633,0.00003167,0.00018694,-0.00026976,0.
 00012541,-0.00000085,0.00000050,-0.00000643,-0.00002049,-0.00004026,-0
 .00001281,0.00000438,-0.00001812,-0.00000330,-0.00000263,-0.00006615,-
 0.00007985,0.00002093,0.00001277,-0.00004086,0.00000806,-0.00000684,0.
 00000779,0.00000137,0.00000474,-0.00000181,0.00000082,0.00000120,0.000
 00120,-0.00000115,0.00000200,-0.00000055,-0.00007160,-0.00001157,0.000
 10109,0.00007381,0.00000546,-0.00001328,0.00001592,-0.00001141,-0.0000
 0320,-0.00001677,0.00001019,-0.00001850,-0.00003442,-0.00001954,-0.000
 00286,-0.00000083,0.00001341,-0.00002517,0.00000478,0.00000019,-0.0000
 0553,0.00000616,-0.00000858,0.00000678,-0.00000061,0.00000019,-0.00000
 261,0.00001574,0.00001454,-0.00001393,-0.00000553,0.00000230,0.0000008
 4,0.00000076,-0.00000051,-0.00000113,0.00000163,0.00000175,-0.00000134
 ,-0.00000006,0.00000140,-0.00000152,-0.00000007,-0.00001074,-0.0000011
 2,-0.00000181,0.00000026,-0.00000013,0.00000380,-0.00000027,-0.0000014
 4,0.00000155,0.00000125,-0.00000224,0.00000016,-0.00000319,0.00000339,
 -0.00000103,-0.00000070,-0.00000254,0.00000536,0.00000211,-0.00000472,
 -0.00000187,-0.00000114,0.00000695,0.00082436,-0.00115588,-0.00050242,
 -0.00079692,-0.00013141,-0.00019713,0.01764211,-0.00793948,0.00005914,
 -0.00011889,0.00162583,0.00084657,-0.00010264,0.00000287,0.00000329,-0
 .02904151,0.01419607,-0.04272081,0.00068969,-0.00042709,0.00061227,0.0
 0011148,-0.00007814,0.00003564,-0.00000879,-0.00001386,-0.00000628,-0.
 00000848,0.00002063,0.00000517,-0.00000496,0.00000739,0.00000131,0.000
 00608,0.00002086,0.00000538,0.00000498,0.00000285,0.00000324,-0.000000
 95,0.00000489,0.00000433,-0.00000390,0.00000346,0.00000503,0.00000437,
 -0.00000824,0.00000049,-0.00000172,0.00002189,0.00000947,0.00000393,-0
 .00003964,-0.00001657,-0.00001998,0.00006202,0.00000458,0.00002858,-0.
 00054790,-0.00029423,-0.00000843,0.00005612,0.00003016,0.00002756,-0.0
 0001857,-0.00001224,-0.00003754,0.00024213,0.00112520,0.00000263,0.000
 00968,0.00000492,-0.00002363,-0.00001164,-0.00003261,-0.00005844,0.000
 00503,0.00010388,0.00048539,0.00008916,-0.00047327,-0.00007447,0.00000
 193,0.00011534,-0.00001118,-0.00000760,0.00001003,-0.00102715,-0.00013
 694,0.00093329,0.00002772,0.00001872,-0.00002086,-0.00001475,-0.000006
 07,0.00001800,0.00001321,0.00000796,-0.00000294,-0.00000804,-0.0000015
 6,0.00001618,-0.00000334,0.00000069,0.00000308,-0.00001938,-0.00000849
 ,0.00001299,-0.00000529,-0.00000336,-0.00000044,-0.00000224,-0.0000017
 9,0.00000426,0.00000006,-0.00000006,0.00000574,0.00000237,-0.00000075,
 -0.00000593,0.00000439,0.00000155,-0.00000534,-0.00000301,-0.00000532,
 0.00000368,0.00000389,-0.00002300,0.00001337,-0.00002802,0.00000530,-0
 .00001060,0.00000901,0.00001278,0.00000887,-0.00000610,0.00001561,0.00
 000754,0.00000669,-0.00000173,-0.00000160,0.00000748,0.00000481,-0.000
 00259,-0.00000240,-0.00000213,0.00000185,-0.00001296,0.00001057,-0.000
 01755,-0.00000039,-0.00000341,-0.00000079,0.00151764,0.00239687,-0.003
 77188,-0.00019333,-0.00059840,0.00036563,-0.00036180,-0.00069895,0.001
 69129,-0.00072817,-0.00204018,-0.00110647,0.00000052,0.00000643,-0.000
 04050,-0.00003465,0.00001595,0.00002863,0.00002728,-0.00004181,0.00002
 911,0.00001721,-0.00001125,0.00002878,-0.00000195,0.00000737,-0.000014
 75,-0.00003931,0.00001574,-0.00000768,-0.00000913,0.00000602,-0.000003
 60,0.00000187,-0.00001562,0.00000451,0.00006312,0.00006323,0.00001123,
 -0.00000440,-0.00000017,0.00000431,-0.00000178,-0.00000120,-0.00000486
 ,-0.00033716,0.00020819,0.00029945,-0.02789983,0.01299880,-0.00254408,
 0.03168542,-0.01169169,0.04756505,0.00062754,0.00142962,-0.00067079,0.
 00011065,0.00045199,0.00008635,0.00006229,-0.00003669,0.00005411,0.000
 04449,0.00010852,0.00002160,0.00011142,-0.00009173,-0.00011493,-0.0000
 0114,0.00001021,0.00000659,-0.00000181,-0.00001917,-0.00001427,-0.0000
 0300,-0.00000220,-0.00000125,-0.00003494,-0.00005591,-0.00005849,-0.00
 001745,-0.00002916,-0.00000715,0.00001965,0.00001949,-0.00000090,-0.00
 000077,0.00000087,0.00000084,-0.00000154,-0.00000327,-0.00000063,-0.00
 000304,-0.00000135,-0.00000049,-0.00008074,-0.00000755,0.00010613,0.00
 003023,-0.00000177,-0.00003906,0.00000772,-0.00000466,-0.00000171,-0.0
 0000557,0.00001360,-0.00000671,-0.00001807,-0.00002626,0.00000808,0.00
 000386,0.00000510,-0.00002636,0.00000122,0.00000115,-0.00000538,0.0000
 0485,-0.00000640,0.00000468,-0.00000059,0.00000153,-0.00000089,0.00000
 725,0.00000263,-0.00001656,-0.00000129,0.00000251,-0.00000018,0.000001
 57,-0.00000290,-0.00000239,0.00000129,0.00000315,-0.00000044,-0.000002
 06,0.00000197,-0.00000137,-0.00000216,-0.00000755,0.00000016,-0.000002
 36,0.00000070,0.00000006,0.00000343,-0.00000240,-0.00000188,0.00000082
 ,0.00000168,-0.00000199,0.00000287,-0.00000526,0.00000318,0.00000019,-
 0.00000324,-0.00000309,0.00000196,0.00000207,-0.00000284,-0.00000037,0
 .00000165,0.00000409,0.00008459,-0.00020232,-0.00001635,-0.00021021,0.
 00007776,-0.00004179,0.00171950,0.00357973,-0.00087575,0.00007772,0.00
 021740,0.00005471,-0.00001467,-0.00001258,-0.00001274,-0.18221869,-0.1
 2524312,0.06591517,0.00015161,-0.00030109,-0.00021570,-0.00003103,0.00
 002835,0.00004565,-0.00000348,0.00000028,-0.00000174,-0.00000013,0.000
 00777,0.00000134,-0.00000303,0.00000103,-0.00000158,-0.00000222,0.0000
 0991,0.00000055,0.00000186,0.00000115,0.00000259,0.,0.00000116,0.00000
 204,-0.00000090,0.00000106,0.00000292,0.00000325,-0.00000621,0.0000017
 7,0.00000102,0.00000742,0.00000083,0.00000994,-0.00001668,-0.00000834,
 -0.00002400,0.00000031,-0.00000152,0.00000206,-0.00013204,-0.00006078,
 -0.00000486,0.00001912,0.00000572,0.00001278,0.00000210,-0.00000160,0.
 00012296,0.00014964,0.00023911,0.00000181,0.00000235,0.00000377,-0.000
 00013,-0.00000580,-0.00003771,-0.00004702,0.00005528,0.00001644,0.0004
 0150,0.00006964,-0.00032578,-0.00006867,-0.00002436,0.00008655,-0.0000
 0989,-0.00000452,0.00000785,-0.00020136,-0.00003426,0.00043964,0.00001
 552,0.00002050,0.00000102,-0.00000558,-0.00000695,0.00001818,0.0000085
 2,0.00000498,-0.00000594,-0.00000354,0.00000097,0.00001199,-0.00000460
 ,-0.00000139,0.00000239,-0.00001366,-0.00000463,0.00000375,-0.00000200
 ,-0.00000251,0.00000033,-0.00000041,-0.00000104,0.00000165,-0.00000010
 ,-0.00000067,0.00000287,0.00000144,-0.00000106,-0.00000065,0.00000200,
 -0.00000126,-0.00000182,-0.00000003,0.00000095,-0.00000295,0.00000175,
 -0.00000871,-0.00000053,-0.00000677,0.00000134,0.00000290,0.00000124,0
 .00000012,0.00000340,0.00000036,0.00000417,0.00000204,0.00000086,-0.00
 000047,0.00000005,0.00000470,0.00000182,-0.00000006,0.00000179,0.00000
 316,0.00000399,-0.00000283,0.00000302,-0.00000617,-0.00000174,0.000000
 63,-0.00000128,-0.00086418,-0.00009114,-0.00092415,0.00014623,-0.00003
 952,0.00025315,0.00044449,0.00045301,-0.00000600,-0.00004671,-0.000464
 39,0.00019302,0.00013878,-0.00021309,-0.00012653,-0.00052137,-0.000911
 33,0.00026796,-0.00035154,-0.00050811,0.00051631,0.00027385,-0.0003293
 4,-0.00008490,-0.00005444,0.00015938,-0.00006790,-0.00011029,0.0002732
 1,0.00005764,0.00000917,0.00000443,0.00000272,0.00004284,0.00017129,0.
 00004060,0.00002395,0.00017052,-0.00013389,-0.00000294,0.00000821,-0.0
 0001452,-0.00000449,-0.00000231,0.00000854,0.00128798,0.00054861,0.000
 95918,0.00437342,0.00524651,-0.00268210,-0.01516928,-0.01846752,0.0096
 5370,0.18977087,-0.00020533,0.00122424,0.00200279,0.00009553,0.0001973
 4,0.00033677,0.00007540,0.00009954,-0.00007477,0.00004747,0.00008008,0
 .00004000,0.00015106,0.00007891,-0.00010154,0.00000127,-0.00003396,-0.
 00002420,0.00000171,-0.00002076,-0.00000976,-0.00000304,0.00000691,0.0
 0000980,-0.00002936,-0.00004107,-0.00004115,-0.00004415,-0.00002746,-0
 .00000497,0.00002848,0.00002926,-0.00000900,0.00000084,-0.00000220,0.0
 0000225,-0.00000334,-0.00000404,0.00000035,-0.00000604,-0.00000455,-0.
 00000349,-0.00011041,-0.00007195,-0.00013472,-0.00001682,0.00000357,0.
 00009959,-0.00000970,0.00002450,0.00000506,0.00000165,-0.00004602,-0.0
 0001102,0.00008333,0.00003472,-0.00006321,0.00001046,0.00000244,0.0000
 3013,-0.00000368,-0.00000828,0.00000805,0.00000524,0.00000720,-0.00000
 247,-0.00000284,0.00000724,-0.00000175,0.00002135,0.00000695,0.0000257
 6,-0.00001095,-0.00000314,0.00000227,0.00000147,0.00000235,0.00000140,
 0.00000089,0.00000035,-0.00000268,0.00000599,-0.00000223,0.00000244,0.
 00000107,-0.00000091,-0.00000371,0.00000452,-0.00000003,0.00000062,-0.
 00000025,0.00000140,0.00000109,0.00000057,-0.00000036,0.00000140,-0.00
 001236,0.00001061,-0.00000175,0.00000273,0.00000281,0.00000422,0.00000
 120,-0.00000039,0.00000084,0.00000078,0.00000027,0.00000232,0.00009429
 ,-0.00002725,0.00012084,-0.00010235,-0.00000927,0.00010326,-0.02012666
 ,-0.01898444,0.01028630,-0.00010239,0.00019498,-0.00012296,-0.00000335
 ,-0.00000618,-0.00000364,-0.12286593,-0.15998569,0.05956747,0.00063296
 ,0.00031028,-0.00107092,0.00008658,0.00013156,-0.00004145,0.00000004,0
 .00000212,-0.00000163,-0.00000051,0.00000258,-0.00000073,-0.00000303,0
 .00000046,0.00000046,-0.00000047,-0.00000050,-0.00000009,0.00000077,-0
 .00000004,0.00000140,-0.00000009,-0.00000023,0.00000094,0.00000019,-0.
 00000038,-0.00000020,-0.00000133,0.00000129,-0.00000117,0.00000065,0.0
 0000095,-0.00000131,-0.00000257,-0.00000156,0.00000001,-0.00000454,-0.
 00000096,-0.00000468,-0.00000209,-0.00003284,-0.00002256,0.00000487,-0
 .00000061,-0.00000168,0.00000065,0.00000122,0.00000032,0.00002565,-0.0
 0002326,0.00006206,0.00000121,-0.00000073,0.00000144,-0.00001916,-0.00
 001301,-0.00004007,0.00004213,0.00001828,0.00003165,0.00018271,0.00005
 055,-0.00015772,-0.00003873,-0.00001265,0.00002899,-0.00000907,-0.0000
 0188,0.00001113,-0.00009737,-0.00020397,0.00023122,0.00000361,0.000004
 15,-0.00000299,0.00000223,-0.00000172,0.00000982,-0.00000230,-0.000003
 57,-0.00000778,-0.00000154,-0.00000012,0.00000253,-0.00000288,-0.00000
 313,-0.00000489,-0.00000136,0.00000032,0.00000045,-0.00000055,0.000000
 09,0.00000204,0.00000035,0.00000040,-0.00000156,-0.00000050,-0.0000002
 8,-0.00000055,-0.00000079,-0.00000049,-0.00000144,-0.00000102,0.000001
 54,0.00000170,0.00000074,0.00000183,0.00000071,0.00000134,-0.00000629,
 0.00000267,0.00000073,-0.00000035,-0.00000216,0.00000042,0.00000033,0.
 00000027,-0.00000103,0.00000215,0.00000092,-0.00000134,0.00000055,-0.0
 0000063,-0.00000106,-0.00000169,-0.00000079,0.00000367,0.00000011,0.00
 000005,-0.00000005,0.00000039,-0.00000023,0.,0.00000023,-0.00000041,-0
 .00009243,0.00041976,-0.00009667,-0.00007856,-0.00011726,-0.00007886,0
 .00000178,-0.00006065,0.00011592,-0.00004102,-0.00021872,-0.00010344,-
 0.00028671,-0.00003873,0.00000120,-0.00068397,-0.00108484,0.00011136,-
 0.00034663,-0.00069895,0.00075164,-0.00004120,-0.00011034,0.00011587,0
 .00014851,-0.00007752,-0.00008504,0.00016921,-0.00009493,-0.00010490,0
 .00004553,0.00004073,0.00003372,0.00000194,-0.00003663,-0.00002854,0.0
 0006189,0.00002293,0.00003089,0.00002947,0.00000132,-0.00001738,0.0000
 5290,0.00000272,-0.00001613,0.00054605,-0.00314607,-0.00332391,-0.0011
 3272,-0.00212894,-0.00056367,0.00989022,0.00945924,-0.00564480,0.13397
 920,0.17491026,-0.00121611,-0.00101587,0.00016603,-0.00016231,0.000437
 47,0.00018648,0.00009235,0.00001964,0.00000286,0.00005001,0.00011992,-
 0.00001772,0.00010345,0.00008303,-0.00005961,-0.00000004,-0.00000795,-
 0.00000843,-0.00000030,-0.00002518,-0.00001523,-0.00000342,0.00000152,
 0.00000496,-0.00003171,-0.00005499,-0.00003606,-0.00003629,-0.00003141
 ,0.00002217,0.00002144,0.00001859,-0.00000967,-0.00000097,-0.00000339,
 0.00000194,-0.00000333,-0.00000319,0.00000127,-0.00000423,-0.00000350,
 -0.00000189,0.00000127,-0.00005873,0.00006475,-0.00001400,-0.00000939,
 -0.00004326,-0.00000101,0.00000947,-0.00000449,-0.00000597,0.00002337,
 -0.00000269,-0.00000056,-0.00000942,0.00003674,-0.00000281,0.00001100,
 -0.00001410,-0.00000132,0.00000181,-0.00000181,0.00000353,-0.00000457,
 -0.00000384,-0.00000023,-0.00000041,0.00000180,0.00000355,0.00000686,-
 0.00001253,-0.00000312,0.00000322,0.00000368,0.00000129,-0.00000050,-0
 .00000252,0.00000147,0.00000218,-0.00000052,-0.00000178,0.00000115,-0.
 00000134,-0.00000016,-0.00000300,0.00000061,-0.00000139,-0.00000015,-0
 .00000025,0.00000152,-0.00000072,-0.00000085,0.00000097,0.00000071,-0.
 00000168,-0.00000003,-0.00000192,0.00000115,-0.00000007,-0.00000137,-0
 .00000145,0.00000185,0.00000091,-0.00000267,-0.00000080,-0.00000079,0.
 00000238,0.00011273,-0.00021674,0.00000001,-0.00018793,-0.00015875,-0.
 00009059,-0.01368521,-0.01078954,0.00656635,0.00006420,0.00017958,0.00
 010349,-0.00001427,-0.00000842,-0.00000476,0.06761425,0.06156536,-0.08
 281997,0.00043693,0.00009694,-0.00015286,0.00000710,0.00009985,-0.0000
 1118,-0.00000130,0.00000141,-0.00000097,0.00000035,0.00000539,0.000000
 51,-0.00000286,0.00000034,-0.00000168,-0.00000413,0.00000524,-0.000000
 26,0.00000140,0.00000079,0.00000180,0.00000018,0.00000104,0.00000161,-
 0.00000070,0.00000063,0.00000197,0.00000277,-0.00000479,0.00000010,0.0
 0000081,0.00000393,0.00000024,0.00001107,-0.00001003,-0.00000357,-0.00
 001844,-0.00000146,-0.00000081,-0.00000306,-0.00007157,-0.00003903,-0.
 00000070,0.00000846,0.00000290,0.00000830,0.00000231,-0.00000116,0.000
 07258,0.00003973,0.00013749,0.00000135,0.00000096,0.00000211,0.0000113
 2,0.00000495,-0.00000138,-0.00005482,0.00001105,-0.00000613,0.00017222
 ,0.00003117,-0.00024316,-0.00002835,-0.00000518,0.00004097,-0.00000437
 ,-0.00000321,0.00000275,0.00005517,0.00008763,-0.00019749,0.00001091,0
 .00001125,0.00000120,-0.00001011,-0.00000272,0.00001167,0.00001046,0.0
 0000593,-0.00000071,-0.00000227,-0.00000009,0.00000905,-0.00000273,0.,
 0.00000433,-0.00000919,-0.00000515,0.00000224,-0.00000210,-0.00000124,
 -0.00000059,-0.00000067,-0.00000047,0.00000234,-0.00000006,0.00000014,
 0.00000251,0.00000148,-0.00000031,0.00000053,0.00000026,0.00000067,0.0
 0000020,0.00000159,0.00000158,-0.00000052,0.00000181,-0.00000769,0.000
 00162,-0.00000250,0.00000225,0.00000058,0.00000120,-0.00000062,0.00000
 180,-0.00000088,0.00000369,0.00000115,0.00000004,0.00000037,-0.0000007
 9,0.00000014,-0.00000049,-0.00000110,0.00000317,0.00000031,0.00000067,
 -0.00000214,0.00000197,-0.00000257,-0.00000027,-0.00000041,-0.00000026
 ,-0.00047834,0.00020860,-0.00036447,0.00008320,-0.00007949,0.00004029,
 0.00023737,0.00012552,0.00010959,-0.00002902,-0.00028848,0.00003056,-0
 .00004670,0.00023652,-0.00021983,0.00048321,0.00038240,0.00002856,0.00
 014135,0.00044709,-0.00011459,0.00007039,-0.00014572,-0.00017979,0.000
 03047,-0.00013669,-0.00003559,-0.00016259,0.00013388,0.00009976,-0.000
 07923,-0.00006590,-0.00003087,-0.00000796,-0.00018022,-0.00001081,-0.0
 0002297,0.00001655,-0.00000856,-0.00001714,0.00000409,-0.00000315,-0.0
 0002483,-0.00002419,-0.00000063,0.00103821,-0.00323219,-0.00051895,0.0
 2132163,0.01762217,-0.00647681,-0.00340308,-0.00325575,0.00066871,-0.0
 7248945,-0.06215862,0.08341174\\-0.00000780,-0.00000005,0.00000872,-0.
 00001087,-0.00000689,0.00000648,0.00000291,-0.00000363,-0.00000412,0.0
 0000312,-0.00000118,-0.00000070,0.00000502,0.00001032,-0.00000554,0.00
 000118,0.00000028,0.00000223,-0.00000501,0.00000117,0.00000079,-0.0000
 0135,0.00000016,-0.00000167,-0.00000127,-0.00000098,-0.00000382,-0.000
 00291,-0.00000267,0.00000171,-0.00000516,0.00000155,0.00000342,-0.0000
 0046,0.00000103,-0.00000711,0.00000134,-0.00000255,-0.00000446,0.00000
 222,-0.00000123,-0.00000023,0.00000443,-0.00000483,0.00000105,0.000001
 23,-0.00000675,-0.00000318,-0.00000074,0.00000049,0.00000117,-0.000000
 73,-0.00000116,0.00000187,-0.00000130,0.00000632,0.00000252,0.00000563
 ,0.00000098,0.00000606,-0.00000194,-0.00000632,-0.00000602,-0.00000594
 ,0.00000679,0.00000154,-0.00000147,-0.00000087,0.00000136,-0.00000159,
 0.00000312,-0.00000346,-0.00000642,-0.00000725,-0.00000229,-0.00000075
 ,0.00000173,0.00000133,0.00000407,0.00000054,-0.00000086,0.00000180,0.
 00000154,0.00000419,0.00000220,0.00000175,0.00000200,-0.00000037,-0.00
 000050,0.00000081,-0.00000022,0.00000087,0.00000093,0.00000040,-0.0000
 0032,0.00000172,-0.00000030,0.00000244,-0.00000076,0.00000064,-0.00000
 054,0.00000065,0.00000117,-0.00000173,0.00000444,0.00000292,0.00000118
 ,0.00000007,-0.00000419,0.00000651,-0.00000579,0.00000659,0.00000067,0
 .00000050,0.00001013,0.00000441,-0.00001076,0.00000134,0.00000134,-0.0
 0000034,0.00000149,-0.00000222,0.00000337,-0.00000464,0.00000003,-0.00
 000180,-0.00000121,0.00000039,0.00000046,-0.00000053,0.00000067,0.0000
 0027,-0.00000255,0.00000085,-0.00000061,0.00000738,0.00001116,0.000003
 47,-0.00000393,-0.00000654,-0.00000391,-0.00000018,-0.00000251,-0.0000
 0731,0.00000179,0.00000175,-0.00000087,0.00000129,-0.00000367,-0.00000
 287,-0.00000037,0.00000231,0.00000078,0.00000467,0.00000422,0.00000766
 ,0.00000341,-0.00000230,-0.00000479,-0.00000304,-0.00000016,-0.0000032
 0,0.00000011,0.00000060,0.00000111,-0.00000414,-0.00000287,-0.00000356
 ,0.00000653,0.00000635,0.00000008,-0.00000444,-0.00000602,-0.00000270,
 0.00000066,0.00000213,0.,0.00000486,0.00000303,-0.00000124,0.00000379,
 0.00000110,0.00001126,0.00000436,0.00000178,-0.00000724,-0.00000310,-0
 .00000217,0.00000638,0.00000529,0.00000469,-0.00000613,-0.00000187,-0.
 00000064,0.00000080,-0.00000584,0.00000117,0.00000183,-0.00000349,-0.0
 0000197,-0.00000351,-0.00000684,-0.00000293,-0.00000167,0.00000442,0.0
 0000152,0.00000295,-0.00000318,-0.00000195,-0.00000050,0.00000777,0.00
 000584,0.00000047,0.00000836,0.00000363,0.00000982,0.00000145,0.000001
 43,0.00000123,0.00000064,0.00000071,0.00000248,0.00000056,-0.00000028,
 -0.00000190,-0.00000331,-0.00000051,-0.00000101,-0.00000366,0.00000206
 ,-0.00000146,0.00000199,0.00000080,-0.00000296,0.00000330,-0.00000484,
 -0.00000267,-0.00000403,0.00000316,-0.00000020,0.00000422,-0.00000231,
 -0.00000233,-0.00000147,-0.00000111,0.00000125,0.00000083,-0.00000041,
 -0.00000235,-0.00000090,-0.00000166,-0.00000162,-0.00000017,0.00000290
 ,-0.00000049,0.00000031,-0.00000082,-0.00000042,-0.00000044,0.00000146
 ,-0.00000207,0.00000692,0.00000308,-0.00000336,-0.00000087,-0.00000228
 ,0.00000016,-0.00000288,-0.00000086,0.00000243,-0.00000079,-0.00000664
 ,-0.00000170,-0.00000457,-0.00000219,-0.00000279,0.00000375,-0.0000058
 2,-0.00000292,-0.00000407,0.00000222,0.00000130,0.00000237,-0.00000434
 ,0.00000279,-0.00000436,0.00000106,0.00000332,-0.00000301,0.00000251,0
 .00000237,-0.00000014,-0.00000027,0.00000305,-0.00000492,0.00000282,0.
 00000523,0.00000313,-0.00000149,0.00000175,0.00000058,0.00000020,0.000
 00177,0.00000225,-0.00000247,0.00000310,-0.00000473,-0.00000696,0.0000
 0220,-0.00000217,-0.00000094,0.00000077,-0.00000051,-0.00000106,0.0000
 0172,0.00000033,-0.00000011,0.00000002\\\@
 The archive entry for this job was punched.


 THE ... SCIENTISTS WERE WRONG ... THE MOST PERSISTENT PRINCIPLES 
 OF THE UNIVERSE WERE ACCIDENT AND ERROR.

                          -- FRANK HERBERT IN DUNE
 Job cpu time:       1 days 15 hours 54 minutes 22.4 seconds.
 Elapsed time:       0 days  3 hours 21 minutes 45.5 seconds.
 File lengths (MBytes):  RWF=  12730 Int=      0 D2E=      0 Chk=     99 Scr=      1
 Normal termination of Gaussian 16 at Sun Dec 31 00:12:34 2023.
