Unloading slurm/anatra/current
  ERROR: No such file or directory on
    '/cm/local/modulefiles/slurm/anatra/current'
environment: line 0: unalias: gv: not found
environment: line 0: unalias: sl: not found
 Entering Gaussian System, Link 0=g16
 Initial command:
 /apps/gaussian/g16/C.01/g16/l1.exe "/local/jobs/1151051/Gau-304032.inp" -scrdir="/local/jobs/1151051/"
 Entering Link 1 = /apps/gaussian/g16/C.01/g16/l1.exe PID=    304033.
  
 Copyright (c) 1988-2019, Gaussian, Inc.  All Rights Reserved.
  
 This is part of the Gaussian(R) 16 program.  It is based on
 the Gaussian(R) 09 system (copyright 2009, Gaussian, Inc.),
 the Gaussian(R) 03 system (copyright 2003, Gaussian, Inc.),
 the Gaussian(R) 98 system (copyright 1998, Gaussian, Inc.),
 the Gaussian(R) 94 system (copyright 1995, Gaussian, Inc.),
 the Gaussian 92(TM) system (copyright 1992, Gaussian, Inc.),
 the Gaussian 90(TM) system (copyright 1990, Gaussian, Inc.),
 the Gaussian 88(TM) system (copyright 1988, Gaussian, Inc.),
 the Gaussian 86(TM) system (copyright 1986, Carnegie Mellon
 University), and the Gaussian 82(TM) system (copyright 1983,
 Carnegie Mellon University). Gaussian is a federally registered
 trademark of Gaussian, Inc.
  
 This software contains proprietary and confidential information,
 including trade secrets, belonging to Gaussian, Inc.
  
 This software is provided under written license and may be
 used, copied, transmitted, or stored only in accord with that
 written license.
  
 The following legend is applicable only to US Government
 contracts under FAR:
  
                    RESTRICTED RIGHTS LEGEND
  
 Use, reproduction and disclosure by the US Government is
 subject to restrictions as set forth in subparagraphs (a)
 and (c) of the Commercial Computer Software - Restricted
 Rights clause in FAR 52.227-19.
  
 Gaussian, Inc.
 340 Quinnipiac St., Bldg. 40, Wallingford CT 06492
  
  
 ---------------------------------------------------------------
 Warning -- This program may not be used in any manner that
 competes with the business of Gaussian, Inc. or will provide
 assistance to any competitor of Gaussian, Inc.  The licensee
 of this program is prohibited from giving any competitor of
 Gaussian, Inc. access to this program.  By using this program,
 the user acknowledges that Gaussian, Inc. is engaged in the
 business of creating and licensing software in the field of
 computational chemistry and represents and warrants to the
 licensee that it is not a competitor of Gaussian, Inc. and that
 it will not use this program in any manner prohibited above.
 ---------------------------------------------------------------
  

 Cite this work as:
 Gaussian 16, Revision C.01,
 M. J. Frisch, G. W. Trucks, H. B. Schlegel, G. E. Scuseria, 
 M. A. Robb, J. R. Cheeseman, G. Scalmani, V. Barone, 
 G. A. Petersson, H. Nakatsuji, X. Li, M. Caricato, A. V. Marenich, 
 J. Bloino, B. G. Janesko, R. Gomperts, B. Mennucci, H. P. Hratchian, 
 J. V. Ortiz, A. F. Izmaylov, J. L. Sonnenberg, D. Williams-Young, 
 F. Ding, F. Lipparini, F. Egidi, J. Goings, B. Peng, A. Petrone, 
 T. Henderson, D. Ranasinghe, V. G. Zakrzewski, J. Gao, N. Rega, 
 G. Zheng, W. Liang, M. Hada, M. Ehara, K. Toyota, R. Fukuda, 
 J. Hasegawa, M. Ishida, T. Nakajima, Y. Honda, O. Kitao, H. Nakai, 
 T. Vreven, K. Throssell, J. A. Montgomery, Jr., J. E. Peralta, 
 F. Ogliaro, M. J. Bearpark, J. J. Heyd, E. N. Brothers, K. N. Kudin, 
 V. N. Staroverov, T. A. Keith, R. Kobayashi, J. Normand, 
 K. Raghavachari, A. P. Rendell, J. C. Burant, S. S. Iyengar, 
 J. Tomasi, M. Cossi, J. M. Millam, M. Klene, C. Adamo, R. Cammi, 
 J. W. Ochterski, R. L. Martin, K. Morokuma, O. Farkas, 
 J. B. Foresman, and D. J. Fox, Gaussian, Inc., Wallingford CT, 2019.
 
 ******************************************
 Gaussian 16:  ES64L-G16RevC.01  3-Jul-2019
                21-Dec-2023 
 ******************************************
 %chk=BPA_TS_2_opt_hf_re.chk
 %nprocshared=12
 Will use up to   12 processors via shared memory.
 %mem=48GB
 ----------------------------------------------------------------------
 # wb97xd def2svp geom=allchk scrf=(iefpcm,solvent=toluene) opt=(readfc
 ,ts,noeigen,maxcycles=50,maxstep=10)
 ----------------------------------------------------------------------
 1/5=1,6=50,8=10,10=3,11=1,18=20,26=3,29=7,38=1/1,3;
 2/9=110,12=2,40=1/2;
 3/5=43,7=101,11=2,14=-4,25=1,30=1,70=2201,71=1,72=13,74=-58/1,2,3;
 4//1;
 5/5=2,38=5,53=13/2;
 6/7=2,8=2,9=2,10=2,28=1/1;
 7//1,2,3,16;
 1/5=1,6=50,8=10,11=1,18=20,26=3/3(2);
 2/9=110/2;
 99//99;
 2/9=110/2;
 3/5=43,7=101,11=2,14=-2,25=1,30=1,70=2205,71=1,72=13,74=-58/1,2,3;
 4/5=5,16=3,69=1/1;
 5/5=2,38=5,53=13/2;
 7//1,2,3,16;
 1/5=1,6=50,8=10,11=1,18=20,26=3/3(-5);
 2/9=110/2;
 6/7=2,8=2,9=2,10=2,19=2,28=1/1;
 99/9=1/99;
 Structure from the checkpoint file:  "BPA_TS_2_opt_hf_re.chk"
 ----------------------
 BPA_TS_2_opt_hf_re.out
 ----------------------
 Charge =  0 Multiplicity = 1
 Redundant internal coordinates found in file.  (old form).
 C,0,-0.83274,0.71202,-2.40123
 C,0,-0.79153,1.84417,-1.50664
 C,0,0.11536,4.0013,-0.6027
 C,0,2.80924,2.89067,-0.98466
 O,0,-1.65546,1.855,-0.49726
 H,0,0.05613,3.65665,0.44102
 H,0,-0.77064,4.62619,-0.79589
 H,0,0.99381,4.6529,-0.69597
 O,0,3.24148,3.32193,0.05493
 O,0,3.11439,3.37723,-2.17997
 C,0,4.02203,4.47061,-2.20925
 H,0,4.15253,4.73163,-3.26444
 H,0,3.61659,5.32775,-1.65273
 H,0,4.98678,4.18484,-1.76733
 Si,0,-3.37037,1.7358,-0.41749
 C,0,-4.02841,1.17301,-2.07617
 H,0,-5.12739,1.25394,-2.0757
 H,0,-3.64478,1.79932,-2.89605
 H,0,-3.77057,0.1287,-2.29875
 C,0,-3.74963,0.52696,0.95017
 H,0,-3.66545,0.98761,1.94521
 H,0,-3.05821,-0.3263,0.90681
 H,0,-4.77455,0.13775,0.84633
 C,0,-4.01235,3.47458,-0.01051
 C,0,-3.78561,4.40907,-1.20917
 H,0,-4.0971,5.43804,-0.95948
 H,0,-2.72671,4.44947,-1.50894
 H,0,-4.36831,4.09431,-2.08896
 C,0,-5.52011,3.37962,0.28292
 H,0,-6.08849,2.98896,-0.57667
 H,0,-5.92569,4.37992,0.51334
 H,0,-5.73164,2.7337,1.15008
 C,0,-3.28941,4.02455,1.22834
 H,0,-3.65889,5.03625,1.46977
 H,0,-3.46479,3.39299,2.11406
 H,0,-2.20249,4.08685,1.0752
 C,0,1.90237,1.67399,-1.06145
 C,0,0.18416,2.83593,-1.5528
 C,0,-0.03274,0.53652,-3.47366
 O,0,2.14237,0.84117,-1.96487
 H,0,1.52148,1.36557,-0.07499
 C,0,0.02803,-0.72984,-4.25344
 H,0,-1.48596,-0.10958,-2.09723
 H,0,0.65412,3.00124,-2.52374
 C,0,1.81437,2.65962,3.05574
 C,0,0.60994,3.21098,3.41339
 C,0,-0.58569,2.48021,3.21378
 C,0,-0.55288,1.21801,2.67378
 H,0,2.74247,3.22216,3.1732
 H,0,0.56837,4.21652,3.83688
 H,0,-1.54396,2.92864,3.48194
 H,0,-1.48121,0.67509,2.50617
 C,0,1.87904,1.35487,2.4956
 C,0,0.68049,0.60978,2.31207
 C,0,0.76157,-0.69974,1.72809
 C,0,1.98481,-1.1452,1.26374
 C,0,3.1911,-0.39821,1.40906
 C,0,3.11314,0.81479,2.05391
 O,0,2.04506,-2.36218,0.6307
 H,0,4.01885,1.40813,2.19086
 C,0,-2.81904,-2.99977,1.0986
 C,0,-2.01006,-2.6934,0.02848
 C,0,-0.79188,-2.003,0.29587
 C,0,-0.44558,-1.55591,1.55795
 H,0,-3.76049,-3.52522,0.92171
 O,0,0.04352,-1.72633,-0.75836
 C,0,-1.26188,-1.94136,2.6728
 C,0,-2.46203,-2.66805,2.43038
 C,0,-3.28549,-3.04331,3.52742
 C,0,-2.92562,-2.73306,4.8149
 C,0,-1.71523,-2.04133,5.06094
 C,0,-0.90511,-1.65647,4.02053
 H,0,-4.2082,-3.59259,3.32529
 H,0,-3.56222,-3.02907,5.65118
 H,0,-1.41895,-1.81808,6.08798
 H,0,0.03027,-1.13533,4.22705
 C,0,6.92633,-1.67467,-0.28273
 C,0,6.48416,-0.3628,-0.4448
 C,0,5.26853,0.03699,0.10569
 C,0,4.47548,-0.86734,0.82574
 C,0,4.92892,-2.18444,0.98195
 C,0,6.14571,-2.58193,0.43374
 H,0,7.87674,-1.99195,-0.71747
 H,0,7.08437,0.35346,-1.01011
 H,0,4.91912,1.06282,-0.03268
 H,0,4.32426,-2.90288,1.53652
 H,0,6.48551,-3.61138,0.56606
 P,0,1.46602,-2.5328,-0.88493
 O,0,1.37417,-3.96048,-1.22951
 O,0,2.27995,-1.62143,-1.84236
 H,0,2.14356,-0.59456,-1.83161
 C,0,-3.39927,-3.44142,-3.96828
 C,0,-2.15189,-3.92322,-3.57013
 C,0,-1.68049,-3.69315,-2.27892
 C,0,-2.46002,-2.97424,-1.36274
 C,0,-3.71872,-2.50687,-1.76631
 C,0,-4.18537,-2.73443,-3.06011
 H,0,-3.75945,-3.62049,-4.98372
 H,0,-1.53334,-4.48644,-4.27233
 H,0,-0.70138,-4.07461,-1.98245
 H,0,-4.3311,-1.94403,-1.05732
 H,0,-5.16428,-2.35267,-3.35867
 H,0,0.61318,1.35034,-3.81297
 H,0,-0.15251,-0.54346,-5.32382
 H,0,1.03868,-1.15982,-4.16752
 H,0,-0.69326,-1.4727,-3.88593
 Recover connectivity data from disk.

 GradGradGradGradGradGradGradGradGradGradGradGradGradGradGradGradGradGrad
 Berny optimization.
 Initialization pass.
 Force constant matrix read from checkpoint file:
 "BPA_TS_2_opt_hf_re.chk"
                           ----------------------------
                           !    Initial Parameters    !
                           ! (Angstroms and Degrees)  !
 --------------------------                            --------------------------
 ! Name  Definition              Value          Derivative Info.                !
 --------------------------------------------------------------------------------
 ! R1    R(1,2)                  1.4435         D2E/DX2 =    0.3967             !
 ! R2    R(1,39)                 1.3494         D2E/DX2 =    0.6121             !
 ! R3    R(1,43)                 1.0928         D2E/DX2 =    0.3663             !
 ! R4    R(2,5)                  1.3287         D2E/DX2 =    0.4989             !
 ! R5    R(2,38)                 1.392          D2E/DX2 =    0.4917             !
 ! R6    R(3,6)                  1.1007         D2E/DX2 =    0.3453             !
 ! R7    R(3,7)                  1.1013         D2E/DX2 =    0.3415             !
 ! R8    R(3,8)                  1.0977         D2E/DX2 =    0.3496             !
 ! R9    R(3,38)                 1.5052         D2E/DX2 =    0.3458             !
 ! R10   R(4,9)                  1.2056         D2E/DX2 =    0.9134             !
 ! R11   R(4,10)                 1.3261         D2E/DX2 =    0.4826             !
 ! R12   R(4,37)                 1.5194         D2E/DX2 =    0.3149             !
 ! R13   R(5,15)                 1.7209         D2E/DX2 =    0.2461             !
 ! R14   R(10,11)                1.4213         D2E/DX2 =    0.3761             !
 ! R15   R(11,12)                1.0948         D2E/DX2 =    0.358              !
 ! R16   R(11,13)                1.0994         D2E/DX2 =    0.3461             !
 ! R17   R(11,14)                1.099          D2E/DX2 =    0.3477             !
 ! R18   R(15,16)                1.8711         D2E/DX2 =    0.2129             !
 ! R19   R(15,20)                1.8643         D2E/DX2 =    0.2271             !
 ! R20   R(15,24)                1.8977         D2E/DX2 =    0.2049             !
 ! R21   R(16,17)                1.102          D2E/DX2 =    0.3408             !
 ! R22   R(16,18)                1.1007         D2E/DX2 =    0.3439             !
 ! R23   R(16,19)                1.0985         D2E/DX2 =    0.3528             !
 ! R24   R(20,21)                1.0997         D2E/DX2 =    0.3463             !
 ! R25   R(20,22)                1.0991         D2E/DX2 =    0.3537             !
 ! R26   R(20,23)                1.1012         D2E/DX2 =    0.3418             !
 ! R27   R(21,52)                2.2767         D2E/DX2 =    0.0138             !
 ! R28   R(24,25)                1.5367         D2E/DX2 =    0.3032             !
 ! R29   R(24,29)                1.539          D2E/DX2 =    0.3009             !
 ! R30   R(24,33)                1.5362         D2E/DX2 =    0.3072             !
 ! R31   R(25,26)                1.1037         D2E/DX2 =    0.3346             !
 ! R32   R(25,27)                1.1013         D2E/DX2 =    0.344              !
 ! R33   R(25,28)                1.1012         D2E/DX2 =    0.3413             !
 ! R34   R(29,30)                1.1021         D2E/DX2 =    0.3394             !
 ! R35   R(29,31)                1.1037         D2E/DX2 =    0.3347             !
 ! R36   R(29,32)                1.1018         D2E/DX2 =    0.3402             !
 ! R37   R(33,34)                1.1038         D2E/DX2 =    0.3341             !
 ! R38   R(33,35)                1.1019         D2E/DX2 =    0.34               !
 ! R39   R(33,36)                1.0994         D2E/DX2 =    0.3508             !
 ! R40   R(37,38)                2.1316         D2E/DX2 =    0.046              !
 ! R41   R(37,40)                1.2519         D2E/DX2 =    0.6617             !
 ! R42   R(37,41)                1.1015         D2E/DX2 =    0.3515             !
 ! R43   R(38,44)                1.0913         D2E/DX2 =    0.3658             !
 ! R44   R(39,42)                1.4884         D2E/DX2 =    0.3571             !
 ! R45   R(39,103)               1.093          D2E/DX2 =    0.3652             !
 ! R46   R(40,91)                1.4419         D2E/DX2 =    0.0604             !
 ! R47   R(42,104)               1.1014         D2E/DX2 =    0.3404             !
 ! R48   R(42,105)               1.1017         D2E/DX2 =    0.3427             !
 ! R49   R(42,106)               1.0987         D2E/DX2 =    0.3515             !
 ! R50   R(45,46)                1.3721         D2E/DX2 =    0.4765             !
 ! R51   R(45,49)                1.0916         D2E/DX2 =    0.3661             !
 ! R52   R(45,53)                1.4214         D2E/DX2 =    0.3812             !
 ! R53   R(46,47)                1.4154         D2E/DX2 =    0.3847             !
 ! R54   R(46,50)                1.0919         D2E/DX2 =    0.3651             !
 ! R55   R(47,48)                1.3733         D2E/DX2 =    0.4696             !
 ! R56   R(47,51)                1.0915         D2E/DX2 =    0.3673             !
 ! R57   R(48,52)                1.0884         D2E/DX2 =    0.3758             !
 ! R58   R(48,54)                1.422          D2E/DX2 =    0.3662             !
 ! R59   R(53,54)                1.4232         D2E/DX2 =    0.3226             !
 ! R60   R(53,58)                1.4177         D2E/DX2 =    0.386              !
 ! R61   R(54,55)                1.4361         D2E/DX2 =    0.3823             !
 ! R62   R(55,56)                1.3822         D2E/DX2 =    0.3834             !
 ! R63   R(55,64)                1.4897         D2E/DX2 =    0.3206             !
 ! R64   R(56,57)                1.4263         D2E/DX2 =    0.377              !
 ! R65   R(56,59)                1.3731         D2E/DX2 =    0.3761             !
 ! R66   R(57,58)                1.376          D2E/DX2 =    0.4709             !
 ! R67   R(57,80)                1.4866         D2E/DX2 =    0.3667             !
 ! R68   R(58,60)                1.0914         D2E/DX2 =    0.3674             !
 ! R69   R(59,88)                1.6314         D2E/DX2 =    0.2831             !
 ! R70   R(61,62)                1.376          D2E/DX2 =    0.4678             !
 ! R71   R(61,65)                1.0926         D2E/DX2 =    0.3638             !
 ! R72   R(61,68)                1.4181         D2E/DX2 =    0.3857             !
 ! R73   R(62,63)                1.4255         D2E/DX2 =    0.3979             !
 ! R74   R(62,95)                1.4889         D2E/DX2 =    0.3655             !
 ! R75   R(63,64)                1.383          D2E/DX2 =    0.3777             !
 ! R76   R(63,66)                1.3733         D2E/DX2 =    0.3823             !
 ! R77   R(64,67)                1.4345         D2E/DX2 =    0.3756             !
 ! R78   R(66,88)                1.6401         D2E/DX2 =    0.2771             !
 ! R79   R(67,68)                1.4238         D2E/DX2 =    0.3197             !
 ! R80   R(67,72)                1.423          D2E/DX2 =    0.3752             !
 ! R81   R(68,69)                1.4221         D2E/DX2 =    0.3793             !
 ! R82   R(69,70)                1.3724         D2E/DX2 =    0.4748             !
 ! R83   R(69,73)                1.0927         D2E/DX2 =    0.363              !
 ! R84   R(70,71)                1.4157         D2E/DX2 =    0.3826             !
 ! R85   R(70,74)                1.0919         D2E/DX2 =    0.3652             !
 ! R86   R(71,72)                1.3736         D2E/DX2 =    0.4706             !
 ! R87   R(71,75)                1.092          D2E/DX2 =    0.3649             !
 ! R88   R(72,76)                1.0905         D2E/DX2 =    0.3699             !
 ! R89   R(77,78)                1.3938         D2E/DX2 =    0.4243             !
 ! R90   R(77,82)                1.3949         D2E/DX2 =    0.4217             !
 ! R91   R(77,83)                1.0922         D2E/DX2 =    0.3643             !
 ! R92   R(78,79)                1.3931         D2E/DX2 =    0.4244             !
 ! R93   R(78,84)                1.0922         D2E/DX2 =    0.364              !
 ! R94   R(79,80)                1.4019         D2E/DX2 =    0.4101             !
 ! R95   R(79,85)                1.0925         D2E/DX2 =    0.366              !
 ! R96   R(80,81)                1.4017         D2E/DX2 =    0.4079             !
 ! R97   R(81,82)                1.3925         D2E/DX2 =    0.4256             !
 ! R98   R(81,86)                1.0906         D2E/DX2 =    0.3693             !
 ! R99   R(82,87)                1.0921         D2E/DX2 =    0.3645             !
 ! R100  R(88,89)                1.4715         D2E/DX2 =    0.6665             !
 ! R101  R(88,90)                1.5523         D2E/DX2 =    0.463              !
 ! R102  R(90,91)                1.0359         D2E/DX2 =    0.3328             !
 ! R103  R(92,93)                1.3952         D2E/DX2 =    0.421              !
 ! R104  R(92,97)                1.3938         D2E/DX2 =    0.4249             !
 ! R105  R(92,98)                1.0922         D2E/DX2 =    0.3644             !
 ! R106  R(93,94)                1.3937         D2E/DX2 =    0.4232             !
 ! R107  R(93,99)                1.0922         D2E/DX2 =    0.3644             !
 ! R108  R(94,95)                1.4014         D2E/DX2 =    0.407              !
 ! R109  R(94,100)               1.0918         D2E/DX2 =    0.3687             !
 ! R110  R(95,96)                1.402          D2E/DX2 =    0.4103             !
 ! R111  R(96,97)                1.3941         D2E/DX2 =    0.4226             !
 ! R112  R(96,101)               1.0929         D2E/DX2 =    0.3635             !
 ! R113  R(97,102)               1.0923         D2E/DX2 =    0.3638             !
 ! A1    A(2,1,39)             125.282          D2E/DX2 =    0.2023             !
 ! A2    A(2,1,43)             115.7432         D2E/DX2 =    0.1242             !
 ! A3    A(39,1,43)            118.535          D2E/DX2 =    0.1251             !
 ! A4    A(1,2,5)              117.2991         D2E/DX2 =    0.2568             !
 ! A5    A(1,2,38)             123.9345         D2E/DX2 =    0.2977             !
 ! A6    A(5,2,38)             118.3686         D2E/DX2 =    0.2478             !
 ! A7    A(6,3,7)              107.5002         D2E/DX2 =    0.0604             !
 ! A8    A(6,3,8)              108.0284         D2E/DX2 =    0.0601             !
 ! A9    A(6,3,38)             111.012          D2E/DX2 =    0.1214             !
 ! A10   A(7,3,8)              106.9836         D2E/DX2 =    0.0623             !
 ! A11   A(7,3,38)             111.4303         D2E/DX2 =    0.1187             !
 ! A12   A(8,3,38)             111.6775         D2E/DX2 =    0.1241             !
 ! A13   A(9,4,10)             124.2963         D2E/DX2 =    0.2306             !
 ! A14   A(9,4,37)             122.9559         D2E/DX2 =    0.1713             !
 ! A15   A(10,4,37)            112.6801         D2E/DX2 =    0.1933             !
 ! A16   A(2,5,15)             133.0482         D2E/DX2 =    0.1702             !
 ! A17   A(4,10,11)            116.6            D2E/DX2 =    0.3219             !
 ! A18   A(10,11,12)           106.2234         D2E/DX2 =    0.164              !
 ! A19   A(10,11,13)           110.7207         D2E/DX2 =    0.1654             !
 ! A20   A(10,11,14)           110.6269         D2E/DX2 =    0.1654             !
 ! A21   A(12,11,13)           110.2399         D2E/DX2 =    0.0812             !
 ! A22   A(12,11,14)           110.1777         D2E/DX2 =    0.0814             !
 ! A23   A(13,11,14)           108.8391         D2E/DX2 =    0.0826             !
 ! A24   A(5,15,16)            109.2814         D2E/DX2 =    0.0288             !
 ! A25   A(5,15,20)            106.3583         D2E/DX2 =    0.033              !
 ! A26   A(5,15,24)            106.475          D2E/DX2 =    0.0357             !
 ! A27   A(16,15,20)           112.566          D2E/DX2 =    0.0461             !
 ! A28   A(16,15,24)           110.2881         D2E/DX2 =    0.0533             !
 ! A29   A(20,15,24)           111.5906         D2E/DX2 =    0.0476             !
 ! A30   A(15,16,17)           109.1638         D2E/DX2 =    0.0839             !
 ! A31   A(15,16,18)           111.5045         D2E/DX2 =    0.0833             !
 ! A32   A(15,16,19)           112.5216         D2E/DX2 =    0.0846             !
 ! A33   A(17,16,18)           107.8248         D2E/DX2 =    0.0514             !
 ! A34   A(17,16,19)           107.6982         D2E/DX2 =    0.0531             !
 ! A35   A(18,16,19)           107.9511         D2E/DX2 =    0.0548             !
 ! A36   A(15,20,21)           112.1228         D2E/DX2 =    0.1828             !
 ! A37   A(15,20,22)           110.2715         D2E/DX2 =    0.0489             !
 ! A38   A(15,20,23)           110.4462         D2E/DX2 =    0.0803             !
 ! A39   A(21,20,22)           108.2239         D2E/DX2 =    0.0664             !
 ! A40   A(21,20,23)           107.7343         D2E/DX2 =    0.0492             !
 ! A41   A(22,20,23)           107.9019         D2E/DX2 =    0.0295             !
 ! A42   A(20,21,52)           103.8204         D2E/DX2 =    0.0969             !
 ! A43   A(15,24,25)           109.8766         D2E/DX2 =    0.0293             !
 ! A44   A(15,24,29)           108.4086         D2E/DX2 =    0.028              !
 ! A45   A(15,24,33)           109.9855         D2E/DX2 =    0.0304             !
 ! A46   A(25,24,29)           109.3174         D2E/DX2 =    0.0341             !
 ! A47   A(25,24,33)           109.9924         D2E/DX2 =    0.0338             !
 ! A48   A(29,24,33)           109.2318         D2E/DX2 =    0.0344             !
 ! A49   A(24,25,26)           110.4159         D2E/DX2 =    0.1187             !
 ! A50   A(24,25,27)           112.1177         D2E/DX2 =    0.1168             !
 ! A51   A(24,25,28)           111.7953         D2E/DX2 =    0.1194             !
 ! A52   A(26,25,27)           107.3825         D2E/DX2 =    0.06               !
 ! A53   A(26,25,28)           107.3306         D2E/DX2 =    0.0599             !
 ! A54   A(27,25,28)           107.5662         D2E/DX2 =    0.0612             !
 ! A55   A(24,29,30)           112.2366         D2E/DX2 =    0.1198             !
 ! A56   A(24,29,31)           110.1144         D2E/DX2 =    0.1183             !
 ! A57   A(24,29,32)           111.983          D2E/DX2 =    0.1198             !
 ! A58   A(30,29,31)           107.1324         D2E/DX2 =    0.0601             !
 ! A59   A(30,29,32)           107.8817         D2E/DX2 =    0.0621             !
 ! A60   A(31,29,32)           107.2451         D2E/DX2 =    0.0598             !
 ! A61   A(24,33,34)           110.3043         D2E/DX2 =    0.1196             !
 ! A62   A(24,33,35)           111.6011         D2E/DX2 =    0.1222             !
 ! A63   A(24,33,36)           111.9139         D2E/DX2 =    0.1201             !
 ! A64   A(34,33,35)           107.2326         D2E/DX2 =    0.06               !
 ! A65   A(34,33,36)           108.0268         D2E/DX2 =    0.0602             !
 ! A66   A(35,33,36)           107.5658         D2E/DX2 =    0.0615             !
 ! A67   A(4,37,38)             93.2252         D2E/DX2 =    0.1627             !
 ! A68   A(4,37,40)            117.0477         D2E/DX2 =    0.053              !
 ! A69   A(4,37,41)            112.6647         D2E/DX2 =    0.0295             !
 ! A70   A(38,37,40)           110.5362         D2E/DX2 =    0.1425             !
 ! A71   A(38,37,41)            94.6076         D2E/DX2 =    0.0331             !
 ! A72   A(40,37,41)           121.7542         D2E/DX2 =    0.0388             !
 ! A73   A(2,38,3)             119.9111         D2E/DX2 =    0.0601             !
 ! A74   A(2,38,37)             99.7284         D2E/DX2 =    0.1064             !
 ! A75   A(2,38,44)            116.0579         D2E/DX2 =    0.0301             !
 ! A76   A(3,38,37)            108.2633         D2E/DX2 =    0.1244             !
 ! A77   A(3,38,44)            117.6465         D2E/DX2 =    0.0263             !
 ! A78   A(37,38,44)            86.5906         D2E/DX2 =    0.0226             !
 ! A79   A(1,39,42)            123.4506         D2E/DX2 =    0.1397             !
 ! A80   A(1,39,103)           120.0155         D2E/DX2 =    0.112              !
 ! A81   A(42,39,103)          116.5335         D2E/DX2 =    0.1067             !
 ! A82   A(37,40,91)           126.5727         D2E/DX2 =    0.0958             !
 ! A83   A(39,42,104)          111.0068         D2E/DX2 =    0.119              !
 ! A84   A(39,42,105)          109.1877         D2E/DX2 =    0.1194             !
 ! A85   A(39,42,106)          111.9133         D2E/DX2 =    0.1278             !
 ! A86   A(104,42,105)         106.991          D2E/DX2 =    0.0631             !
 ! A87   A(104,42,106)         109.3829         D2E/DX2 =    0.0666             !
 ! A88   A(105,42,106)         108.1963         D2E/DX2 =    0.0644             !
 ! A89   A(46,45,49)           120.7439         D2E/DX2 =    0.094              !
 ! A90   A(46,45,53)           120.7663         D2E/DX2 =    0.0911             !
 ! A91   A(49,45,53)           118.4745         D2E/DX2 =    0.0953             !
 ! A92   A(45,46,47)           119.8204         D2E/DX2 =    0.0892             !
 ! A93   A(45,46,50)           120.3045         D2E/DX2 =    0.0925             !
 ! A94   A(47,46,50)           119.8684         D2E/DX2 =    0.0925             !
 ! A95   A(46,47,48)           120.6515         D2E/DX2 =    0.091              !
 ! A96   A(46,47,51)           119.6613         D2E/DX2 =    0.0931             !
 ! A97   A(48,47,51)           119.6841         D2E/DX2 =    0.0929             !
 ! A98   A(47,48,52)           119.911          D2E/DX2 =    0.1378             !
 ! A99   A(47,48,54)           120.9239         D2E/DX2 =    0.0939             !
 ! A100  A(52,48,54)           119.1607         D2E/DX2 =    0.1231             !
 ! A101  A(21,52,48)           141.9766         D2E/DX2 =    0.3418             !
 ! A102  A(45,53,54)           119.5441         D2E/DX2 =    0.0953             !
 ! A103  A(45,53,58)           120.8033         D2E/DX2 =    0.1287             !
 ! A104  A(54,53,58)           119.5707         D2E/DX2 =    0.0919             !
 ! A105  A(48,54,53)           118.277          D2E/DX2 =    0.1073             !
 ! A106  A(48,54,55)           122.8498         D2E/DX2 =    0.1475             !
 ! A107  A(53,54,55)           118.8349         D2E/DX2 =    0.0914             !
 ! A108  A(54,55,56)           118.7154         D2E/DX2 =    0.0942             !
 ! A109  A(54,55,64)           121.6518         D2E/DX2 =    0.1844             !
 ! A110  A(56,55,64)           119.5749         D2E/DX2 =    0.1306             !
 ! A111  A(55,56,57)           123.0583         D2E/DX2 =    0.096              !
 ! A112  A(55,56,59)           118.6441         D2E/DX2 =    0.0968             !
 ! A113  A(57,56,59)           118.2975         D2E/DX2 =    0.1467             !
 ! A114  A(56,57,58)           117.4864         D2E/DX2 =    0.0932             !
 ! A115  A(56,57,80)           121.6993         D2E/DX2 =    0.1793             !
 ! A116  A(58,57,80)           120.7332         D2E/DX2 =    0.1749             !
 ! A117  A(53,58,57)           122.0852         D2E/DX2 =    0.0919             !
 ! A118  A(53,58,60)           118.438          D2E/DX2 =    0.0967             !
 ! A119  A(57,58,60)           119.4102         D2E/DX2 =    0.0961             !
 ! A120  A(56,59,88)           120.3596         D2E/DX2 =    0.1232             !
 ! A121  A(62,61,65)           119.1933         D2E/DX2 =    0.0967             !
 ! A122  A(62,61,68)           122.0218         D2E/DX2 =    0.0951             !
 ! A123  A(65,61,68)           118.7809         D2E/DX2 =    0.0969             !
 ! A124  A(61,62,63)           117.6685         D2E/DX2 =    0.0939             !
 ! A125  A(61,62,95)           120.4639         D2E/DX2 =    0.2149             !
 ! A126  A(63,62,95)           121.6597         D2E/DX2 =    0.2341             !
 ! A127  A(62,63,64)           122.8009         D2E/DX2 =    0.1                !
 ! A128  A(62,63,66)           118.2571         D2E/DX2 =    0.1835             !
 ! A129  A(64,63,66)           118.8888         D2E/DX2 =    0.1119             !
 ! A130  A(55,64,63)           119.5334         D2E/DX2 =    0.1187             !
 ! A131  A(55,64,67)           121.7885         D2E/DX2 =    0.1546             !
 ! A132  A(63,64,67)           118.6768         D2E/DX2 =    0.0949             !
 ! A133  A(63,66,88)           119.1962         D2E/DX2 =    0.1143             !
 ! A134  A(64,67,68)           118.9783         D2E/DX2 =    0.0895             !
 ! A135  A(64,67,72)           122.657          D2E/DX2 =    0.125              !
 ! A136  A(68,67,72)           118.3453         D2E/DX2 =    0.0953             !
 ! A137  A(61,68,67)           119.4379         D2E/DX2 =    0.0891             !
 ! A138  A(61,68,69)           121.1275         D2E/DX2 =    0.1174             !
 ! A139  A(67,68,69)           119.434          D2E/DX2 =    0.0911             !
 ! A140  A(68,69,70)           120.8112         D2E/DX2 =    0.0915             !
 ! A141  A(68,69,73)           118.6145         D2E/DX2 =    0.0948             !
 ! A142  A(70,69,73)           120.5722         D2E/DX2 =    0.0939             !
 ! A143  A(69,70,71)           119.8494         D2E/DX2 =    0.089              !
 ! A144  A(69,70,74)           120.2885         D2E/DX2 =    0.0925             !
 ! A145  A(71,70,74)           119.8571         D2E/DX2 =    0.0926             !
 ! A146  A(70,71,72)           120.6316         D2E/DX2 =    0.0892             !
 ! A147  A(70,71,75)           119.6923         D2E/DX2 =    0.093              !
 ! A148  A(72,71,75)           119.6744         D2E/DX2 =    0.0932             !
 ! A149  A(67,72,71)           120.8911         D2E/DX2 =    0.0924             !
 ! A150  A(67,72,76)           119.3477         D2E/DX2 =    0.0957             !
 ! A151  A(71,72,76)           119.7575         D2E/DX2 =    0.0971             !
 ! A152  A(78,77,82)           119.6267         D2E/DX2 =    0.0912             !
 ! A153  A(78,77,83)           120.2099         D2E/DX2 =    0.093              !
 ! A154  A(82,77,83)           120.1629         D2E/DX2 =    0.093              !
 ! A155  A(77,78,79)           120.0653         D2E/DX2 =    0.0917             !
 ! A156  A(77,78,84)           120.2047         D2E/DX2 =    0.0933             !
 ! A157  A(79,78,84)           119.7281         D2E/DX2 =    0.0933             !
 ! A158  A(78,79,80)           120.7636         D2E/DX2 =    0.0936             !
 ! A159  A(78,79,85)           119.9016         D2E/DX2 =    0.0961             !
 ! A160  A(80,79,85)           119.3307         D2E/DX2 =    0.0968             !
 ! A161  A(57,80,79)           119.1259         D2E/DX2 =    0.1618             !
 ! A162  A(57,80,81)           122.1601         D2E/DX2 =    0.1544             !
 ! A163  A(79,80,81)           118.7112         D2E/DX2 =    0.0982             !
 ! A164  A(80,81,82)           120.4652         D2E/DX2 =    0.0937             !
 ! A165  A(80,81,86)           119.7576         D2E/DX2 =    0.0964             !
 ! A166  A(82,81,86)           119.7772         D2E/DX2 =    0.096              !
 ! A167  A(77,82,81)           120.3675         D2E/DX2 =    0.0916             !
 ! A168  A(77,82,87)           120.0786         D2E/DX2 =    0.0935             !
 ! A169  A(81,82,87)           119.5537         D2E/DX2 =    0.0937             !
 ! A170  A(59,88,66)           100.6448         D2E/DX2 =    0.0511             !
 ! A171  A(59,88,89)           109.9477         D2E/DX2 =    0.0837             !
 ! A172  A(59,88,90)           108.9954         D2E/DX2 =    0.1736             !
 ! A173  A(66,88,89)           116.1676         D2E/DX2 =    0.0785             !
 ! A174  A(66,88,90)           102.3376         D2E/DX2 =    0.0987             !
 ! A175  A(89,88,90)           117.2516         D2E/DX2 =    0.0884             !
 ! A176  A(88,90,91)           120.4324         D2E/DX2 =    0.1191             !
 ! A177  A(93,92,97)           119.5693         D2E/DX2 =    0.0914             !
 ! A178  A(93,92,98)           120.2336         D2E/DX2 =    0.093              !
 ! A179  A(97,92,98)           120.1966         D2E/DX2 =    0.093              !
 ! A180  A(92,93,94)           120.6492         D2E/DX2 =    0.0919             !
 ! A181  A(92,93,99)           120.0616         D2E/DX2 =    0.0934             !
 ! A182  A(94,93,99)           119.2892         D2E/DX2 =    0.094              !
 ! A183  A(93,94,95)           120.1478         D2E/DX2 =    0.0932             !
 ! A184  A(93,94,100)          119.8162         D2E/DX2 =    0.0987             !
 ! A185  A(95,94,100)          120.036          D2E/DX2 =    0.0995             !
 ! A186  A(62,95,94)           122.6518         D2E/DX2 =    0.165              !
 ! A187  A(62,95,96)           118.5161         D2E/DX2 =    0.1666             !
 ! A188  A(94,95,96)           118.8306         D2E/DX2 =    0.0981             !
 ! A189  A(95,96,97)           120.8806         D2E/DX2 =    0.0941             !
 ! A190  A(95,96,101)          119.2083         D2E/DX2 =    0.096              !
 ! A191  A(97,96,101)          119.9044         D2E/DX2 =    0.0954             !
 ! A192  A(92,97,96)           119.916          D2E/DX2 =    0.0917             !
 ! A193  A(92,97,102)          120.3077         D2E/DX2 =    0.0933             !
 ! A194  A(96,97,102)          119.7755         D2E/DX2 =    0.0934             !
 ! A195  L(40,91,90,17,-1)     187.3766         D2E/DX2 =    0.2671             !
 ! A196  L(40,91,90,17,-2)     173.6163         D2E/DX2 =    0.1388             !
 ! D1    D(39,1,2,5)           179.9994         D2E/DX2 =    0.0336             !
 ! D2    D(39,1,2,38)           -7.3742         D2E/DX2 =    0.0201             !
 ! D3    D(43,1,2,5)            -7.759          D2E/DX2 =    0.015              !
 ! D4    D(43,1,2,38)          164.8674         D2E/DX2 =    0.0133             !
 ! D5    D(2,1,39,42)          170.8328         D2E/DX2 =    0.0264             !
 ! D6    D(2,1,39,103)          -9.3824         D2E/DX2 =    0.0161             !
 ! D7    D(43,1,39,42)          -1.2112         D2E/DX2 =    0.0158             !
 ! D8    D(43,1,39,103)        178.5736         D2E/DX2 =    0.0182             !
 ! D9    D(1,2,5,15)           -55.5748         D2E/DX2 =    0.0838             !
 ! D10   D(38,2,5,15)          131.3757         D2E/DX2 =    0.0895             !
 ! D11   D(1,2,38,3)           178.0671         D2E/DX2 =    0.031              !
 ! D12   D(1,2,38,37)          -64.1938         D2E/DX2 =    0.087              !
 ! D13   D(1,2,38,44)           26.7613         D2E/DX2 =    0.0175             !
 ! D14   D(5,2,38,3)            -9.3799         D2E/DX2 =    0.0201             !
 ! D15   D(5,2,38,37)          108.3592         D2E/DX2 =    0.0616             !
 ! D16   D(5,2,38,44)         -160.6858         D2E/DX2 =    0.0162             !
 ! D17   D(6,3,38,2)            54.3997         D2E/DX2 =    0.0162             !
 ! D18   D(6,3,38,37)          -58.8746         D2E/DX2 =    0.0187             !
 ! D19   D(6,3,38,44)         -154.7388         D2E/DX2 =    0.0137             !
 ! D20   D(7,3,38,2)           -65.39           D2E/DX2 =    0.0167             !
 ! D21   D(7,3,38,37)         -178.6643         D2E/DX2 =    0.019              !
 ! D22   D(7,3,38,44)           85.4715         D2E/DX2 =    0.0122             !
 ! D23   D(8,3,38,2)           175.0264         D2E/DX2 =    0.0171             !
 ! D24   D(8,3,38,37)           61.7521         D2E/DX2 =    0.0194             !
 ! D25   D(8,3,38,44)          -34.112          D2E/DX2 =    0.0119             !
 ! D26   D(9,4,10,11)            0.5983         D2E/DX2 =    0.0181             !
 ! D27   D(37,4,10,11)        -176.4787         D2E/DX2 =    0.0182             !
 ! D28   D(9,4,37,38)          108.2356         D2E/DX2 =    0.0343             !
 ! D29   D(9,4,37,40)         -136.723          D2E/DX2 =    0.0316             !
 ! D30   D(9,4,37,41)           11.8787         D2E/DX2 =    0.0183             !
 ! D31   D(10,4,37,38)         -74.6422         D2E/DX2 =    0.0352             !
 ! D32   D(10,4,37,40)          40.3992         D2E/DX2 =    0.0322             !
 ! D33   D(10,4,37,41)        -170.9991         D2E/DX2 =    0.0209             !
 ! D34   D(2,5,15,16)           12.8047         D2E/DX2 =    0.034              !
 ! D35   D(2,5,15,20)          134.5665         D2E/DX2 =    0.0396             !
 ! D36   D(2,5,15,24)         -106.3081         D2E/DX2 =    0.0368             !
 ! D37   D(4,10,11,12)         179.9425         D2E/DX2 =    0.0296             !
 ! D38   D(4,10,11,13)         -60.369          D2E/DX2 =    0.0292             !
 ! D39   D(4,10,11,14)          60.3802         D2E/DX2 =    0.0294             !
 ! D40   D(5,15,16,17)        -170.8944         D2E/DX2 =    0.0158             !
 ! D41   D(5,15,16,18)         -51.8662         D2E/DX2 =    0.016              !
 ! D42   D(5,15,16,19)          69.5996         D2E/DX2 =    0.0168             !
 ! D43   D(20,15,16,17)         71.1689         D2E/DX2 =    0.0142             !
 ! D44   D(20,15,16,18)       -169.8029         D2E/DX2 =    0.014              !
 ! D45   D(20,15,16,19)        -48.3371         D2E/DX2 =    0.0141             !
 ! D46   D(24,15,16,17)        -54.1734         D2E/DX2 =    0.0158             !
 ! D47   D(24,15,16,18)         64.8548         D2E/DX2 =    0.0157             !
 ! D48   D(24,15,16,19)       -173.6794         D2E/DX2 =    0.016              !
 ! D49   D(5,15,20,21)          79.0123         D2E/DX2 =    0.0153             !
 ! D50   D(5,15,20,22)         -41.6529         D2E/DX2 =    0.0177             !
 ! D51   D(5,15,20,23)        -160.8237         D2E/DX2 =    0.016              !
 ! D52   D(16,15,20,21)       -161.341          D2E/DX2 =    0.0204             !
 ! D53   D(16,15,20,22)         77.9937         D2E/DX2 =    0.0176             !
 ! D54   D(16,15,20,23)        -41.177          D2E/DX2 =    0.0161             !
 ! D55   D(24,15,20,21)        -36.7109         D2E/DX2 =    0.0233             !
 ! D56   D(24,15,20,22)       -157.3761         D2E/DX2 =    0.0234             !
 ! D57   D(24,15,20,23)         83.4531         D2E/DX2 =    0.0192             !
 ! D58   D(5,15,24,25)          69.0984         D2E/DX2 =    0.0204             !
 ! D59   D(5,15,24,29)        -171.4918         D2E/DX2 =    0.0187             !
 ! D60   D(5,15,24,33)         -52.1222         D2E/DX2 =    0.0199             !
 ! D61   D(16,15,24,25)        -49.3553         D2E/DX2 =    0.0162             !
 ! D62   D(16,15,24,29)         70.0545         D2E/DX2 =    0.0156             !
 ! D63   D(16,15,24,33)       -170.5758         D2E/DX2 =    0.0161             !
 ! D64   D(20,15,24,25)       -175.25           D2E/DX2 =    0.0194             !
 ! D65   D(20,15,24,29)        -55.8401         D2E/DX2 =    0.0183             !
 ! D66   D(20,15,24,33)         63.5295         D2E/DX2 =    0.0198             !
 ! D67   D(15,20,21,52)        -89.021          D2E/DX2 =    0.0571             !
 ! D68   D(22,20,21,52)         32.8223         D2E/DX2 =    0.0272             !
 ! D69   D(23,20,21,52)        149.2495         D2E/DX2 =    0.0453             !
 ! D70   D(20,21,52,48)        112.1361         D2E/DX2 =    0.1362             !
 ! D71   D(15,24,25,26)       -176.4142         D2E/DX2 =    0.0149             !
 ! D72   D(15,24,25,27)        -56.7201         D2E/DX2 =    0.0142             !
 ! D73   D(15,24,25,28)         64.1689         D2E/DX2 =    0.0148             !
 ! D74   D(29,24,25,26)         64.7332         D2E/DX2 =    0.0158             !
 ! D75   D(29,24,25,27)       -175.5728         D2E/DX2 =    0.0161             !
 ! D76   D(29,24,25,28)        -54.6837         D2E/DX2 =    0.0159             !
 ! D77   D(33,24,25,26)        -55.1977         D2E/DX2 =    0.0159             !
 ! D78   D(33,24,25,27)         64.4963         D2E/DX2 =    0.0158             !
 ! D79   D(33,24,25,28)       -174.6146         D2E/DX2 =    0.0161             !
 ! D80   D(15,24,29,30)        -60.1524         D2E/DX2 =    0.0151             !
 ! D81   D(15,24,29,31)       -179.4044         D2E/DX2 =    0.0155             !
 ! D82   D(15,24,29,32)         61.366          D2E/DX2 =    0.0153             !
 ! D83   D(25,24,29,30)         59.6081         D2E/DX2 =    0.0158             !
 ! D84   D(25,24,29,31)        -59.6439         D2E/DX2 =    0.0158             !
 ! D85   D(25,24,29,32)       -178.8735         D2E/DX2 =    0.016              !
 ! D86   D(33,24,29,30)       -179.9947         D2E/DX2 =    0.0162             !
 ! D87   D(33,24,29,31)         60.7534         D2E/DX2 =    0.016              !
 ! D88   D(33,24,29,32)        -58.4762         D2E/DX2 =    0.016              !
 ! D89   D(15,24,33,34)        179.9926         D2E/DX2 =    0.0148             !
 ! D90   D(15,24,33,35)        -60.9137         D2E/DX2 =    0.0144             !
 ! D91   D(15,24,33,36)         59.6942         D2E/DX2 =    0.0141             !
 ! D92   D(25,24,33,34)         58.8414         D2E/DX2 =    0.0156             !
 ! D93   D(25,24,33,35)        177.9351         D2E/DX2 =    0.0158             !
 ! D94   D(25,24,33,36)        -61.457          D2E/DX2 =    0.0156             !
 ! D95   D(29,24,33,34)        -61.1414         D2E/DX2 =    0.0157             !
 ! D96   D(29,24,33,35)         57.9522         D2E/DX2 =    0.0159             !
 ! D97   D(29,24,33,36)        178.5601         D2E/DX2 =    0.0161             !
 ! D98   D(4,37,38,2)         -173.4717         D2E/DX2 =    0.0315             !
 ! D99   D(4,37,38,3)          -47.361          D2E/DX2 =    0.0262             !
 ! D100  D(4,37,38,44)          70.6626         D2E/DX2 =    0.0218             !
 ! D101  D(40,37,38,2)          66.0328         D2E/DX2 =    0.0308             !
 ! D102  D(40,37,38,3)        -167.8565         D2E/DX2 =    0.0277             !
 ! D103  D(40,37,38,44)        -49.8329         D2E/DX2 =    0.0225             !
 ! D104  D(41,37,38,2)         -60.4087         D2E/DX2 =    0.0253             !
 ! D105  D(41,37,38,3)          65.7019         D2E/DX2 =    0.0208             !
 ! D106  D(41,37,38,44)       -176.2745         D2E/DX2 =    0.0167             !
 ! D107  D(4,37,40,91)         136.7779         D2E/DX2 =    0.0621             !
 ! D108  D(38,37,40,91)       -118.228          D2E/DX2 =    0.0933             !
 ! D109  D(41,37,40,91)         -8.7933         D2E/DX2 =    0.0301             !
 ! D110  D(1,39,42,104)        125.7955         D2E/DX2 =    0.0161             !
 ! D111  D(1,39,42,105)       -116.4899         D2E/DX2 =    0.0163             !
 ! D112  D(1,39,42,106)          3.2708         D2E/DX2 =    0.0172             !
 ! D113  D(103,39,42,104)      -53.9962         D2E/DX2 =    0.0164             !
 ! D114  D(103,39,42,105)       63.7184         D2E/DX2 =    0.0162             !
 ! D115  D(103,39,42,106)     -176.521          D2E/DX2 =    0.0166             !
 ! D116  D(37,40,90,88)         31.8305         D2E/DX2 =    0.0825             !
 ! D117  D(49,45,46,47)        178.0222         D2E/DX2 =    0.0109             !
 ! D118  D(49,45,46,50)         -1.0359         D2E/DX2 =    0.0111             !
 ! D119  D(53,45,46,47)         -0.5327         D2E/DX2 =    0.0106             !
 ! D120  D(53,45,46,50)       -179.5907         D2E/DX2 =    0.0102             !
 ! D121  D(46,45,53,54)         -0.3986         D2E/DX2 =    0.0082             !
 ! D122  D(46,45,53,58)        176.2984         D2E/DX2 =    0.0085             !
 ! D123  D(49,45,53,54)       -178.9857         D2E/DX2 =    0.008              !
 ! D124  D(49,45,53,58)         -2.2887         D2E/DX2 =    0.0093             !
 ! D125  D(45,46,47,48)          0.4861         D2E/DX2 =    0.0108             !
 ! D126  D(45,46,47,51)       -178.8614         D2E/DX2 =    0.0128             !
 ! D127  D(50,46,47,48)        179.5483         D2E/DX2 =    0.0093             !
 ! D128  D(50,46,47,51)          0.2008         D2E/DX2 =    0.0109             !
 ! D129  D(46,47,48,52)       -178.7171         D2E/DX2 =    0.0248             !
 ! D130  D(46,47,48,54)          0.5086         D2E/DX2 =    0.0096             !
 ! D131  D(51,47,48,52)          0.6303         D2E/DX2 =    0.019              !
 ! D132  D(51,47,48,54)        179.856          D2E/DX2 =    0.0102             !
 ! D133  D(47,48,52,21)         33.5426         D2E/DX2 =    0.0321             !
 ! D134  D(54,48,52,21)       -145.6968         D2E/DX2 =    0.0229             !
 ! D135  D(47,48,54,53)         -1.4141         D2E/DX2 =    0.0111             !
 ! D136  D(47,48,54,55)       -179.1367         D2E/DX2 =    0.0109             !
 ! D137  D(52,48,54,53)        177.8174         D2E/DX2 =    0.0351             !
 ! D138  D(52,48,54,55)          0.0948         D2E/DX2 =    0.0317             !
 ! D139  D(45,53,54,48)          1.3493         D2E/DX2 =    0.0097             !
 ! D140  D(45,53,54,55)        179.1653         D2E/DX2 =    0.0092             !
 ! D141  D(58,53,54,48)       -175.3888         D2E/DX2 =    0.0117             !
 ! D142  D(58,53,54,55)          2.4272         D2E/DX2 =    0.0105             !
 ! D143  D(45,53,58,57)       -174.5795         D2E/DX2 =    0.009              !
 ! D144  D(45,53,58,60)          2.432          D2E/DX2 =    0.0095             !
 ! D145  D(54,53,58,57)          2.1166         D2E/DX2 =    0.0089             !
 ! D146  D(54,53,58,60)        179.1281         D2E/DX2 =    0.009              !
 ! D147  D(48,54,55,56)        172.4183         D2E/DX2 =    0.0163             !
 ! D148  D(48,54,55,64)         -4.8025         D2E/DX2 =    0.0303             !
 ! D149  D(53,54,55,56)         -5.2922         D2E/DX2 =    0.0131             !
 ! D150  D(53,54,55,64)        177.487          D2E/DX2 =    0.0291             !
 ! D151  D(54,55,56,57)          3.9061         D2E/DX2 =    0.0117             !
 ! D152  D(54,55,56,59)       -175.9904         D2E/DX2 =    0.0165             !
 ! D153  D(64,55,56,57)       -178.814          D2E/DX2 =    0.0246             !
 ! D154  D(64,55,56,59)          1.2894         D2E/DX2 =    0.0241             !
 ! D155  D(54,55,64,63)        122.0525         D2E/DX2 =    0.029              !
 ! D156  D(54,55,64,67)        -58.3594         D2E/DX2 =    0.0233             !
 ! D157  D(56,55,64,63)        -55.1449         D2E/DX2 =    0.0243             !
 ! D158  D(56,55,64,67)        124.4431         D2E/DX2 =    0.0296             !
 ! D159  D(55,56,57,58)          0.5305         D2E/DX2 =    0.0094             !
 ! D160  D(55,56,57,80)       -176.2158         D2E/DX2 =    0.0117             !
 ! D161  D(59,56,57,58)       -179.5726         D2E/DX2 =    0.0142             !
 ! D162  D(59,56,57,80)          3.6811         D2E/DX2 =    0.0132             !
 ! D163  D(55,56,59,88)         73.8541         D2E/DX2 =    0.0341             !
 ! D164  D(57,56,59,88)       -106.0474         D2E/DX2 =    0.0357             !
 ! D165  D(56,57,58,53)         -3.5955         D2E/DX2 =    0.0098             !
 ! D166  D(56,57,58,60)        179.4211         D2E/DX2 =    0.0096             !
 ! D167  D(80,57,58,53)        173.1839         D2E/DX2 =    0.0109             !
 ! D168  D(80,57,58,60)         -3.7995         D2E/DX2 =    0.0106             !
 ! D169  D(56,57,80,79)        133.1417         D2E/DX2 =    0.0092             !
 ! D170  D(56,57,80,81)        -47.472          D2E/DX2 =    0.0101             !
 ! D171  D(58,57,80,79)        -43.5001         D2E/DX2 =    0.0075             !
 ! D172  D(58,57,80,81)        135.8862         D2E/DX2 =    0.0079             !
 ! D173  D(56,59,88,66)        -44.6965         D2E/DX2 =    0.0439             !
 ! D174  D(56,59,88,89)       -167.7604         D2E/DX2 =    0.0507             !
 ! D175  D(56,59,88,90)         62.4392         D2E/DX2 =    0.0459             !
 ! D176  D(65,61,62,63)        179.7642         D2E/DX2 =    0.0088             !
 ! D177  D(65,61,62,95)          4.9172         D2E/DX2 =    0.0143             !
 ! D178  D(68,61,62,63)         -0.9768         D2E/DX2 =    0.0086             !
 ! D179  D(68,61,62,95)       -175.8239         D2E/DX2 =    0.0161             !
 ! D180  D(62,61,68,67)          2.9701         D2E/DX2 =    0.0087             !
 ! D181  D(62,61,68,69)       -177.3315         D2E/DX2 =    0.0074             !
 ! D182  D(65,61,68,67)       -177.768          D2E/DX2 =    0.0102             !
 ! D183  D(65,61,68,69)          1.9304         D2E/DX2 =    0.009              !
 ! D184  D(61,62,63,64)         -4.5853         D2E/DX2 =    0.012              !
 ! D185  D(61,62,63,66)        178.0974         D2E/DX2 =    0.0138             !
 ! D186  D(95,62,63,64)        170.1964         D2E/DX2 =    0.0264             !
 ! D187  D(95,62,63,66)         -7.121          D2E/DX2 =    0.0195             !
 ! D188  D(61,62,95,94)       -128.0891         D2E/DX2 =    0.0116             !
 ! D189  D(61,62,95,96)         51.4712         D2E/DX2 =    0.0093             !
 ! D190  D(63,62,95,94)         57.2732         D2E/DX2 =    0.0172             !
 ! D191  D(63,62,95,96)       -123.1666         D2E/DX2 =    0.0175             !
 ! D192  D(62,63,64,55)       -172.5763         D2E/DX2 =    0.031              !
 ! D193  D(62,63,64,67)          7.8228         D2E/DX2 =    0.0141             !
 ! D194  D(66,63,64,55)          4.7249         D2E/DX2 =    0.0229             !
 ! D195  D(66,63,64,67)       -174.876          D2E/DX2 =    0.0153             !
 ! D196  D(62,63,66,88)       -109.5743         D2E/DX2 =    0.0614             !
 ! D197  D(64,63,66,88)         73.0011         D2E/DX2 =    0.0523             !
 ! D198  D(55,64,67,68)        174.8781         D2E/DX2 =    0.0202             !
 ! D199  D(55,64,67,72)         -6.7504         D2E/DX2 =    0.0173             !
 ! D200  D(63,64,67,68)         -5.5304         D2E/DX2 =    0.0084             !
 ! D201  D(63,64,67,72)        172.8411         D2E/DX2 =    0.0089             !
 ! D202  D(63,66,88,59)        -48.6928         D2E/DX2 =    0.0407             !
 ! D203  D(63,66,88,89)         69.9359         D2E/DX2 =    0.0537             !
 ! D204  D(63,66,88,90)       -161.0346         D2E/DX2 =    0.1055             !
 ! D205  D(64,67,68,61)          0.3365         D2E/DX2 =    0.0064             !
 ! D206  D(64,67,68,69)       -179.3671         D2E/DX2 =    0.0056             !
 ! D207  D(72,67,68,61)       -178.1057         D2E/DX2 =    0.0077             !
 ! D208  D(72,67,68,69)          2.1908         D2E/DX2 =    0.0066             !
 ! D209  D(64,67,72,71)        179.9212         D2E/DX2 =    0.0071             !
 ! D210  D(64,67,72,76)         -0.7721         D2E/DX2 =    0.0088             !
 ! D211  D(68,67,72,71)         -1.6975         D2E/DX2 =    0.0083             !
 ! D212  D(68,67,72,76)        177.6092         D2E/DX2 =    0.0088             !
 ! D213  D(61,68,69,70)        179.2043         D2E/DX2 =    0.008              !
 ! D214  D(61,68,69,73)         -0.2612         D2E/DX2 =    0.0091             !
 ! D215  D(67,68,69,70)         -1.0973         D2E/DX2 =    0.008              !
 ! D216  D(67,68,69,73)        179.4372         D2E/DX2 =    0.008              !
 ! D217  D(68,69,70,71)         -0.5548         D2E/DX2 =    0.01               !
 ! D218  D(68,69,70,74)       -179.7402         D2E/DX2 =    0.0102             !
 ! D219  D(73,69,70,71)        178.9002         D2E/DX2 =    0.0099             !
 ! D220  D(73,69,70,74)         -0.2852         D2E/DX2 =    0.0111             !
 ! D221  D(69,70,71,72)          1.0856         D2E/DX2 =    0.0103             !
 ! D222  D(69,70,71,75)       -178.454          D2E/DX2 =    0.0095             !
 ! D223  D(74,70,71,72)       -179.7256         D2E/DX2 =    0.0092             !
 ! D224  D(74,70,71,75)          0.7349         D2E/DX2 =    0.0104             !
 ! D225  D(70,71,72,67)          0.0681         D2E/DX2 =    0.0099             !
 ! D226  D(70,71,72,76)       -179.2357         D2E/DX2 =    0.0098             !
 ! D227  D(75,71,72,67)        179.6078         D2E/DX2 =    0.0103             !
 ! D228  D(75,71,72,76)          0.3039         D2E/DX2 =    0.0113             !
 ! D229  D(82,77,78,79)         -0.0571         D2E/DX2 =    0.0107             !
 ! D230  D(82,77,78,84)       -179.559          D2E/DX2 =    0.01               !
 ! D231  D(83,77,78,79)        179.702          D2E/DX2 =    0.01               !
 ! D232  D(83,77,78,84)          0.2001         D2E/DX2 =    0.0108             !
 ! D233  D(78,77,82,81)          0.2038         D2E/DX2 =    0.0107             !
 ! D234  D(78,77,82,87)       -179.9414         D2E/DX2 =    0.01               !
 ! D235  D(83,77,82,81)       -179.5555         D2E/DX2 =    0.0099             !
 ! D236  D(83,77,82,87)          0.2993         D2E/DX2 =    0.0108             !
 ! D237  D(77,78,79,80)         -0.0391         D2E/DX2 =    0.0106             !
 ! D238  D(77,78,79,85)       -179.3025         D2E/DX2 =    0.0103             !
 ! D239  D(84,78,79,80)        179.4651         D2E/DX2 =    0.0099             !
 ! D240  D(84,78,79,85)          0.2018         D2E/DX2 =    0.011              !
 ! D241  D(78,79,80,57)        179.3977         D2E/DX2 =    0.0087             !
 ! D242  D(78,79,80,81)         -0.0099         D2E/DX2 =    0.0092             !
 ! D243  D(85,79,80,57)         -1.3348         D2E/DX2 =    0.0093             !
 ! D244  D(85,79,80,81)        179.2576         D2E/DX2 =    0.0094             !
 ! D245  D(57,80,81,82)       -179.2324         D2E/DX2 =    0.0088             !
 ! D246  D(57,80,81,86)          0.7844         D2E/DX2 =    0.0093             !
 ! D247  D(79,80,81,82)          0.1564         D2E/DX2 =    0.0091             !
 ! D248  D(79,80,81,86)       -179.8268         D2E/DX2 =    0.0093             !
 ! D249  D(80,81,82,77)         -0.2551         D2E/DX2 =    0.0105             !
 ! D250  D(80,81,82,87)        179.8893         D2E/DX2 =    0.01               !
 ! D251  D(86,81,82,77)        179.7281         D2E/DX2 =    0.0101             !
 ! D252  D(86,81,82,87)         -0.1275         D2E/DX2 =    0.0111             !
 ! D253  D(59,88,90,91)        -73.5075         D2E/DX2 =    0.048              !
 ! D254  D(66,88,90,91)         32.4705         D2E/DX2 =    0.0464             !
 ! D255  D(89,88,90,91)        160.819          D2E/DX2 =    0.0773             !
 ! D256  D(97,92,93,94)         -0.6198         D2E/DX2 =    0.0109             !
 ! D257  D(97,92,93,99)        179.4179         D2E/DX2 =    0.0103             !
 ! D258  D(98,92,93,94)        179.6307         D2E/DX2 =    0.01               !
 ! D259  D(98,92,93,99)         -0.3316         D2E/DX2 =    0.0109             !
 ! D260  D(93,92,97,96)          0.3809         D2E/DX2 =    0.0108             !
 ! D261  D(93,92,97,102)      -179.9387         D2E/DX2 =    0.01               !
 ! D262  D(98,92,97,96)       -179.8695         D2E/DX2 =    0.0101             !
 ! D263  D(98,92,97,102)        -0.1891         D2E/DX2 =    0.0108             !
 ! D264  D(92,93,94,95)          0.1244         D2E/DX2 =    0.0108             !
 ! D265  D(92,93,94,100)      -179.8703         D2E/DX2 =    0.011              !
 ! D266  D(99,93,94,95)       -179.9129         D2E/DX2 =    0.0103             !
 ! D267  D(99,93,94,100)         0.0923         D2E/DX2 =    0.0118             !
 ! D268  D(93,94,95,62)       -179.8426         D2E/DX2 =    0.0118             !
 ! D269  D(93,94,95,96)          0.5985         D2E/DX2 =    0.0094             !
 ! D270  D(100,94,95,62)         0.1522         D2E/DX2 =    0.0114             !
 ! D271  D(100,94,95,96)      -179.4068         D2E/DX2 =    0.0107             !
 ! D272  D(62,95,96,97)        179.5834         D2E/DX2 =    0.0108             !
 ! D273  D(62,95,96,101)         0.5269         D2E/DX2 =    0.0107             !
 ! D274  D(94,95,96,97)         -0.8392         D2E/DX2 =    0.0094             !
 ! D275  D(94,95,96,101)      -179.8957         D2E/DX2 =    0.0098             !
 ! D276  D(95,96,97,92)          0.3523         D2E/DX2 =    0.0108             !
 ! D277  D(95,96,97,102)      -179.3297         D2E/DX2 =    0.01               !
 ! D278  D(101,96,97,92)       179.4023         D2E/DX2 =    0.0106             !
 ! D279  D(101,96,97,102)       -0.2798         D2E/DX2 =    0.0111             !
 --------------------------------------------------------------------------------
 Trust Radius=1.00D-01 FncErr=1.00D-07 GrdErr=1.00D-06 EigMax=2.50D+02 EigMin=1.00D-04
 Number of steps in this run=     50 maximum allowed number of steps=    636.
 Search for a saddle point of order  1.
 GradGradGradGradGradGradGradGradGradGradGradGradGradGradGradGradGradGrad

 Stoichiometry    C47H49O8PSi
 Framework group  C1[X(C47H49O8PSi)]
 Deg. of freedom   312
 Full point group                 C1      NOp   1
 Largest Abelian subgroup         C1      NOp   1
 Largest concise Abelian subgroup C1      NOp   1
                         Standard orientation:                         
 ---------------------------------------------------------------------
 Center     Atomic      Atomic             Coordinates (Angstroms)
 Number     Number       Type             X           Y           Z
 ---------------------------------------------------------------------
      1          6           0       -0.832740    0.712020   -2.401230
      2          6           0       -0.791531    1.844170   -1.506640
      3          6           0        0.115358    4.001301   -0.602700
      4          6           0        2.809238    2.890673   -0.984660
      5          8           0       -1.655461    1.855000   -0.497260
      6          1           0        0.056128    3.656651    0.441020
      7          1           0       -0.770643    4.626190   -0.795890
      8          1           0        0.993807    4.652902   -0.695970
      9          8           0        3.241478    3.321933    0.054930
     10          8           0        3.114388    3.377233   -2.179970
     11          6           0        4.022027    4.470614   -2.209250
     12          1           0        4.152527    4.731634   -3.264440
     13          1           0        3.616587    5.327754   -1.652730
     14          1           0        4.986778    4.184845   -1.767330
     15         14           0       -3.370371    1.735799   -0.417490
     16          6           0       -4.028410    1.173008   -2.076170
     17          1           0       -5.127390    1.253937   -2.075700
     18          1           0       -3.644781    1.799318   -2.896050
     19          1           0       -3.770570    0.128698   -2.298750
     20          6           0       -3.749630    0.526958    0.950170
     21          1           0       -3.665450    0.987608    1.945210
     22          1           0       -3.058209   -0.326301    0.906810
     23          1           0       -4.774550    0.137747    0.846330
     24          6           0       -4.012352    3.474578   -0.010510
     25          6           0       -3.785613    4.409068   -1.209170
     26          1           0       -4.097103    5.438038   -0.959480
     27          1           0       -2.726713    4.449469   -1.508940
     28          1           0       -4.368312    4.094308   -2.088960
     29          6           0       -5.520112    3.379617    0.282920
     30          1           0       -6.088492    2.988957   -0.576670
     31          1           0       -5.925693    4.379917    0.513340
     32          1           0       -5.731641    2.733697    1.150080
     33          6           0       -3.289412    4.024549    1.228340
     34          1           0       -3.658893    5.036248    1.469770
     35          1           0       -3.464792    3.392988    2.114060
     36          1           0       -2.202492    4.086849    1.075200
     37          6           0        1.902369    1.673992   -1.061450
     38          6           0        0.184158    2.835931   -1.552800
     39          6           0       -0.032740    0.536521   -3.473660
     40          8           0        2.142370    0.841172   -1.964870
     41          1           0        1.521480    1.365572   -0.074990
     42          6           0        0.028031   -0.729839   -4.253440
     43          1           0       -1.485959   -0.109580   -2.097230
     44          1           0        0.654118    3.001241   -2.523740
     45          6           0        1.814369    2.659622    3.055740
     46          6           0        0.609938    3.210981    3.413390
     47          6           0       -0.585691    2.480211    3.213780
     48          6           0       -0.552880    1.218011    2.673780
     49          1           0        2.742468    3.222163    3.173200
     50          1           0        0.568367    4.216521    3.836880
     51          1           0       -1.543962    2.928640    3.481940
     52          1           0       -1.481210    0.675090    2.506170
     53          6           0        1.879040    1.354872    2.495600
     54          6           0        0.680490    0.609781    2.312070
     55          6           0        0.761571   -0.699739    1.728090
     56          6           0        1.984811   -1.145198    1.263740
     57          6           0        3.191101   -0.398207    1.409060
     58          6           0        3.113140    0.814793    2.053910
     59          8           0        2.045062   -2.362178    0.630700
     60          1           0        4.018850    1.408134    2.190860
     61          6           0       -2.819037   -2.999771    1.098600
     62          6           0       -2.010058   -2.693401    0.028480
     63          6           0       -0.791878   -2.003000    0.295870
     64          6           0       -0.445578   -1.555909    1.557950
     65          1           0       -3.760487   -3.525222    0.921710
     66          8           0        0.043522   -1.726329   -0.758360
     67          6           0       -1.261878   -1.941360    2.672800
     68          6           0       -2.462028   -2.668051    2.430380
     69          6           0       -3.285487   -3.043311    3.527420
     70          6           0       -2.925617   -2.733061    4.814900
     71          6           0       -1.715228   -2.041330    5.060940
     72          6           0       -0.905108   -1.656470    4.020530
     73          1           0       -4.208197   -3.592592    3.325290
     74          1           0       -3.562217   -3.029072    5.651180
     75          1           0       -1.418948   -1.818080    6.087980
     76          1           0        0.030271   -1.135329    4.227050
     77          6           0        6.926332   -1.674664   -0.282730
     78          6           0        6.484161   -0.362794   -0.444800
     79          6           0        5.268531    0.036995    0.105690
     80          6           0        4.475481   -0.867336    0.825740
     81          6           0        4.928922   -2.184435    0.981950
     82          6           0        6.145712   -2.581925    0.433740
     83          1           0        7.876742   -1.991943   -0.717470
     84          1           0        7.084370    0.353466   -1.010110
     85          1           0        4.919120    1.062824   -0.032680
     86          1           0        4.324263   -2.902876    1.536520
     87          1           0        6.485513   -3.611374    0.566060
     88         15           0        1.466022   -2.532798   -0.884930
     89          8           0        1.374173   -3.960478   -1.229510
     90          8           0        2.279952   -1.621427   -1.842360
     91          1           0        2.143561   -0.594558   -1.831610
     92          6           0       -3.399267   -3.441422   -3.968280
     93          6           0       -2.151887   -3.923221   -3.570130
     94          6           0       -1.680487   -3.693150   -2.278920
     95          6           0       -2.460017   -2.974241   -1.362740
     96          6           0       -3.718718   -2.506872   -1.766310
     97          6           0       -4.185367   -2.734432   -3.060110
     98          1           0       -3.759447   -3.620492   -4.983720
     99          1           0       -1.533336   -4.486440   -4.272330
    100          1           0       -0.701377   -4.074610   -1.982450
    101          1           0       -4.331098   -1.944032   -1.057320
    102          1           0       -5.164278   -2.352673   -3.358670
    103          1           0        0.613180    1.350341   -3.812970
    104          1           0       -0.152509   -0.543459   -5.323820
    105          1           0        1.038681   -1.159818   -4.167520
    106          1           0       -0.693258   -1.472700   -3.885930
 ---------------------------------------------------------------------
 Rotational constants (GHZ):           0.0574058           0.0458763           0.0411029
 Standard basis: def2SVP (5D, 7F)
 There are  1108 symmetry adapted cartesian basis functions of A   symmetry.
 There are  1051 symmetry adapted basis functions of A   symmetry.
  1051 basis functions,  1792 primitive gaussians,  1108 cartesian basis functions
   212 alpha electrons      212 beta electrons
       nuclear repulsion energy      9589.5308633317 Hartrees.
 NAtoms=  106 NActive=  106 NUniq=  106 SFac= 1.00D+00 NAtFMM=   60 NAOKFM=T Big=T
 Integral buffers will be    131072 words long.
 Raffenetti 2 integral format.
 Two-electron integral symmetry is turned on.
 Nuclear repulsion after empirical dispersion term =     9589.3976795250 Hartrees.
 ------------------------------------------------------------------------------
 Polarizable Continuum Model (PCM)
 =================================
 Model                : PCM.
 Atomic radii         : UFF (Universal Force Field).
 Polarization charges : Total charges.
 Charge compensation  : None.
 Solution method      : On-the-fly selection.
 Cavity type          : Scaled VdW (van der Waals Surface) (Alpha=1.100).
 Cavity algorithm     : GePol (No added spheres)
                        Default sphere list used, NSphG=  106.
                        Lebedev-Laikov grids with approx.  5.0 points / Ang**2.
                        Smoothing algorithm: York/Karplus (Gamma=1.0000).
                        Polarization charges: spherical gaussians, with
                                              point-specific exponents (IZeta= 3).
                        Self-potential: point-specific (ISelfS= 7).
                        Self-field    : sphere-specific E.n sum rule (ISelfD= 2).
 1st derivatives      : Analytical E(r).r(x)/FMM algorithm (CHGder, D1EAlg=3).
                        Cavity 1st derivative terms included.
 Solvent              : Toluene, Eps=   2.374100 Eps(inf)=   2.238315
 ------------------------------------------------------------------------------
 One-electron integrals computed using PRISM.
   1 Symmetry operations used in ECPInt.
 ECPInt:  NShTT=  121771 NPrTT=  444119 LenC2=   97216 LenP2D=  219576.
 LDataN:  DoStor=T MaxTD1= 4 Len=   56
 NBasis=  1051 RedAO= T EigKep=  1.52D-04  NBF=  1051
 NBsUse=  1051 1.00D-06 EigRej= -1.00D+00 NBFU=  1051
 ExpMin= 7.80D-02 ExpMax= 8.00D+03 ExpMxC= 1.20D+03 IAcc=3 IRadAn=         5 AccDes= 0.00D+00
 Harris functional with IExCor= 4639 and IRadAn=       5 diagonalized for initial guess.
 HarFok:  IExCor= 4639 AccDes= 0.00D+00 IRadAn=         5 IDoV= 1 UseB2=F ITyADJ=14
 ICtDFT=  3500011 ScaDFX=  1.000000  1.000000  1.000000  1.000000
 FoFCou: FMM=F IPFlag=           0 FMFlag=      100000 FMFlg1=        2001
         NFxFlg=           0 DoJE=T BraDBF=F KetDBF=T FulRan=T
         wScrn=  0.000000 ICntrl=       500 IOpCl=  0 I1Cent=   200000004 NGrid=           0
         NMat0=    1 NMatS0=      1 NMatT0=    0 NMatD0=    1 NMtDS0=    0 NMtDT0=    0
 Petite list used in FoFCou.
 Requested convergence on RMS density matrix=1.00D-08 within 128 cycles.
 Requested convergence on MAX density matrix=1.00D-06.
 Requested convergence on             energy=1.00D-06.
 No special actions if energy rises.
 Inv3:  Mode=1 IEnd=   114651372.
 Iteration    1 A*A^-1 deviation from unit magnitude is 3.44D-15 for   4184.
 Iteration    1 A*A^-1 deviation from orthogonality  is 3.10D-15 for   3654   3512.
 Iteration    1 A^-1*A deviation from unit magnitude is 3.55D-15 for   4391.
 Iteration    1 A^-1*A deviation from orthogonality  is 1.17D-13 for   6133   6093.
 Error on total polarization charges =  0.01110
 SCF Done:  E(RwB97XD) =  -3050.63524915     A.U. after   14 cycles
            NFock= 14  Conv=0.78D-08     -V/T= 2.0091
 Hyperfine terms turned off by default for NAtoms > 100.

 **********************************************************************

            Population analysis using the SCF Density.

 **********************************************************************

 Orbital symmetries:
       Occupied  (A) (A) (A) (A) (A) (A) (A) (A) (A) (A) (A) (A)
                 (A) (A) (A) (A) (A) (A) (A) (A) (A) (A) (A) (A)
                 (A) (A) (A) (A) (A) (A) (A) (A) (A) (A) (A) (A)
                 (A) (A) (A) (A) (A) (A) (A) (A) (A) (A) (A) (A)
                 (A) (A) (A) (A) (A) (A) (A) (A) (A) (A) (A) (A)
                 (A) (A) (A) (A) (A) (A) (A) (A) (A) (A) (A) (A)
                 (A) (A) (A) (A) (A) (A) (A) (A) (A) (A) (A) (A)
                 (A) (A) (A) (A) (A) (A) (A) (A) (A) (A) (A) (A)
                 (A) (A) (A) (A) (A) (A) (A) (A) (A) (A) (A) (A)
                 (A) (A) (A) (A) (A) (A) (A) (A) (A) (A) (A) (A)
                 (A) (A) (A) (A) (A) (A) (A) (A) (A) (A) (A) (A)
                 (A) (A) (A) (A) (A) (A) (A) (A) (A) (A) (A) (A)
                 (A) (A) (A) (A) (A) (A) (A) (A) (A) (A) (A) (A)
                 (A) (A) (A) (A) (A) (A) (A) (A) (A) (A) (A) (A)
                 (A) (A) (A) (A) (A) (A) (A) (A) (A) (A) (A) (A)
                 (A) (A) (A) (A) (A) (A) (A) (A) (A) (A) (A) (A)
                 (A) (A) (A) (A) (A) (A) (A) (A) (A) (A) (A) (A)
                 (A) (A) (A) (A) (A) (A) (A) (A)
       Virtual   (A) (A) (A) (A) (A) (A) (A) (A) (A) (A) (A) (A)
                 (A) (A) (A) (A) (A) (A) (A) (A) (A) (A) (A) (A)
                 (A) (A) (A) (A) (A) (A) (A) (A) (A) (A) (A) (A)
                 (A) (A) (A) (A) (A) (A) (A) (A) (A) (A) (A) (A)
                 (A) (A) (A) (A) (A) (A) (A) (A) (A) (A) (A) (A)
                 (A) (A) (A) (A) (A) (A) (A) (A) (A) (A) (A) (A)
                 (A) (A) (A) (A) (A) (A) (A) (A) (A) (A) (A) (A)
                 (A) (A) (A) (A) (A) (A) (A) (A) (A) (A) (A) (A)
                 (A) (A) (A) (A) (A) (A) (A) (A) (A) (A) (A) (A)
                 (A) (A) (A) (A) (A) (A) (A) (A) (A) (A) (A) (A)
                 (A) (A) (A) (A) (A) (A) (A) (A) (A) (A) (A) (A)
                 (A) (A) (A) (A) (A) (A) (A) (A) (A) (A) (A) (A)
                 (A) (A) (A) (A) (A) (A) (A) (A) (A) (A) (A) (A)
                 (A) (A) (A) (A) (A) (A) (A) (A) (A) (A) (A) (A)
                 (A) (A) (A) (A) (A) (A) (A) (A) (A) (A) (A) (A)
                 (A) (A) (A) (A) (A) (A) (A) (A) (A) (A) (A) (A)
                 (A) (A) (A) (A) (A) (A) (A) (A) (A) (A) (A) (A)
                 (A) (A) (A) (A) (A) (A) (A) (A) (A) (A) (A) (A)
                 (A) (A) (A) (A) (A) (A) (A) (A) (A) (A) (A) (A)
                 (A) (A) (A) (A) (A) (A) (A) (A) (A) (A) (A) (A)
                 (A) (A) (A) (A) (A) (A) (A) (A) (A) (A) (A) (A)
                 (A) (A) (A) (A) (A) (A) (A) (A) (A) (A) (A) (A)
                 (A) (A) (A) (A) (A) (A) (A) (A) (A) (A) (A) (A)
                 (A) (A) (A) (A) (A) (A) (A) (A) (A) (A) (A) (A)
                 (A) (A) (A) (A) (A) (A) (A) (A) (A) (A) (A) (A)
                 (A) (A) (A) (A) (A) (A) (A) (A) (A) (A) (A) (A)
                 (A) (A) (A) (A) (A) (A) (A) (A) (A) (A) (A) (A)
                 (A) (A) (A) (A) (A) (A) (A) (A) (A) (A) (A) (A)
                 (A) (A) (A) (A) (A) (A) (A) (A) (A) (A) (A) (A)
                 (A) (A) (A) (A) (A) (A) (A) (A) (A) (A) (A) (A)
                 (A) (A) (A) (A) (A) (A) (A) (A) (A) (A) (A) (A)
                 (A) (A) (A) (A) (A) (A) (A) (A) (A) (A) (A) (A)
                 (A) (A) (A) (A) (A) (A) (A) (A) (A) (A) (A) (A)
                 (A) (A) (A) (A) (A) (A) (A) (A) (A) (A) (A) (A)
                 (A) (A) (A) (A) (A) (A) (A) (A) (A) (A) (A) (A)
                 (A) (A) (A) (A) (A) (A) (A) (A) (A) (A) (A) (A)
                 (A) (A) (A) (A) (A) (A) (A) (A) (A) (A) (A) (A)
                 (A) (A) (A) (A) (A) (A) (A) (A) (A) (A) (A) (A)
                 (A) (A) (A) (A) (A) (A) (A) (A) (A) (A) (A) (A)
                 (A) (A) (A) (A) (A) (A) (A) (A) (A) (A) (A) (A)
                 (A) (A) (A) (A) (A) (A) (A) (A) (A) (A) (A) (A)
                 (A) (A) (A) (A) (A) (A) (A) (A) (A) (A) (A) (A)
                 (A) (A) (A) (A) (A) (A) (A) (A) (A) (A) (A) (A)
                 (A) (A) (A) (A) (A) (A) (A) (A) (A) (A) (A) (A)
                 (A) (A) (A) (A) (A) (A) (A) (A) (A) (A) (A) (A)
                 (A) (A) (A) (A) (A) (A) (A) (A) (A) (A) (A) (A)
                 (A) (A) (A) (A) (A) (A) (A) (A) (A) (A) (A) (A)
                 (A) (A) (A) (A) (A) (A) (A) (A) (A) (A) (A) (A)
                 (A) (A) (A) (A) (A) (A) (A) (A) (A) (A) (A) (A)
                 (A) (A) (A) (A) (A) (A) (A) (A) (A) (A) (A) (A)
                 (A) (A) (A) (A) (A) (A) (A) (A) (A) (A) (A) (A)
                 (A) (A) (A) (A) (A) (A) (A) (A) (A) (A) (A) (A)
                 (A) (A) (A) (A) (A) (A) (A) (A) (A) (A) (A) (A)
                 (A) (A) (A) (A) (A) (A) (A) (A) (A) (A) (A) (A)
                 (A) (A) (A) (A) (A) (A) (A) (A) (A) (A) (A) (A)
                 (A) (A) (A) (A) (A) (A) (A) (A) (A) (A) (A) (A)
                 (A) (A) (A) (A) (A) (A) (A) (A) (A) (A) (A) (A)
                 (A) (A) (A) (A) (A) (A) (A) (A) (A) (A) (A) (A)
                 (A) (A) (A) (A) (A) (A) (A) (A) (A) (A) (A) (A)
                 (A) (A) (A) (A) (A) (A) (A) (A) (A) (A) (A) (A)
                 (A) (A) (A) (A) (A) (A) (A) (A) (A) (A) (A) (A)
                 (A) (A) (A) (A) (A) (A) (A) (A) (A) (A) (A) (A)
                 (A) (A) (A) (A) (A) (A) (A) (A) (A) (A) (A) (A)
                 (A) (A) (A) (A) (A) (A) (A) (A) (A) (A) (A) (A)
                 (A) (A) (A) (A) (A) (A) (A) (A) (A) (A) (A) (A)
                 (A) (A) (A) (A) (A) (A) (A) (A) (A) (A) (A) (A)
                 (A) (A) (A) (A) (A) (A) (A) (A) (A) (A) (A) (A)
                 (A) (A) (A) (A) (A) (A) (A) (A) (A) (A) (A) (A)
                 (A) (A) (A) (A) (A) (A) (A) (A) (A) (A) (A) (A)
                 (A) (A) (A) (A) (A) (A) (A) (A) (A) (A) (A)
 The electronic state is 1-A.
 Alpha  occ. eigenvalues --  -77.37314 -66.29162 -19.31636 -19.30484 -19.30086
 Alpha  occ. eigenvalues --  -19.28591 -19.26777 -19.26055 -19.25291 -19.21610
 Alpha  occ. eigenvalues --  -10.43619 -10.39658 -10.39549 -10.37987 -10.37795
 Alpha  occ. eigenvalues --  -10.36129 -10.33038 -10.32703 -10.32613 -10.32435
 Alpha  occ. eigenvalues --  -10.32369 -10.32302 -10.32142 -10.31882 -10.31820
 Alpha  occ. eigenvalues --  -10.31629 -10.31575 -10.31352 -10.31254 -10.31227
 Alpha  occ. eigenvalues --  -10.31074 -10.30954 -10.30935 -10.30884 -10.30877
 Alpha  occ. eigenvalues --  -10.30817 -10.30814 -10.30782 -10.30723 -10.30695
 Alpha  occ. eigenvalues --  -10.30642 -10.30575 -10.30412 -10.30160 -10.30065
 Alpha  occ. eigenvalues --  -10.30058 -10.30016 -10.29990 -10.29973 -10.29951
 Alpha  occ. eigenvalues --  -10.29900 -10.29842 -10.29716 -10.29658 -10.29388
 Alpha  occ. eigenvalues --  -10.28696 -10.28574  -6.80731  -5.41750  -4.96128
 Alpha  occ. eigenvalues --   -4.96021  -4.95798  -3.76856  -3.76408  -3.76369
 Alpha  occ. eigenvalues --   -1.22032  -1.20961  -1.15345  -1.15288  -1.13439
 Alpha  occ. eigenvalues --   -1.12366  -1.11341  -1.05362  -0.99181  -0.97966
 Alpha  occ. eigenvalues --   -0.96029  -0.95530  -0.93111  -0.92387  -0.91991
 Alpha  occ. eigenvalues --   -0.90625  -0.90460  -0.88196  -0.86727  -0.86282
 Alpha  occ. eigenvalues --   -0.85869  -0.84752  -0.84179  -0.83928  -0.83600
 Alpha  occ. eigenvalues --   -0.82584  -0.81846  -0.81785  -0.80781  -0.80363
 Alpha  occ. eigenvalues --   -0.78672  -0.77953  -0.77387  -0.76886  -0.76033
 Alpha  occ. eigenvalues --   -0.74981  -0.73579  -0.73128  -0.72296  -0.71442
 Alpha  occ. eigenvalues --   -0.70365  -0.69817  -0.69383  -0.68814  -0.68319
 Alpha  occ. eigenvalues --   -0.67955  -0.66730  -0.66662  -0.66441  -0.65936
 Alpha  occ. eigenvalues --   -0.65091  -0.64040  -0.62967  -0.62358  -0.61516
 Alpha  occ. eigenvalues --   -0.61271  -0.61042  -0.60502  -0.60317  -0.58865
 Alpha  occ. eigenvalues --   -0.57710  -0.57546  -0.57424  -0.57262  -0.57044
 Alpha  occ. eigenvalues --   -0.56165  -0.55828  -0.55648  -0.55006  -0.54536
 Alpha  occ. eigenvalues --   -0.54432  -0.54192  -0.53706  -0.53580  -0.53199
 Alpha  occ. eigenvalues --   -0.53080  -0.52811  -0.52678  -0.52536  -0.52229
 Alpha  occ. eigenvalues --   -0.52220  -0.52052  -0.51581  -0.51383  -0.51231
 Alpha  occ. eigenvalues --   -0.51056  -0.50815  -0.50669  -0.50418  -0.50146
 Alpha  occ. eigenvalues --   -0.49733  -0.49237  -0.49122  -0.48948  -0.48721
 Alpha  occ. eigenvalues --   -0.48525  -0.48432  -0.48368  -0.48106  -0.47663
 Alpha  occ. eigenvalues --   -0.47275  -0.47113  -0.46913  -0.46853  -0.46568
 Alpha  occ. eigenvalues --   -0.46413  -0.46093  -0.45931  -0.45556  -0.45303
 Alpha  occ. eigenvalues --   -0.45088  -0.44956  -0.44595  -0.44492  -0.44389
 Alpha  occ. eigenvalues --   -0.43983  -0.43411  -0.43235  -0.43109  -0.42684
 Alpha  occ. eigenvalues --   -0.42433  -0.42130  -0.41624  -0.41436  -0.41186
 Alpha  occ. eigenvalues --   -0.41017  -0.40698  -0.40522  -0.40369  -0.39971
 Alpha  occ. eigenvalues --   -0.39520  -0.38463  -0.38206  -0.37950  -0.36909
 Alpha  occ. eigenvalues --   -0.36469  -0.35106  -0.34576  -0.34482  -0.33815
 Alpha  occ. eigenvalues --   -0.33440  -0.32949  -0.31477  -0.30816  -0.30325
 Alpha  occ. eigenvalues --   -0.29880  -0.28716
 Alpha virt. eigenvalues --   -0.01409  -0.00138   0.01005   0.03034   0.03496
 Alpha virt. eigenvalues --    0.05060   0.05546   0.06369   0.06398   0.07273
 Alpha virt. eigenvalues --    0.08004   0.09916   0.10830   0.11530   0.12308
 Alpha virt. eigenvalues --    0.13294   0.13482   0.13865   0.14549   0.14875
 Alpha virt. eigenvalues --    0.14998   0.15215   0.15480   0.15659   0.15905
 Alpha virt. eigenvalues --    0.16098   0.16282   0.16401   0.16847   0.17052
 Alpha virt. eigenvalues --    0.17631   0.17786   0.17951   0.18197   0.18242
 Alpha virt. eigenvalues --    0.18527   0.18858   0.19140   0.19480   0.19813
 Alpha virt. eigenvalues --    0.20064   0.20336   0.20533   0.20659   0.20903
 Alpha virt. eigenvalues --    0.21133   0.21585   0.21738   0.21956   0.22173
 Alpha virt. eigenvalues --    0.22306   0.22508   0.22590   0.22929   0.23157
 Alpha virt. eigenvalues --    0.23420   0.23586   0.23783   0.24021   0.24264
 Alpha virt. eigenvalues --    0.24463   0.24662   0.24847   0.25039   0.25228
 Alpha virt. eigenvalues --    0.25908   0.25969   0.26283   0.26517   0.26968
 Alpha virt. eigenvalues --    0.27216   0.27541   0.27906   0.28280   0.28930
[...]
 Alpha virt. eigenvalues --    0.80859   0.81088   0.81382   0.81712   0.81906
 Alpha virt. eigenvalues --    0.82013   0.82275   0.82466   0.82624   0.82772
 Alpha virt. eigenvalues --    0.82910   0.83247   0.83478   0.83704   0.84108
 Alpha virt. eigenvalues --    0.84345   0.84684   0.84974   0.85265   0.85727
 Alpha virt. eigenvalues --    0.85856   0.85971   0.86210   0.86345   0.86812
 Alpha virt. eigenvalues --    0.86949   0.87407   0.87469   0.87845   0.88210
 Alpha virt. eigenvalues --    0.88425   0.88731   0.89119   0.89265   0.89598
 Alpha virt. eigenvalues --    0.89967   0.90497   0.90705   0.90865   0.91159
 Alpha virt. eigenvalues --    0.91539   0.91734   0.92056   0.92551   0.92940
 Alpha virt. eigenvalues --    0.93380   0.93595   0.94282   0.94557   0.95242
 Alpha virt. eigenvalues --    0.95334   0.95707   0.95960   0.96585   0.96661
 Alpha virt. eigenvalues --    0.97463   0.97978   0.98271   0.98974   0.99186
 Alpha virt. eigenvalues --    1.00048   1.00733   1.00910   1.01179   1.01504
 Alpha virt. eigenvalues --    1.02298   1.02509   1.02743   1.02839   1.03333
 Alpha virt. eigenvalues --    1.04028   1.04343   1.04914   1.05476   1.05619
 Alpha virt. eigenvalues --    1.06421   1.07145   1.07543   1.07761   1.08180
 Alpha virt. eigenvalues --    1.08558   1.09494   1.10286   1.10956   1.11832
 Alpha virt. eigenvalues --    1.12041   1.12306   1.13020   1.13449   1.14650
 Alpha virt. eigenvalues --    1.15273   1.15711   1.15941   1.16419   1.16949
 Alpha virt. eigenvalues --    1.17852   1.18079   1.18618   1.18675   1.19896
 Alpha virt. eigenvalues --    1.20161   1.20640   1.21038   1.21815   1.22044
 Alpha virt. eigenvalues --    1.22287   1.23377   1.23905   1.24311   1.24573
 Alpha virt. eigenvalues --    1.24850   1.25601   1.25704   1.26262   1.26629
 Alpha virt. eigenvalues --    1.26834   1.27259   1.27894   1.28268   1.28392
 Alpha virt. eigenvalues --    1.29046   1.29172   1.30083   1.30182   1.30413
 Alpha virt. eigenvalues --    1.30724   1.30857   1.32156   1.32391   1.32783
 Alpha virt. eigenvalues --    1.33002   1.33164   1.33287   1.33932   1.34310
 Alpha virt. eigenvalues --    1.34378   1.34682   1.34855   1.35039   1.35463
 Alpha virt. eigenvalues --    1.35675   1.35822   1.36337   1.36522   1.36820
 Alpha virt. eigenvalues --    1.37226   1.37414   1.37749   1.38063   1.38415
 Alpha virt. eigenvalues --    1.38743   1.38846   1.39501   1.39845   1.40451
 Alpha virt. eigenvalues --    1.40688   1.40704   1.41462   1.41955   1.42801
 Alpha virt. eigenvalues --    1.43089   1.43199   1.44355   1.45282   1.45798
 Alpha virt. eigenvalues --    1.46867   1.47682   1.48084   1.48160   1.48359
 Alpha virt. eigenvalues --    1.49839   1.50072   1.51220   1.51956   1.52688
 Alpha virt. eigenvalues --    1.52838   1.54383   1.55170   1.56331   1.56884
 Alpha virt. eigenvalues --    1.57255   1.58994   1.59397   1.60253   1.60940
 Alpha virt. eigenvalues --    1.61010   1.61536   1.61889   1.62029   1.62524
 Alpha virt. eigenvalues --    1.62872   1.62876   1.63547   1.63865   1.64170
 Alpha virt. eigenvalues --    1.64368   1.64555   1.65159   1.65730   1.67001
 Alpha virt. eigenvalues --    1.67367   1.67604   1.67883   1.68509   1.69225
 Alpha virt. eigenvalues --    1.69775   1.70098   1.70288   1.70740   1.71033
 Alpha virt. eigenvalues --    1.71387   1.72138   1.72428   1.73761   1.73986
 Alpha virt. eigenvalues --    1.74713   1.75378   1.75793   1.76556   1.76715
 Alpha virt. eigenvalues --    1.76893   1.77815   1.78035   1.78581   1.78736
 Alpha virt. eigenvalues --    1.79531   1.79565   1.79885   1.80319   1.80728
 Alpha virt. eigenvalues --    1.80820   1.81010   1.81511   1.81865   1.82007
 Alpha virt. eigenvalues --    1.82423   1.82533   1.82726   1.83064   1.83195
 Alpha virt. eigenvalues --    1.83377   1.83609   1.84044   1.84135   1.84322
 Alpha virt. eigenvalues --    1.84389   1.84735   1.84863   1.84879   1.85210
 Alpha virt. eigenvalues --    1.85497   1.85664   1.86001   1.86332   1.86352
 Alpha virt. eigenvalues --    1.86537   1.86716   1.87178   1.87324   1.87581
 Alpha virt. eigenvalues --    1.87974   1.88150   1.88415   1.88605   1.88891
 Alpha virt. eigenvalues --    1.89028   1.89201   1.89562   1.89903   1.90106
 Alpha virt. eigenvalues --    1.90376   1.90548   1.90749   1.90773   1.91381
 Alpha virt. eigenvalues --    1.91532   1.91937   1.92410   1.92542   1.92914
 Alpha virt. eigenvalues --    1.93282   1.94023   1.94291   1.94540   1.94643
 Alpha virt. eigenvalues --    1.94977   1.95193   1.95671   1.96024   1.96624
 Alpha virt. eigenvalues --    1.96885   1.97067   1.97563   1.97690   1.98026
 Alpha virt. eigenvalues --    1.98240   1.98883   1.99062   1.99661   1.99852
 Alpha virt. eigenvalues --    2.00843   2.01507   2.01928   2.02403   2.02859
 Alpha virt. eigenvalues --    2.03102   2.03226   2.03427   2.03568   2.03702
 Alpha virt. eigenvalues --    2.03956   2.04106   2.04279   2.04714   2.04937
 Alpha virt. eigenvalues --    2.05280   2.05522   2.05799   2.06485   2.07041
 Alpha virt. eigenvalues --    2.07148   2.07221   2.07698   2.07838   2.08151
 Alpha virt. eigenvalues --    2.08185   2.08411   2.08430   2.08872   2.08974
 Alpha virt. eigenvalues --    2.09719   2.09892   2.10193   2.10741   2.11678
 Alpha virt. eigenvalues --    2.11847   2.12490   2.12551   2.13343   2.14334
 Alpha virt. eigenvalues --    2.14945   2.15210   2.15405   2.16028   2.16635
 Alpha virt. eigenvalues --    2.16815   2.17189   2.18825   2.19264   2.19454
 Alpha virt. eigenvalues --    2.20781   2.21596   2.22025   2.22260   2.22869
 Alpha virt. eigenvalues --    2.23420   2.23714   2.23748   2.23906   2.24013
 Alpha virt. eigenvalues --    2.24395   2.24892   2.25076   2.25563   2.25778
 Alpha virt. eigenvalues --    2.25813   2.26192   2.26331   2.27287   2.27589
 Alpha virt. eigenvalues --    2.27689   2.27844   2.28683   2.29331   2.29816
 Alpha virt. eigenvalues --    2.30072   2.30617   2.31009   2.31595   2.31751
 Alpha virt. eigenvalues --    2.32104   2.32900   2.33843   2.34231   2.35088
 Alpha virt. eigenvalues --    2.35564   2.35928   2.36048   2.36416   2.37689
 Alpha virt. eigenvalues --    2.37939   2.38335   2.39030   2.39128   2.39180
 Alpha virt. eigenvalues --    2.39310   2.39743   2.39811   2.40205   2.40640
 Alpha virt. eigenvalues --    2.40958   2.41427   2.42352   2.42589   2.43401
 Alpha virt. eigenvalues --    2.43806   2.43907   2.44248   2.44567   2.44768
 Alpha virt. eigenvalues --    2.45790   2.46243   2.46678   2.46877   2.47363
 Alpha virt. eigenvalues --    2.47713   2.48186   2.49174   2.49537   2.49825
 Alpha virt. eigenvalues --    2.50366   2.52031   2.52660   2.53397   2.54504
 Alpha virt. eigenvalues --    2.54630   2.55378   2.55542   2.55935   2.56047
 Alpha virt. eigenvalues --    2.56961   2.57841   2.58271   2.60494   2.61037
 Alpha virt. eigenvalues --    2.61556   2.61760   2.62509   2.62878   2.63198
 Alpha virt. eigenvalues --    2.63593   2.63782   2.64754   2.65723   2.66387
 Alpha virt. eigenvalues --    2.67155   2.68169   2.68531   2.69071   2.69576
 Alpha virt. eigenvalues --    2.69837   2.70073   2.70453   2.70968   2.71201
 Alpha virt. eigenvalues --    2.71587   2.71783   2.72126   2.72305   2.72452
 Alpha virt. eigenvalues --    2.72704   2.73266   2.73488   2.74176   2.74253
 Alpha virt. eigenvalues --    2.74908   2.75338   2.75860   2.75974   2.76868
 Alpha virt. eigenvalues --    2.77137   2.77440   2.77865   2.78067   2.78341
 Alpha virt. eigenvalues --    2.78767   2.79126   2.79396   2.80354   2.81133
 Alpha virt. eigenvalues --    2.81465   2.82015   2.82407   2.82593   2.82984
 Alpha virt. eigenvalues --    2.83350   2.84072   2.84263   2.84512   2.84965
 Alpha virt. eigenvalues --    2.86765   2.87389   2.88079   2.88083   2.88424
 Alpha virt. eigenvalues --    2.88701   2.89153   2.91178   2.91870   2.93013
 Alpha virt. eigenvalues --    2.93209   2.94537   2.95427   2.95660   2.95865
 Alpha virt. eigenvalues --    2.96449   2.97112   2.97233   2.97755   2.98298
 Alpha virt. eigenvalues --    2.98554   2.99308   2.99772   3.00029   3.00198
 Alpha virt. eigenvalues --    3.00937   3.02213   3.02427   3.02922   3.03099
 Alpha virt. eigenvalues --    3.03327   3.03541   3.04125   3.04337   3.04867
 Alpha virt. eigenvalues --    3.05418   3.05818   3.06151   3.06828   3.07485
 Alpha virt. eigenvalues --    3.07941   3.08251   3.08488   3.08601   3.09636
 Alpha virt. eigenvalues --    3.09921   3.10537   3.11745   3.13731   3.14038
 Alpha virt. eigenvalues --    3.14979   3.15185   3.15387   3.16317   3.16956
 Alpha virt. eigenvalues --    3.20663   3.21181   3.21528   3.21887   3.24082
 Alpha virt. eigenvalues --    3.24870   3.25224   3.25996   3.26754   3.28496
 Alpha virt. eigenvalues --    3.28877   3.31203   3.33252   3.35971   3.36599
 Alpha virt. eigenvalues --    3.38043   3.41208   3.41903   3.45695   3.45922
 Alpha virt. eigenvalues --    3.48254   3.54175   3.55165   3.64371   3.64900
 Alpha virt. eigenvalues --    3.66535   3.69596   3.70536   3.71879   3.75361
 Alpha virt. eigenvalues --    3.76522   3.77716   3.78095   3.99970
          Condensed to atoms (all electrons):
 Mulliken charges:
               1
     1  C   -0.029660
     2  C    0.225538
     3  C    0.069878
     4  C    0.180936
     5  O   -0.454300
     6  H    0.061903
     7  H    0.045371
     8  H    0.037747
     9  O   -0.252128
    10  O   -0.315643
    11  C    0.126781
    12  H    0.066399
    13  H    0.056065
    14  H    0.059173
    15  Si   0.680990
    16  C   -0.288062
    17  H    0.073483
    18  H    0.077211
    19  H    0.065789
    20  C   -0.281854
    21  H    0.082174
    22  H    0.093472
    23  H    0.074926
    24  C   -0.505525
    25  C    0.016358
    26  H    0.030769
    27  H    0.035204
    28  H    0.033909
    29  C    0.017348
    30  H    0.034705
    31  H    0.032781
    32  H    0.036743
    33  C    0.027687
    34  H    0.026599
    35  H    0.030603
    36  H    0.033819
    37  C    0.236268
    38  C   -0.300976
    39  C   -0.090368
    40  O   -0.366576
    41  H    0.035827
    42  C   -0.001016
    43  H    0.025881
    44  H    0.070348
    45  C   -0.020131
    46  C   -0.022828
    47  C   -0.011896
    48  C   -0.007230
    49  H    0.019626
    50  H    0.026951
    51  H    0.020603
    52  H   -0.014310
    53  C    0.009263
    54  C    0.019879
    55  C    0.026688
    56  C    0.072744
    57  C    0.054491
    58  C   -0.077046
    59  O   -0.445375
    60  H    0.014176
    61  C   -0.089673
    62  C    0.039266
    63  C    0.123148
    64  C    0.012698
    65  H    0.011535
    66  O   -0.471100
    67  C    0.027757
    68  C    0.031553
    69  C   -0.042278
    70  C   -0.014608
    71  C   -0.015957
    72  C   -0.039768
    73  H    0.017713
    74  H    0.030663
    75  H    0.030841
    76  H    0.031767
    77  C   -0.019146
    78  C   -0.021864
    79  C   -0.033202
    80  C    0.005147
    81  C   -0.013357
    82  C   -0.027295
    83  H    0.028753
    84  H    0.023650
    85  H    0.007195
    86  H    0.028585
    87  H    0.030116
    88  P    1.131071
    89  O   -0.483061
    90  O   -0.420548
    91  H    0.272638
    92  C   -0.020131
    93  C   -0.033056
    94  C   -0.030955
    95  C    0.007192
    96  C   -0.039236
    97  C   -0.021630
    98  H    0.030345
    99  H    0.033251
   100  H    0.029141
   101  H    0.008285
   102  H    0.027173
   103  H    0.055036
   104  H    0.054119
   105  H    0.074951
   106  H    0.051094
 Sum of Mulliken charges =  -0.00000
 Mulliken charges with hydrogens summed into heavy atoms:
               1
     1  C   -0.003780
     2  C    0.225538
     3  C    0.214898
     4  C    0.180936
     5  O   -0.454300
     9  O   -0.252128
    10  O   -0.315643
    11  C    0.308419
    15  Si   0.680990
    16  C   -0.071579
    20  C   -0.031282
    24  C   -0.505525
    25  C    0.116240
    29  C    0.121576
    33  C    0.118709
    37  C    0.272095
    38  C   -0.230628
    39  C   -0.035333
    40  O   -0.366576
    42  C    0.179148
    45  C   -0.000505
    46  C    0.004123
    47  C    0.008707
    48  C   -0.021540
    53  C    0.009263
    54  C    0.019879
    55  C    0.026688
    56  C    0.072744
    57  C    0.054491
    58  C   -0.062870
    59  O   -0.445375
    61  C   -0.078138
    62  C    0.039266
    63  C    0.123148
    64  C    0.012698
    66  O   -0.471100
    67  C    0.027757
    68  C    0.031553
    69  C   -0.024565
    70  C    0.016056
    71  C    0.014884
    72  C   -0.008001
    77  C    0.009607
    78  C    0.001786
    79  C   -0.026007
    80  C    0.005147
    81  C    0.015227
    82  C    0.002821
    88  P    1.131071
    89  O   -0.483061
    90  O   -0.147910
    92  C    0.010214
    93  C    0.000194
    94  C   -0.001814
    95  C    0.007192
    96  C   -0.030950
    97  C    0.005543
 Electronic spatial extent (au):  <R**2>=          32128.9070
 Charge=             -0.0000 electrons
 Dipole moment (field-independent basis, Debye):
    X=             -5.7972    Y=              8.1939    Z=             -0.7206  Tot=             10.0631
 Quadrupole moment (field-independent basis, Debye-Ang):
   XX=           -315.7383   YY=           -348.6659   ZZ=           -327.2096
   XY=             15.2800   XZ=             -4.3203   YZ=            -12.0826
 Traceless Quadrupole moment (field-independent basis, Debye-Ang):
   XX=             14.7996   YY=            -18.1280   ZZ=              3.3283
   XY=             15.2800   XZ=             -4.3203   YZ=            -12.0826
 Octapole moment (field-independent basis, Debye-Ang**2):
  XXX=             43.6284  YYY=            227.2057  ZZZ=            -68.3343  XYY=             28.2436
  XXY=             41.7630  XXZ=            -59.1078  XZZ=            -38.3393  YZZ=              4.7203
  YYZ=            -29.1847  XYZ=            -36.6502
 Hexadecapole moment (field-independent basis, Debye-Ang**3):
 XXXX=         -18560.0293 YYYY=         -13783.4878 ZZZZ=          -9784.4522 XXXY=             94.9961
 XXXZ=           -426.8831 YYYX=            269.9802 YYYZ=           -204.9887 ZZZX=           -190.0109
 ZZZY=             -3.6260 XXYY=          -5158.7513 XXZZ=          -4901.2548 YYZZ=          -3776.4710
 XXYZ=           -246.2879 YYXZ=           -189.9953 ZZXY=            289.3775
 N-N= 9.581901865262D+03 E-N=-2.628757969436D+04  KE= 3.023045528618D+03
 Unable to Open any file for archive entry.
 1\1\GINC-NODE-007\FTS\RwB97XD\def2SVP\C47H49O8P1Si1\JP2658\21-Dec-2023
 \0\\# wb97xd def2svp geom=allchk scrf=(iefpcm,solvent=toluene) opt=(re
 adfc,ts,noeigen,maxcycles=50,maxstep=10)\\BPA_TS_2_opt_hf_re.out\\0,1\
 C,-0.844022154,0.7036506505,-2.391491994\C,-0.7898738795,1.8626123527,
 -1.5312888685\C,0.1324455707,4.040665197,-0.6954544686\C,2.7887262829,
 2.9032558064,-0.9458498938\O,-1.6622719911,1.9273155803,-0.5325885792\
 H,0.2177181052,3.7484591607,0.3634476459\H,-0.8209978386,4.5783387984,
 -0.809186582\H,0.9383241799,4.7518727213,-0.9177504796\O,3.1717657404,
 3.3586547287,0.102599217\O,3.1475302589,3.3648413306,-2.1362746963\C,4
 .0502521479,4.4623190606,-2.1463867446\H,4.2250193502,4.7052467368,-3.
 1995067124\H,3.6172671818,5.3269004024,-1.6230902156\H,4.9964759574,4.
 1900164342,-1.6581622185\Si,-3.3754597917,1.7675985941,-0.4521763095\C
 ,-4.0321206923,1.2416272376,-2.1235316159\H,-5.1279545113,1.3575140286
 ,-2.1294476029\H,-3.6234459838,1.8658388398,-2.9327400752\H,-3.8045855
 474,0.1920926602,-2.356850874\C,-3.7402702298,0.514250536,0.8778281149
 \H,-3.5962291111,0.9294705942,1.8861507008\H,-3.0861041527,-0.36245041
 51,0.770523689\H,-4.7839647777,0.1707174957,0.8027022398\C,-4.03229044
 38,3.4877132783,0.0057266467\C,-3.8421207385,4.4496782352,-1.177497138
 3\H,-4.165292693,5.4680432311,-0.9008356098\H,-2.7896126204,4.51358858
 71,-1.4950680907\H,-4.4354210798,4.1436964468,-2.053356903\C,-5.532037
 2242,3.3701563784,0.3293599333\H,-6.1141956477,2.9862379032,-0.5241154
 677\H,-5.9444239073,4.3617561774,0.5839694509\H,-5.7172930654,2.708116
 6987,1.1901990276\C,-3.2868912331,4.0193458251,1.2390712762\H,-3.64525
 0929,5.0309137508,1.4971831857\H,-3.4554707639,3.3789766546,2.11949145
 8\H,-2.2014678734,4.0744858285,1.0708420386\C,1.8873331567,1.682592205
 ,-1.0394705198\C,0.1996722491,2.8392019742,-1.6009818489\C,-0.04496383
 4,0.4862367881,-3.4565430806\O,2.1587218079,0.8393079744,-1.9234948817
 \H,1.4743910072,1.3870641487,-0.0615954844\C,-0.0141504528,-0.79551820
 82,-4.2119341379\H,-1.5176274303,-0.0963164071,-2.0730905106\H,0.68691
 03746,2.9596919237,-2.5698779901\C,1.8189257551,2.6460242051,3.0732810
 28\C,0.6141929892,3.1952227302,3.4327670585\C,-0.5800906181,2.46232935
 8,3.2336447945\C,-0.5458235082,1.2009174513,2.6923162346\H,2.746134126
 4,3.210083563,3.1904626485\H,0.5714602199,4.1997064762,3.8586090844\H,
 -1.5388043497,2.9084764493,3.5040069139\H,-1.4735046543,0.6560663921,2
 .5276791924\C,1.884805857,1.3433539522,2.50820131\C,0.6876116256,0.595
 5713033,2.3257949473\C,0.7691945039,-0.7114474283,1.7351817591\C,1.992
 2685382,-1.1494935986,1.2634128888\C,3.1963271043,-0.3983679698,1.4043
 542672\C,3.1182382101,0.8110846233,2.0554933949\O,2.0570018941,-2.3646
 382896,0.6283575905\H,4.0224866317,1.4076469438,2.1887588158\C,-2.8247
 439979,-2.9915143002,1.1018187478\C,-2.0073500119,-2.6986512105,0.0348
 387494\C,-0.7848648521,-2.0169773007,0.303195218\C,-0.4376661776,-1.56
 86738045,1.5648860582\H,-3.7714078518,-3.5069852349,0.9228270407\O,0.0
 479337913,-1.7445083182,-0.7534947515\C,-1.2596271354,-1.9473786541,2.
 6782716383\C,-2.4677579421,-2.6601258404,2.4339525682\C,-3.2977827081,
 -3.0250078951,3.5294689711\C,-2.9367182063,-2.7188517469,4.8176638439\
 C,-1.7183992742,-2.0421682588,5.0657628792\C,-0.9018961183,-1.66718501
 76,4.0266660234\H,-4.2263317774,-3.5637475149,3.3257256814\H,-3.578342
 8264,-3.0071606456,5.652797764\H,-1.420981237,-1.8227462782,6.09329278
 47\H,0.039310352,-1.1573667889,4.2349030451\C,6.9233076045,-1.65791251
 05,-0.3181746876\C,6.4712121916,-0.349673189,-0.4815932721\C,5.2584950
 456,0.0447135795,0.0791962555\C,4.4783710065,-0.8612633116,0.810818410
 8\C,4.9418794121,-2.1747387539,0.9684982335\C,6.1556433179,-2.56695571
 31,0.4100651583\H,7.8712798293,-1.9711264974,-0.7610888619\H,7.0609890
 436,0.3678558646,-1.056170272\H,4.9011601153,1.0673368196,-0.061013589
 5\H,4.3474021875,-2.8943468028,1.5325271978\H,6.5033617263,-3.59360802
 23,0.5435413834\P,1.4730040199,-2.5449424085,-0.882850301\O,1.39076137
 66,-3.9743364968,-1.2217659704\O,2.2726936292,-1.6331009165,-1.8528347
 864\H,2.1610593942,-0.6057247626,-1.8128095191\C,-3.3603491728,-3.4618
 814762,-3.9708882552\C,-2.1347711549,-3.9757914107,-3.5458814971\C,-1.
 6762581649,-3.7389811699,-2.2513957939\C,-2.4480711531,-2.9835662154,-
 1.3585792176\C,-3.6852128783,-2.4836481824,-1.7883513293\C,-4.13778265
 39,-2.7160086657,-3.0865604283\H,-3.7102071485,-3.6455521313,-4.989114
 6537\H,-1.5225751481,-4.5673955637,-4.2300230777\H,-0.7113776064,-4.14
 03106843,-1.9349440488\H,-4.2924079159,-1.8937569192,-1.097108325\H,-5
 .0996643314,-2.3092035706,-3.4067132523\H,0.6238881738,1.2764372945,-3
 .8072016594\H,-0.1551926912,-0.6216825989,-5.290130607\H,0.9754086465,
 -1.2641798992,-4.0870697649\H,-0.7746478264,-1.5023409637,-3.85278669\
 \Version=ES64L-G16RevC.01\State=1-A\HF=-3050.6355657\RMSD=4.781e-09\RM
 SF=1.976e-06\Dipole=-2.254737,3.2443319,-0.2555083\Quadrupole=11.18760
 09,-13.4947432,2.3071423,11.1973649,-3.177367,-9.0948905\PG=C01 [X(C47
 H49O8P1Si1)]\\@
 The archive entry for this job was punched.


 OLD AGE AND TREACHERY WILL ALWAYS PREVAIL OVER YOUTH AND SKILL.
 Job cpu time:       1 days  2 hours 10 minutes 29.6 seconds.
 Elapsed time:       0 days  2 hours 14 minutes 30.6 seconds.
 File lengths (MBytes):  RWF=   1301 Int=      0 D2E=      0 Chk=    118 Scr=      1
 Normal termination of Gaussian 16 at Thu Dec 21 15:32:10 2023.
