Unloading slurm/anatra/current
  ERROR: No such file or directory on
    '/cm/local/modulefiles/slurm/anatra/current'
environment: line 0: unalias: gv: not found
environment: line 0: unalias: sl: not found
 Entering Gaussian System, Link 0=g16
 Initial command:
 /apps/gaussian/g16/C.01/g16/l1.exe "/local/jobs/1153288/Gau-1716703.inp" -scrdir="/local/jobs/1153288/"
 Entering Link 1 = /apps/gaussian/g16/C.01/g16/l1.exe PID=   1716715.
  
 Copyright (c) 1988-2019, Gaussian, Inc.  All Rights Reserved.
  
 This is part of the Gaussian(R) 16 program.  It is based on
 the Gaussian(R) 09 system (copyright 2009, Gaussian, Inc.),
 the Gaussian(R) 03 system (copyright 2003, Gaussian, Inc.),
 the Gaussian(R) 98 system (copyright 1998, Gaussian, Inc.),
 the Gaussian(R) 94 system (copyright 1995, Gaussian, Inc.),
 the Gaussian 92(TM) system (copyright 1992, Gaussian, Inc.),
 the Gaussian 90(TM) system (copyright 1990, Gaussian, Inc.),
 the Gaussian 88(TM) system (copyright 1988, Gaussian, Inc.),
 the Gaussian 86(TM) system (copyright 1986, Carnegie Mellon
 University), and the Gaussian 82(TM) system (copyright 1983,
 Carnegie Mellon University). Gaussian is a federally registered
 trademark of Gaussian, Inc.
  
 This software contains proprietary and confidential information,
 including trade secrets, belonging to Gaussian, Inc.
  
 This software is provided under written license and may be
 used, copied, transmitted, or stored only in accord with that
 written license.
  
 The following legend is applicable only to US Government
 contracts under FAR:
  
                    RESTRICTED RIGHTS LEGEND
  
 Use, reproduction and disclosure by the US Government is
 subject to restrictions as set forth in subparagraphs (a)
 and (c) of the Commercial Computer Software - Restricted
 Rights clause in FAR 52.227-19.
  
 Gaussian, Inc.
 340 Quinnipiac St., Bldg. 40, Wallingford CT 06492
  
  
 ---------------------------------------------------------------
 Warning -- This program may not be used in any manner that
 competes with the business of Gaussian, Inc. or will provide
 assistance to any competitor of Gaussian, Inc.  The licensee
 of this program is prohibited from giving any competitor of
 Gaussian, Inc. access to this program.  By using this program,
 the user acknowledges that Gaussian, Inc. is engaged in the
 business of creating and licensing software in the field of
 computational chemistry and represents and warrants to the
 licensee that it is not a competitor of Gaussian, Inc. and that
 it will not use this program in any manner prohibited above.
 ---------------------------------------------------------------
  

 Cite this work as:
 Gaussian 16, Revision C.01,
 M. J. Frisch, G. W. Trucks, H. B. Schlegel, G. E. Scuseria, 
 M. A. Robb, J. R. Cheeseman, G. Scalmani, V. Barone, 
 G. A. Petersson, H. Nakatsuji, X. Li, M. Caricato, A. V. Marenich, 
 J. Bloino, B. G. Janesko, R. Gomperts, B. Mennucci, H. P. Hratchian, 
 J. V. Ortiz, A. F. Izmaylov, J. L. Sonnenberg, D. Williams-Young, 
 F. Ding, F. Lipparini, F. Egidi, J. Goings, B. Peng, A. Petrone, 
 T. Henderson, D. Ranasinghe, V. G. Zakrzewski, J. Gao, N. Rega, 
 G. Zheng, W. Liang, M. Hada, M. Ehara, K. Toyota, R. Fukuda, 
 J. Hasegawa, M. Ishida, T. Nakajima, Y. Honda, O. Kitao, H. Nakai, 
 T. Vreven, K. Throssell, J. A. Montgomery, Jr., J. E. Peralta, 
 F. Ogliaro, M. J. Bearpark, J. J. Heyd, E. N. Brothers, K. N. Kudin, 
 V. N. Staroverov, T. A. Keith, R. Kobayashi, J. Normand, 
 K. Raghavachari, A. P. Rendell, J. C. Burant, S. S. Iyengar, 
 J. Tomasi, M. Cossi, J. M. Millam, M. Klene, C. Adamo, R. Cammi, 
 J. W. Ochterski, R. L. Martin, K. Morokuma, O. Farkas, 
 J. B. Foresman, and D. J. Fox, Gaussian, Inc., Wallingford CT, 2019.
 
 ******************************************
 Gaussian 16:  ES64L-G16RevC.01  3-Jul-2019
                 1-Jan-2024 
 ******************************************
 %chk=TS-68_opt_sqm_freq.chk
 %nprocshared=12
 Will use up to   12 processors via shared memory.
 %mem=48GB
 -----------------------------------------------------------
 # wb97xd def2svp scrf=(iefpcm,solvent=toluene) freq=noraman
 -----------------------------------------------------------
 1/10=4,30=1,38=1/1,3;
 2/12=2,17=6,18=5,40=1/2;
 3/5=43,7=101,11=2,25=1,30=1,70=2201,71=2,72=13,74=-58,140=1/1,2,3;
 4//1;
 5/5=2,38=5,53=13,98=1/2;
 8/6=4,10=90,11=11/1;
 11/6=1,8=1,9=11,15=111,16=1/1,2,10;
 10/6=1/2;
 6/7=2,8=2,9=2,10=2,28=1/1;
 7/8=1,10=1,25=1/1,2,3,16;
 1/10=4,30=1/3;
 99//99;
 -----------------
 TS-68_opt_sqm.out
 -----------------
 Symbolic Z-matrix:
 Charge =  0 Multiplicity = 1
 C                    -0.81401   0.04609   0.12775 
 C                    -2.03855   0.62238   0.58812 
 O                    -2.21096   1.82311   0.7948 
 C                     0.29175   0.91313  -0.10278 
 C                    -0.96588   1.85264  -2.26977 
 H                    -0.89611   2.2053   -3.30689 
 H                    -1.60801   0.96474  -2.21874 
 H                    -1.39915   2.62462  -1.62366 
 N                     0.35669   1.4877   -1.75413 
 H                     0.77629   0.74949  -2.32327 
 H                     1.00681   2.27629  -1.77832 
 C                     1.71684   0.51014   0.16314 
 C                     2.38826  -0.47202  -0.57689 
 C                     3.70807  -0.80761  -0.27975 
 C                     4.37663  -0.1721    0.76569 
 C                     3.71805   0.80572   1.51009 
 C                     2.4018    1.14683   1.2057 
 H                     1.87426  -1.00069  -1.38281 
 H                     4.21406  -1.57768  -0.86604 
 H                     5.40939  -0.43902   0.99984 
 H                     4.23218   1.30963   2.33135 
 H                     1.8911    1.91422   1.79305 
 H                     0.05669   1.87216   0.37578 
 Br                   -0.72957  -1.80544  -0.31845 
 O                    -3.03686  -0.26566   0.79584 
 C                    -4.25089   0.26305   1.28076 
 H                    -4.94306  -0.58347   1.36705 
 H                    -4.11922   0.73571   2.26609 
 H                    -4.66678   1.01601   0.59395 
 

 GradGradGradGradGradGradGradGradGradGradGradGradGradGradGradGradGradGrad
 Berny optimization.
 Initialization pass.
 Trust Radius=3.00D-01 FncErr=1.00D-07 GrdErr=1.00D-07 EigMax=2.50D+02 EigMin=1.00D-04
 Number of steps in this run=      2 maximum allowed number of steps=      2.
 GradGradGradGradGradGradGradGradGradGradGradGradGradGradGradGradGradGrad

                          Input orientation:                          
 ---------------------------------------------------------------------
 Center     Atomic      Atomic             Coordinates (Angstroms)
 Number     Number       Type             X           Y           Z
 ---------------------------------------------------------------------
      1          6           0       -0.814010    0.046090    0.127750
      2          6           0       -2.038550    0.622380    0.588120
      3          8           0       -2.210960    1.823110    0.794800
      4          6           0        0.291750    0.913130   -0.102780
      5          6           0       -0.965880    1.852640   -2.269770
      6          1           0       -0.896110    2.205300   -3.306890
      7          1           0       -1.608010    0.964740   -2.218740
      8          1           0       -1.399150    2.624620   -1.623660
      9          7           0        0.356690    1.487700   -1.754130
     10          1           0        0.776290    0.749490   -2.323270
     11          1           0        1.006810    2.276290   -1.778320
     12          6           0        1.716840    0.510140    0.163140
     13          6           0        2.388260   -0.472020   -0.576890
     14          6           0        3.708070   -0.807610   -0.279750
     15          6           0        4.376630   -0.172100    0.765690
     16          6           0        3.718050    0.805720    1.510090
     17          6           0        2.401800    1.146830    1.205700
     18          1           0        1.874260   -1.000690   -1.382810
     19          1           0        4.214060   -1.577680   -0.866040
     20          1           0        5.409390   -0.439020    0.999840
     21          1           0        4.232180    1.309630    2.331350
     22          1           0        1.891100    1.914220    1.793050
     23          1           0        0.056690    1.872160    0.375780
     24         35           0       -0.729570   -1.805440   -0.318450
     25          8           0       -3.036860   -0.265660    0.795840
     26          6           0       -4.250890    0.263050    1.280760
     27          1           0       -4.943060   -0.583470    1.367050
     28          1           0       -4.119220    0.735710    2.266090
     29          1           0       -4.666780    1.016010    0.593950
 ---------------------------------------------------------------------
                    Distance matrix (angstroms):
                    1          2          3          4          5
     1  C    0.000000
     2  C    1.429528   0.000000
     3  O    2.356740   1.230526   0.000000
     4  C    1.423941   2.447892   2.810208   0.000000
     5  C    3.005793   3.291154   3.307973   2.675847   0.000000
     6  H    4.057793   4.356823   4.324206   3.653359   1.097659
     7  H    2.642039   2.860251   3.190889   2.844123   1.096951
     8  H    3.171536   3.051191   2.674024   2.846299   1.095963
     9  N    2.643908   3.460071   3.633507   1.749658   1.465693
    10  H    3.005216   4.051626   4.449571   2.278625   2.062755
    11  H    3.452866   4.196388   4.144920   2.275291   2.076658
    12  C    2.573285   3.781026   4.189331   1.504658   3.862427
    13  C    3.319562   4.706549   5.319961   2.557103   4.418160
    14  C    4.619964   5.985124   6.565841   3.829296   5.734363
    15  C    5.234245   6.466627   6.883172   4.314882   6.469622
    16  C    4.798695   5.832845   6.058043   3.788459   6.109221
    17  C    3.565815   4.513664   4.680144   2.493802   4.890637
    18  H    3.256430   4.672152   5.422624   2.793836   4.122449
    19  H    5.376405   6.786013   7.456852   4.708632   6.369406
    20  H    6.302903   7.534447   7.951667   5.406877   7.522375
    21  H    5.649462   6.544709   6.643696   4.648569   6.963117
    22  H    3.685207   4.308463   4.222760   2.674747   4.967155
    23  H    2.038178   2.448891   2.306560   1.097275   2.836365
    24  Br   1.906407   2.903379   4.074336   2.912084   4.152715
    25  O    2.341921   1.352178   2.246124   3.643722   4.263111
    26  C    3.631618   2.345915   2.613668   4.792950   5.091596
    27  H    4.356749   3.239905   3.685576   5.639455   5.914309
    28  H    3.996559   2.675372   2.643594   5.009958   5.636055
    29  H    4.000240   2.657550   2.592837   5.008297   4.753683
                    6          7          8          9         10
     6  H    0.000000
     7  H    1.797181   0.000000
     8  H    1.806140   1.775653   0.000000
     9  N    2.120264   2.085520   2.095849   0.000000
    10  H    2.425657   2.396277   2.956029   1.022222   0.000000
    11  H    2.441858   2.958279   2.435959   1.022309   1.637446
    12  C    4.662851   4.115172   4.168102   2.545890   2.669112
    13  C    5.040638   4.553035   5.002937   3.058378   2.672148
    14  C    6.280102   5.929723   6.298412   4.321341   3.898188
    15  C    7.073876   6.783446   6.847647   5.026365   4.832541
    16  C    6.815614   6.503566   6.270129   4.734867   4.832366
    17  C    5.688588   5.276222   4.963503   3.613760   3.905610
    18  H    4.653537   4.085082   4.890408   2.938194   2.270051
    19  H    6.810472   6.495398   7.052761   5.006452   4.399716
    20  H    8.080822   7.846891   7.913587   6.068474   5.824194
    21  H    7.674069   7.411483   7.005939   5.634029   5.824296
    22  H    5.819163   5.407378   4.796282   3.888293   4.420802
    23  H    3.818490   3.213436   2.585232   2.185023   3.010495
    24  Br   5.004452   3.472270   4.666620   3.753120   3.579746
    25  O    5.246032   3.555726   4.109719   4.592690   5.029860
    26  C    6.006115   4.441135   4.705857   5.651559   6.204691
    27  H    6.782386   5.135894   5.638749   6.489904   6.935864
    28  H    6.603502   5.145127   5.108514   6.063120   6.710323
    29  H    5.554180   4.155710   4.264133   5.565179   6.181280
                   11         12         13         14         15
    11  H    0.000000
    12  C    2.718951   0.000000
    13  C    3.302279   1.401102   0.000000
    14  C    4.364969   2.428500   1.393848   0.000000
    15  C    4.880808   2.811228   2.417869   1.394199   0.000000
    16  C    4.508552   2.430326   2.785040   2.409660   1.394271
    17  C    3.482248   1.400527   2.408005   2.780780   2.415189
    18  H    3.412843   2.167337   1.092335   2.148693   3.400657
    19  H    5.096253   3.413841   2.153982   1.092140   2.159775
    20  H    5.871439   3.903319   3.407990   2.160486   1.092092
    21  H    5.312893   3.415736   3.877135   3.402240   2.160482
    22  H    3.696992   2.158336   3.399695   3.873789   3.403830
    23  H    2.388765   2.157872   3.440782   4.576403   4.795092
    24  Br   4.669770   3.402758   3.400833   4.548605   5.469592
    25  O    5.425779   4.857967   5.599902   6.851619   7.414142
    26  C    6.407380   6.076506   6.933217   8.180865   8.653829
    27  H    7.312492   6.855629   7.585485   8.809327   9.348127
    28  H    6.708712   6.207486   7.203363   8.374342   8.674952
    29  H    6.277388   6.418108   7.304703   8.615512   9.122739
                   16         17         18         19         20
    16  C    0.000000
    17  C    1.393386   0.000000
    18  H    3.877054   3.404486   0.000000
    19  H    3.401855   3.872899   2.464677   0.000000
    20  H    2.161102   3.406302   4.299958   2.491359   0.000000
    21  H    1.092119   2.154967   4.969140   4.308154   2.493295
    22  H    2.155594   1.093015   4.310809   4.965911   4.306424
    23  H    3.978632   2.591218   3.827462   5.543216   5.863651
    24  Br   5.472023   4.565568   2.925819   4.979077   6.425871
    25  O    6.876541   5.634016   5.422719   7.553746   8.450492
    26  C    7.990688   6.711556   6.797728   8.924820   9.689831
    27  H    8.772978   7.547645   7.362856   9.477763  10.359968
    28  H    7.873960   6.619452   7.228510   9.198128   9.683893
    29  H    8.437352   7.096209   7.124596   9.366329  10.188771
                   21         22         23         24         25
    21  H    0.000000
    22  H    2.477085   0.000000
    23  H    4.644934   2.318509   0.000000
    24  Br   6.429935   5.016195   3.824252   0.000000
    25  O    7.594621   5.480063   3.783752   2.989340   0.000000
    26  C    8.611710   6.380662   4.686520   4.385866   1.410160
    27  H    9.418000   7.288736   5.657759   4.699747   2.015163
    28  H    8.371351   6.143012   4.722607   4.962562   2.082278
    29  H    9.071729   6.726843   4.805389   4.928963   2.083285
                   26         27         28         29
    26  C    0.000000
    27  H    1.096878   0.000000
    28  H    1.100736   1.796447   0.000000
    29  H    1.100737   1.797874   1.781696   0.000000
 Stoichiometry    C11H14BrNO2
 Framework group  C1[X(C11H14BrNO2)]
 Deg. of freedom    81
 Full point group                 C1      NOp   1
 Largest Abelian subgroup         C1      NOp   1
 Largest concise Abelian subgroup C1      NOp   1
                         Standard orientation:                         
 ---------------------------------------------------------------------
 Center     Atomic      Atomic             Coordinates (Angstroms)
 Number     Number       Type             X           Y           Z
 ---------------------------------------------------------------------
      1          6           0       -0.814011   -0.046090   -0.127749
      2          6           0       -2.038552   -0.622379   -0.588119
      3          8           0       -2.210963   -1.823109   -0.794799
      4          6           0        0.291748   -0.913131    0.102781
      5          6           0       -0.965883   -1.852640    2.269771
      6          1           0       -0.896113   -2.205300    3.306891
      7          1           0       -1.608012   -0.964739    2.218741
      8          1           0       -1.399153   -2.624620    1.623661
      9          7           0        0.356688   -1.487701    1.754131
     10          1           0        0.776288   -0.749491    2.323271
     11          1           0        1.006807   -2.276291    1.778321
     12          6           0        1.716838   -0.510142   -0.163139
     13          6           0        2.388259    0.472018    0.576891
     14          6           0        3.708069    0.807607    0.279751
     15          6           0        4.376629    0.172096   -0.765689
     16          6           0        3.718048   -0.805723   -1.510089
     17          6           0        2.401798   -1.146832   -1.205699
     18          1           0        1.874259    1.000688    1.382811
     19          1           0        4.214060    1.577676    0.866041
     20          1           0        5.409389    0.439015   -0.999839
     21          1           0        4.232178   -1.309634   -2.331349
     22          1           0        1.891097   -1.914222   -1.793049
     23          1           0        0.056687   -1.872161   -0.375779
     24         35           0       -0.729570    1.805440    0.318451
     25          8           0       -3.036861    0.265662   -0.795839
     26          6           0       -4.250892   -0.263048   -1.280759
     27          1           0       -4.943061    0.583473   -1.367049
     28          1           0       -4.119222   -0.735708   -2.266089
     29          1           0       -4.666782   -1.016007   -0.593949
 ---------------------------------------------------------------------
 Rotational constants (GHZ):           0.6940449           0.2982652           0.2658333
 Standard basis: def2SVP (5D, 7F)
 There are   315 symmetry adapted cartesian basis functions of A   symmetry.
 There are   298 symmetry adapted basis functions of A   symmetry.
   298 basis functions,   528 primitive gaussians,   315 cartesian basis functions
    69 alpha electrons       69 beta electrons
       nuclear repulsion energy      1371.9972405212 Hartrees.
 NAtoms=   29 NActive=   29 NUniq=   29 SFac= 1.00D+00 NAtFMM=   60 NAOKFM=F Big=F
 Integral buffers will be    131072 words long.
 Raffenetti 2 integral format.
 Two-electron integral symmetry is turned on.
 Nuclear repulsion after empirical dispersion term =     1371.9762413586 Hartrees.
 Force inversion solution in PCM.
 ------------------------------------------------------------------------------
 Polarizable Continuum Model (PCM)
 =================================
 Model                : PCM.
 Atomic radii         : UFF (Universal Force Field).
 Polarization charges : Total charges.
 Charge compensation  : None.
 Solution method      : Matrix inversion.
 Cavity type          : Scaled VdW (van der Waals Surface) (Alpha=1.100).
 Cavity algorithm     : GePol (No added spheres)
                        Default sphere list used, NSphG=   29.
                        Lebedev-Laikov grids with approx.  5.0 points / Ang**2.
                        Smoothing algorithm: York/Karplus (Gamma=1.0000).
                        Polarization charges: spherical gaussians, with
                                              point-specific exponents (IZeta= 3).
                        Self-potential: point-specific (ISelfS= 7).
                        Self-field    : sphere-specific E.n sum rule (ISelfD= 2).
 1st derivatives      : Analytical E(r).r(x)/FMM algorithm (CHGder, D1EAlg=3).
                        Cavity 1st derivative terms included.
 2nd derivatives      : Analytical E(r).r(xy)/FMM algorithm (CHGder, D2EAlg=3).
                        Cavity 2nd derivative terms included.
 Solvent              : Toluene, Eps=   2.374100 Eps(inf)=   2.238315
 ------------------------------------------------------------------------------
 One-electron integrals computed using PRISM.
   1 Symmetry operations used in ECPInt.
 ECPInt:  NShTT=    9591 NPrTT=   36310 LenC2=    8989 LenP2D=   24326.
 LDataN:  DoStor=T MaxTD1= 4 Len=   56
 NBasis=   298 RedAO= T EigKep=  2.85D-04  NBF=   298
 NBsUse=   298 1.00D-06 EigRej= -1.00D+00 NBFU=   298
 ExpMin= 1.22D-01 ExpMax= 1.13D+05 ExpMxC= 1.70D+04 IAcc=3 IRadAn=         5 AccDes= 0.00D+00
 Harris functional with IExCor= 4639 and IRadAn=       5 diagonalized for initial guess.
 HarFok:  IExCor= 4639 AccDes= 0.00D+00 IRadAn=         5 IDoV= 1 UseB2=F ITyADJ=14
 ICtDFT=  3500011 ScaDFX=  1.000000  1.000000  1.000000  1.000000
 FoFCou: FMM=F IPFlag=           0 FMFlag=      100000 FMFlg1=           0
         NFxFlg=           0 DoJE=T BraDBF=F KetDBF=T FulRan=T
         wScrn=  0.000000 ICntrl=       500 IOpCl=  0 I1Cent=   200000004 NGrid=           0
         NMat0=    1 NMatS0=      1 NMatT0=    0 NMatD0=    1 NMtDS0=    0 NMtDT0=    0
 Petite list used in FoFCou.
 Requested convergence on RMS density matrix=1.00D-08 within 128 cycles.
 Requested convergence on MAX density matrix=1.00D-06.
 Requested convergence on             energy=1.00D-06.
 No special actions if energy rises.
 Inv3:  Mode=1 IEnd=    15472323.
 Iteration    1 A*A^-1 deviation from unit magnitude is 4.00D-15 for   2010.
 Iteration    1 A*A^-1 deviation from orthogonality  is 1.93D-15 for   1650   1479.
 Iteration    1 A^-1*A deviation from unit magnitude is 3.77D-15 for   2010.
 Iteration    1 A^-1*A deviation from orthogonality  is 1.72D-15 for   1578     79.
 Error on total polarization charges =  0.00636
 SCF Done:  E(RwB97XD) =  -3206.00254551     A.U. after   14 cycles
            NFock= 14  Conv=0.85D-08     -V/T= 2.0029
 DoSCS=F DFT=T ScalE2(SS,OS)=  1.000000  1.000000
 Range of M.O.s used for correlation:     1   298
 NBasis=   298 NAE=    69 NBE=    69 NFC=     0 NFV=     0
 NROrb=    298 NOA=    69 NOB=    69 NVA=   229 NVB=   229

 **** Warning!!: The largest alpha MO coefficient is  0.11347423D+02

   1 Symmetry operations used in ECPInt.
 ECPInt:  NShTT=    9591 NPrTT=   36310 LenC2=    8989 LenP2D=   24326.
 LDataN:  DoStor=T MaxTD1= 5 Len=  102
 Symmetrizing basis deriv contribution to polar:
 IMax=3 JMax=2 DiffMx= 0.00D+00
 G2DrvN: will do    30 centers at a time, making    1 passes.
 Calling FoFCou, ICntrl=  3107 FMM=F I1Cent=   0 AccDes= 0.00D+00.
 NEqPCM:  Using equilibrium solvation (IEInf=0, Eps=   2.3741, EpsInf=   2.2383)
 G2PCM: DoFxE=T DoFxN=T DoGrad=T DoDP/DQ/DG/TGxP=FFFF NFrqRd=   0 IEInf=0 SqF1=F DoCFld=F IF1Alg=4.
 End of G2Drv F.D. properties file   721 does not exist.
 End of G2Drv F.D. properties file   722 does not exist.
 End of G2Drv F.D. properties file   788 does not exist.
          IDoAtm=11111111111111111111111111111
 NEqPCM:  Using equilibrium solvation (IEInf=0, Eps=   2.3741, EpsInf=   2.2383)
          Differentiating once with respect to electric field.
                with respect to dipole field.
          Differentiating once with respect to nuclear coordinates.
 Keep R1 ints in memory in canonical form, NReq=2013993496.
          There are    90 degrees of freedom in the 1st order CPHF.  IDoFFX=6 NUNeed=     3.
     87 vectors produced by pass  0 Test12= 1.76D-14 1.11D-09 XBig12= 8.44D+01 3.60D+00.
 AX will form    87 AO Fock derivatives at one time.
     87 vectors produced by pass  1 Test12= 1.76D-14 1.11D-09 XBig12= 7.42D+00 3.96D-01.
     87 vectors produced by pass  2 Test12= 1.76D-14 1.11D-09 XBig12= 1.73D-01 8.85D-02.
     87 vectors produced by pass  3 Test12= 1.76D-14 1.11D-09 XBig12= 3.07D-03 7.40D-03.
     87 vectors produced by pass  4 Test12= 1.76D-14 1.11D-09 XBig12= 3.75D-05 5.89D-04.
     87 vectors produced by pass  5 Test12= 1.76D-14 1.11D-09 XBig12= 2.66D-07 4.92D-05.
     80 vectors produced by pass  6 Test12= 1.76D-14 1.11D-09 XBig12= 1.51D-09 3.23D-06.
     25 vectors produced by pass  7 Test12= 1.76D-14 1.11D-09 XBig12= 6.60D-12 1.85D-07.
      3 vectors produced by pass  8 Test12= 1.76D-14 1.11D-09 XBig12= 2.99D-14 1.59D-08.
 InvSVY:  IOpt=1 It=  1 EMax= 7.11D-15
 Solved reduced A of dimension   630 with    90 vectors.
 Isotropic polarizability for W=    0.000000      169.19 Bohr**3.
 End of Minotr F.D. properties file   721 does not exist.
 End of Minotr F.D. properties file   722 does not exist.
 End of Minotr F.D. properties file   788 does not exist.

 **********************************************************************

            Population analysis using the SCF Density.

 **********************************************************************

 Orbital symmetries:
       Occupied  (A) (A) (A) (A) (A) (A) (A) (A) (A) (A) (A) (A)
                 (A) (A) (A) (A) (A) (A) (A) (A) (A) (A) (A) (A)
                 (A) (A) (A) (A) (A) (A) (A) (A) (A) (A) (A) (A)
                 (A) (A) (A) (A) (A) (A) (A) (A) (A) (A) (A) (A)
                 (A) (A) (A) (A) (A) (A) (A) (A) (A) (A) (A) (A)
                 (A) (A) (A) (A) (A) (A) (A) (A) (A)
       Virtual   (A) (A) (A) (A) (A) (A) (A) (A) (A) (A) (A) (A)
                 (A) (A) (A) (A) (A) (A) (A) (A) (A) (A) (A) (A)
                 (A) (A) (A) (A) (A) (A) (A) (A) (A) (A) (A) (A)
                 (A) (A) (A) (A) (A) (A) (A) (A) (A) (A) (A) (A)
                 (A) (A) (A) (A) (A) (A) (A) (A) (A) (A) (A) (A)
                 (A) (A) (A) (A) (A) (A) (A) (A) (A) (A) (A) (A)
                 (A) (A) (A) (A) (A) (A) (A) (A) (A) (A) (A) (A)
                 (A) (A) (A) (A) (A) (A) (A) (A) (A) (A) (A) (A)
                 (A) (A) (A) (A) (A) (A) (A) (A) (A) (A) (A) (A)
                 (A) (A) (A) (A) (A) (A) (A) (A) (A) (A) (A) (A)
                 (A) (A) (A) (A) (A) (A) (A) (A) (A) (A) (A) (A)
                 (A) (A) (A) (A) (A) (A) (A) (A) (A) (A) (A) (A)
                 (A) (A) (A) (A) (A) (A) (A) (A) (A) (A) (A) (A)
                 (A) (A) (A) (A) (A) (A) (A) (A) (A) (A) (A) (A)
                 (A) (A) (A) (A) (A) (A) (A) (A) (A) (A) (A) (A)
                 (A) (A) (A) (A) (A) (A) (A) (A) (A) (A) (A) (A)
                 (A) (A) (A) (A) (A) (A) (A) (A) (A) (A) (A) (A)
                 (A) (A) (A) (A) (A) (A) (A) (A) (A) (A) (A) (A)
                 (A) (A) (A) (A) (A) (A) (A) (A) (A) (A) (A) (A)
                 (A)
 The electronic state is 1-A.
 Alpha  occ. eigenvalues -- -483.03226 -62.61394 -56.42155 -56.41819 -56.41811
 Alpha  occ. eigenvalues --  -19.26727 -19.19691 -14.53758 -10.38981 -10.35937
 Alpha  occ. eigenvalues --  -10.34949 -10.33169 -10.32109 -10.31227 -10.31098
 Alpha  occ. eigenvalues --  -10.31069 -10.30989 -10.30944 -10.29033  -8.78327
 Alpha  occ. eigenvalues --   -6.60824  -6.59595  -6.59562  -2.71204  -2.70851
 Alpha  occ. eigenvalues --   -2.70824  -2.69845  -2.69845  -1.16493  -1.06814
 Alpha  occ. eigenvalues --   -1.06058  -0.96419  -0.90737  -0.86423  -0.84665
 Alpha  occ. eigenvalues --   -0.81066  -0.80355  -0.79534  -0.71735  -0.70527
 Alpha  occ. eigenvalues --   -0.67446  -0.66206  -0.62601  -0.61201  -0.58625
 Alpha  occ. eigenvalues --   -0.57592  -0.56959  -0.54846  -0.54609  -0.53056
 Alpha  occ. eigenvalues --   -0.52927  -0.51351  -0.50553  -0.49369  -0.48474
 Alpha  occ. eigenvalues --   -0.48237  -0.45863  -0.45594  -0.44248  -0.43460
 Alpha  occ. eigenvalues --   -0.42703  -0.41098  -0.37329  -0.35795  -0.35682
 Alpha  occ. eigenvalues --   -0.34031  -0.33577  -0.32074  -0.24688
 Alpha virt. eigenvalues --    0.04134   0.05173   0.09775   0.11584   0.12444
 Alpha virt. eigenvalues --    0.14180   0.15559   0.16296   0.17950   0.18385
 Alpha virt. eigenvalues --    0.19306   0.19497   0.20774   0.21698   0.22494
 Alpha virt. eigenvalues --    0.22679   0.22909   0.23869   0.24029   0.24842
 Alpha virt. eigenvalues --    0.26134   0.26733   0.30372   0.34349   0.35986
 Alpha virt. eigenvalues --    0.36287   0.37627   0.37939   0.39455   0.40090
 Alpha virt. eigenvalues --    0.42322   0.43443   0.45540   0.47465   0.48124
 Alpha virt. eigenvalues --    0.49417   0.50454   0.51028   0.52343   0.53850
 Alpha virt. eigenvalues --    0.54702   0.55302   0.55583   0.56055   0.57029
 Alpha virt. eigenvalues --    0.57627   0.57878   0.59640   0.60521   0.61811
 Alpha virt. eigenvalues --    0.62671   0.63003   0.64118   0.65117   0.65744
 Alpha virt. eigenvalues --    0.66545   0.67470   0.69074   0.70275   0.70391
 Alpha virt. eigenvalues --    0.71166   0.72234   0.72848   0.73381   0.73838
 Alpha virt. eigenvalues --    0.74131   0.74338   0.75094   0.75550   0.76123
 Alpha virt. eigenvalues --    0.76274   0.77413   0.77948   0.78493   0.79472
 Alpha virt. eigenvalues --    0.79539   0.81017   0.82269   0.82716   0.83350
 Alpha virt. eigenvalues --    0.84086   0.84998   0.86299   0.87613   0.88150
 Alpha virt. eigenvalues --    0.90179   0.91632   0.93170   0.94981   0.97048
 Alpha virt. eigenvalues --    0.99472   1.01158   1.02927   1.05868   1.08506
 Alpha virt. eigenvalues --    1.09227   1.11009   1.14457   1.15604   1.16555
 Alpha virt. eigenvalues --    1.20025   1.23587   1.23865   1.26259   1.27671
 Alpha virt. eigenvalues --    1.28959   1.32313   1.33562   1.34614   1.36017
 Alpha virt. eigenvalues --    1.36922   1.37751   1.38153   1.39748   1.41504
 Alpha virt. eigenvalues --    1.43192   1.47325   1.50179   1.56518   1.57271
 Alpha virt. eigenvalues --    1.58019   1.61060   1.61890   1.62464   1.62896
 Alpha virt. eigenvalues --    1.66600   1.68460   1.71528   1.72507   1.75625
 Alpha virt. eigenvalues --    1.77320   1.78204   1.81290   1.82397   1.83071
 Alpha virt. eigenvalues --    1.83501   1.83589   1.84093   1.84968   1.85679
 Alpha virt. eigenvalues --    1.86452   1.87827   1.88217   1.88762   1.91108
 Alpha virt. eigenvalues --    1.92337   1.93754   1.95643   1.96524   1.97250
 Alpha virt. eigenvalues --    1.99806   2.01106   2.02096   2.03754   2.04600
 Alpha virt. eigenvalues --    2.05942   2.06272   2.06851   2.07521   2.08824
 Alpha virt. eigenvalues --    2.10215   2.13612   2.14605   2.15743   2.17795
 Alpha virt. eigenvalues --    2.20073   2.20314   2.22132   2.24454   2.26166
 Alpha virt. eigenvalues --    2.28343   2.28933   2.33491   2.36101   2.37156
 Alpha virt. eigenvalues --    2.38384   2.39391   2.41495   2.41882   2.42444
 Alpha virt. eigenvalues --    2.43516   2.46513   2.48751   2.51629   2.52447
 Alpha virt. eigenvalues --    2.56167   2.62362   2.64572   2.68648   2.69951
 Alpha virt. eigenvalues --    2.71473   2.74129   2.75639   2.76171   2.76616
 Alpha virt. eigenvalues --    2.77514   2.79176   2.80185   2.80994   2.81602
 Alpha virt. eigenvalues --    2.86265   2.90739   2.95433   2.95809   2.96705
 Alpha virt. eigenvalues --    2.99853   3.01567   3.03595   3.04621   3.05347
 Alpha virt. eigenvalues --    3.08120   3.10895   3.15917   3.17631   3.21018
 Alpha virt. eigenvalues --    3.24891   3.29328   3.31783   3.33477   3.46885
 Alpha virt. eigenvalues --    3.55289   3.57305   3.60971   3.65709   3.71221
 Alpha virt. eigenvalues --    3.73628   3.76174   3.80207   3.97137
          Condensed to atoms (all electrons):
               1          2          3          4          5          6
     1  C    5.855519   0.278799  -0.147897   0.475643  -0.000534  -0.000493
     2  C    0.278799   4.439118   0.689629  -0.042263   0.005305   0.000082
     3  O   -0.147897   0.689629   7.844288   0.002334  -0.002765   0.000188
     4  C    0.475643  -0.042263   0.002334   4.918327  -0.027176   0.004798
     5  C   -0.000534   0.005305  -0.002765  -0.027176   4.535158   0.399624
     6  H   -0.000493   0.000082   0.000188   0.004798   0.399624   0.589062
     7  H    0.016929   0.000312  -0.001721  -0.016834   0.400929  -0.020682
     8  H   -0.011672   0.003227   0.013185   0.000120   0.401339  -0.017125
     9  N   -0.100168  -0.002655   0.000319   0.114764   0.300021  -0.018056
    10  H   -0.000949  -0.000637  -0.000074  -0.001070  -0.018670  -0.005451
    11  H    0.007814  -0.000040  -0.000184  -0.013841  -0.017197  -0.005010
    12  C   -0.053258   0.010146   0.001710   0.291272   0.006628  -0.000413
    13  C   -0.013392  -0.000341  -0.000006  -0.074192  -0.000015  -0.000027
    14  C   -0.000009   0.000014   0.000000   0.008209   0.000010  -0.000000
    15  C    0.000080   0.000001   0.000000  -0.000203  -0.000000   0.000000
    16  C   -0.000510  -0.000040  -0.000002   0.013668   0.000006  -0.000000
    17  C    0.003898  -0.000285  -0.000142  -0.059257  -0.000076  -0.000001
    18  H   -0.001953   0.000095  -0.000000  -0.010718  -0.000226   0.000008
    19  H    0.000001  -0.000000  -0.000000  -0.000227  -0.000000   0.000000
    20  H    0.000000   0.000000   0.000000   0.000020   0.000000  -0.000000
    21  H   -0.000001   0.000000   0.000000  -0.000297  -0.000000   0.000000
    22  H    0.001214  -0.000011  -0.000117  -0.016090  -0.000019  -0.000000
    23  H   -0.033452  -0.006304   0.032841   0.367712  -0.002303  -0.000146
    24  Br   0.173715  -0.031566   0.001934  -0.066604  -0.001771  -0.000003
    25  O   -0.145756   0.418391  -0.085085   0.003026  -0.000386  -0.000002
    26  C    0.012179  -0.038205   0.002315  -0.000279  -0.000020  -0.000000
    27  H    0.000363   0.004794   0.000933   0.000011  -0.000000  -0.000000
    28  H    0.000282  -0.004477   0.007129  -0.000060  -0.000008  -0.000000
    29  H    0.000627  -0.004955   0.009697   0.000077   0.000050   0.000003
               7          8          9         10         11         12
     1  C    0.016929  -0.011672  -0.100168  -0.000949   0.007814  -0.053258
     2  C    0.000312   0.003227  -0.002655  -0.000637  -0.000040   0.010146
     3  O   -0.001721   0.013185   0.000319  -0.000074  -0.000184   0.001710
     4  C   -0.016834   0.000120   0.114764  -0.001070  -0.013841   0.291272
     5  C    0.400929   0.401339   0.300021  -0.018670  -0.017197   0.006628
     6  H   -0.020682  -0.017125  -0.018056  -0.005451  -0.005010  -0.000413
     7  H    0.550382  -0.014140  -0.014852  -0.004477   0.005747   0.000774
     8  H   -0.014140   0.548381  -0.016059   0.005194  -0.006316   0.000561
     9  N   -0.014852  -0.016059   6.331740   0.341804   0.340607  -0.058183
    10  H   -0.004477   0.005194   0.341804   0.511938  -0.013615  -0.009541
    11  H    0.005747  -0.006316   0.340607  -0.013615   0.513520   0.009351
    12  C    0.000774   0.000561  -0.058183  -0.009541   0.009351   5.324767
    13  C   -0.000078   0.000056  -0.009700   0.009601  -0.001001   0.287820
    14  C    0.000000  -0.000000   0.000088  -0.000365  -0.000248   0.062915
    15  C    0.000000  -0.000000   0.000016  -0.000001   0.000013  -0.134068
    16  C   -0.000000   0.000001  -0.000366   0.000069  -0.000106   0.060299
    17  C    0.000000  -0.000054   0.001428  -0.000085   0.001389   0.354941
    18  H    0.000057   0.000001   0.000469   0.003598  -0.000157  -0.075093
    19  H    0.000000   0.000000   0.000002   0.000013  -0.000000   0.014357
    20  H   -0.000000   0.000000   0.000000  -0.000001  -0.000000  -0.001441
    21  H   -0.000000   0.000000   0.000002   0.000000  -0.000001   0.014209
    22  H    0.000001  -0.000003   0.000323  -0.000021   0.000061  -0.064198
    23  H   -0.000187   0.004406  -0.028258   0.003676  -0.003187  -0.017388
    24  Br   0.003649   0.000139   0.003468   0.002169  -0.000196  -0.013371
    25  O    0.000620   0.000102   0.000035  -0.000001  -0.000001   0.000044
    26  C   -0.000000  -0.000044   0.000001  -0.000000  -0.000000  -0.000001
    27  H   -0.000000  -0.000000  -0.000000   0.000000   0.000000  -0.000000
    28  H    0.000014  -0.000020   0.000002   0.000000  -0.000000  -0.000002
    29  H   -0.000078   0.000117  -0.000009   0.000000   0.000000   0.000001
              13         14         15         16         17         18
     1  C   -0.013392  -0.000009   0.000080  -0.000510   0.003898  -0.001953
     2  C   -0.000341   0.000014   0.000001  -0.000040  -0.000285   0.000095
     3  O   -0.000006   0.000000   0.000000  -0.000002  -0.000142  -0.000000
     4  C   -0.074192   0.008209  -0.000203   0.013668  -0.059257  -0.010718
     5  C   -0.000015   0.000010  -0.000000   0.000006  -0.000076  -0.000226
     6  H   -0.000027  -0.000000   0.000000  -0.000000  -0.000001   0.000008
     7  H   -0.000078   0.000000   0.000000  -0.000000   0.000000   0.000057
     8  H    0.000056  -0.000000  -0.000000   0.000001  -0.000054   0.000001
     9  N   -0.009700   0.000088   0.000016  -0.000366   0.001428   0.000469
    10  H    0.009601  -0.000365  -0.000001   0.000069  -0.000085   0.003598
    11  H   -0.001001  -0.000248   0.000013  -0.000106   0.001389  -0.000157
    12  C    0.287820   0.062915  -0.134068   0.060299   0.354941  -0.075093
    13  C    5.106930   0.363456   0.055053  -0.116391   0.029487   0.436192
    14  C    0.363456   4.965452   0.327139   0.059749  -0.112017  -0.045637
    15  C    0.055053   0.327139   5.056085   0.316825   0.060841   0.012198
    16  C   -0.116391   0.059749   0.316825   5.021344   0.332141  -0.001542
    17  C    0.029487  -0.112017   0.060841   0.332141   5.026836   0.011107
    18  H    0.436192  -0.045637   0.012198  -0.001542   0.011107   0.646827
    19  H   -0.061141   0.447020  -0.066512   0.012368  -0.001668  -0.012017
    20  H    0.012597  -0.062826   0.447003  -0.063102   0.012293  -0.000201
    21  H   -0.001604   0.012204  -0.066291   0.447864  -0.062129   0.000022
    22  H    0.013020  -0.001669   0.012379  -0.057968   0.449054  -0.000160
    23  H    0.007940  -0.000208  -0.000024   0.000599  -0.011493  -0.000063
    24  Br   0.001028  -0.000389  -0.000035   0.000016   0.000133   0.016904
    25  O    0.000002  -0.000000   0.000000  -0.000000  -0.000004   0.000002
    26  C   -0.000000   0.000000  -0.000000   0.000000   0.000000  -0.000000
    27  H    0.000000  -0.000000  -0.000000   0.000000  -0.000000  -0.000000
    28  H   -0.000000   0.000000   0.000000  -0.000000   0.000000   0.000000
    29  H    0.000000  -0.000000  -0.000000   0.000000  -0.000000   0.000000
              19         20         21         22         23         24
     1  C    0.000001   0.000000  -0.000001   0.001214  -0.033452   0.173715
     2  C   -0.000000   0.000000   0.000000  -0.000011  -0.006304  -0.031566
     3  O   -0.000000   0.000000   0.000000  -0.000117   0.032841   0.001934
     4  C   -0.000227   0.000020  -0.000297  -0.016090   0.367712  -0.066604
     5  C   -0.000000   0.000000  -0.000000  -0.000019  -0.002303  -0.001771
     6  H    0.000000  -0.000000   0.000000  -0.000000  -0.000146  -0.000003
     7  H    0.000000  -0.000000  -0.000000   0.000001  -0.000187   0.003649
     8  H    0.000000   0.000000   0.000000  -0.000003   0.004406   0.000139
     9  N    0.000002   0.000000   0.000002   0.000323  -0.028258   0.003468
    10  H    0.000013  -0.000001   0.000000  -0.000021   0.003676   0.002169
    11  H   -0.000000  -0.000000  -0.000001   0.000061  -0.003187  -0.000196
    12  C    0.014357  -0.001441   0.014209  -0.064198  -0.017388  -0.013371
    13  C   -0.061141   0.012597  -0.001604   0.013020   0.007940   0.001028
    14  C    0.447020  -0.062826   0.012204  -0.001669  -0.000208  -0.000389
    15  C   -0.066512   0.447003  -0.066291   0.012379  -0.000024  -0.000035
    16  C    0.012368  -0.063102   0.447864  -0.057968   0.000599   0.000016
    17  C   -0.001668   0.012293  -0.062129   0.449054  -0.011493   0.000133
    18  H   -0.012017  -0.000201   0.000022  -0.000160  -0.000063   0.016904
    19  H    0.647865  -0.010699  -0.000205   0.000020   0.000005  -0.000024
    20  H   -0.010699   0.644080  -0.010679  -0.000198  -0.000001   0.000000
    21  H   -0.000205  -0.010679   0.645335  -0.011099   0.000009   0.000000
    22  H    0.000020  -0.000198  -0.011099   0.643471   0.004133   0.000005
    23  H    0.000005  -0.000001   0.000009   0.004133   0.627073   0.004602
    24  Br  -0.000024   0.000000   0.000000   0.000005   0.004602  35.018510
    25  O   -0.000000   0.000000   0.000000  -0.000001   0.001534   0.007669
    26  C   -0.000000   0.000000  -0.000000   0.000000  -0.000097  -0.000130
    27  H    0.000000  -0.000000   0.000000   0.000000  -0.000003  -0.000066
    28  H    0.000000   0.000000  -0.000000  -0.000000   0.000023  -0.000014
    29  H   -0.000000  -0.000000  -0.000000   0.000000  -0.000058  -0.000040
              25         26         27         28         29
     1  C   -0.145756   0.012179   0.000363   0.000282   0.000627
     2  C    0.418391  -0.038205   0.004794  -0.004477  -0.004955
     3  O   -0.085085   0.002315   0.000933   0.007129   0.009697
     4  C    0.003026  -0.000279   0.000011  -0.000060   0.000077
     5  C   -0.000386  -0.000020  -0.000000  -0.000008   0.000050
     6  H   -0.000002  -0.000000  -0.000000  -0.000000   0.000003
     7  H    0.000620  -0.000000  -0.000000   0.000014  -0.000078
     8  H    0.000102  -0.000044  -0.000000  -0.000020   0.000117
     9  N    0.000035   0.000001  -0.000000   0.000002  -0.000009
    10  H   -0.000001  -0.000000   0.000000   0.000000   0.000000
    11  H   -0.000001  -0.000000   0.000000  -0.000000   0.000000
    12  C    0.000044  -0.000001  -0.000000  -0.000002   0.000001
    13  C    0.000002  -0.000000   0.000000  -0.000000   0.000000
    14  C   -0.000000   0.000000  -0.000000   0.000000  -0.000000
    15  C    0.000000  -0.000000  -0.000000   0.000000  -0.000000
    16  C   -0.000000   0.000000   0.000000  -0.000000   0.000000
    17  C   -0.000004   0.000000  -0.000000   0.000000  -0.000000
    18  H    0.000002  -0.000000  -0.000000   0.000000   0.000000
    19  H   -0.000000  -0.000000   0.000000   0.000000  -0.000000
    20  H    0.000000   0.000000  -0.000000   0.000000  -0.000000
    21  H    0.000000  -0.000000   0.000000  -0.000000  -0.000000
    22  H   -0.000001   0.000000   0.000000  -0.000000   0.000000
    23  H    0.001534  -0.000097  -0.000003   0.000023  -0.000058
    24  Br   0.007669  -0.000130  -0.000066  -0.000014  -0.000040
    25  O    7.947403   0.281218  -0.024190  -0.028857  -0.029951
    26  C    0.281218   4.395395   0.397800   0.404841   0.400711
    27  H   -0.024190   0.397800   0.626698  -0.025446  -0.025512
    28  H   -0.028857   0.404841  -0.025446   0.643621  -0.034758
    29  H   -0.029951   0.400711  -0.025512  -0.034758   0.652022
 Mulliken charges:
               1
     1  C   -0.317019
     2  C    0.281865
     3  O   -0.368508
     4  C    0.129130
     5  C    0.022096
     6  H    0.073645
     7  H    0.093637
     8  H    0.088604
     9  N   -0.186785
    10  H    0.176897
    11  H    0.182598
    12  C   -0.012839
    13  C   -0.045295
    14  C   -0.022887
    15  C   -0.020499
    16  C   -0.024923
    17  C   -0.036336
    18  H    0.020289
    19  H    0.030845
    20  H    0.033156
    21  H    0.032662
    22  H    0.027876
    23  H    0.048617
    24  Br  -0.119731
    25  O   -0.345814
    26  C    0.144315
    27  H    0.044619
    28  H    0.037730
    29  H    0.032055
 Sum of Mulliken charges =  -0.00000
 Mulliken charges with hydrogens summed into heavy atoms:
               1
     1  C   -0.317019
     2  C    0.281865
     3  O   -0.368508
     4  C    0.177747
     5  C    0.277981
     9  N    0.172711
    12  C   -0.012839
    13  C   -0.025006
    14  C    0.007958
    15  C    0.012657
    16  C    0.007738
    17  C   -0.008461
    24  Br  -0.119731
    25  O   -0.345814
    26  C    0.258720
 APT charges:
               1
     1  C   -0.791182
     2  C    1.669677
     3  O   -1.024275
     4  C    1.032990
     5  C    0.146461
     6  H    0.012506
     7  H    0.067964
     8  H    0.068313
     9  N   -0.726867
    10  H    0.208477
    11  H    0.183584
    12  C    0.011018
    13  C   -0.089566
    14  C   -0.028393
    15  C   -0.053508
    16  C   -0.011332
    17  C   -0.081031
    18  H    0.057918
    19  H    0.034848
    20  H    0.038937
    21  H    0.036653
    22  H    0.049476
    23  H    0.015159
    24  Br  -0.235022
    25  O   -1.107712
    26  C    0.625959
    27  H   -0.020832
    28  H   -0.045180
    29  H   -0.045040
 Sum of APT charges =  -0.00000
 APT charges with hydrogens summed into heavy atoms:
               1
     1  C   -0.791182
     2  C    1.669677
     3  O   -1.024275
     4  C    1.048149
     5  C    0.295243
     9  N   -0.334806
    12  C    0.011018
    13  C   -0.031648
    14  C    0.006455
    15  C   -0.014571
    16  C    0.025321
    17  C   -0.031554
    24  Br  -0.235022
    25  O   -1.107712
    26  C    0.514907
 Electronic spatial extent (au):  <R**2>=           4406.7015
 Charge=             -0.0000 electrons
 Dipole moment (field-independent basis, Debye):
    X=              4.1768    Y=             -3.4169    Z=              5.3057  Tot=              7.5678
 Quadrupole moment (field-independent basis, Debye-Ang):
   XX=            -92.7980   YY=           -100.9196   ZZ=            -88.3347
   XY=             -3.0033   XZ=             -0.8835   YZ=             -6.9769
 Traceless Quadrupole moment (field-independent basis, Debye-Ang):
   XX=              1.2194   YY=             -6.9022   ZZ=              5.6828
   XY=             -3.0033   XZ=             -0.8835   YZ=             -6.9769
 Octapole moment (field-independent basis, Debye-Ang**2):
  XXX=            -42.7024  YYY=             39.6012  ZZZ=             38.1618  XYY=              6.2768
  XXY=             29.7492  XXZ=            -13.5553  XZZ=            -11.3815  YZZ=             -6.6703
  YYZ=             26.8134  XYZ=             14.7019
 Hexadecapole moment (field-independent basis, Debye-Ang**3):
 XXXX=          -3411.8990 YYYY=           -978.1247 ZZZZ=           -718.4318 XXXY=             17.1845
 XXXZ=             -4.5257 YYYX=            -68.8218 YYYZ=            -28.5814 ZZZX=             14.4500
 ZZZY=            -21.4534 XXYY=           -834.5028 XXZZ=           -714.9074 YYZZ=           -264.4207
 XXYZ=             17.7459 YYXZ=             -8.4226 ZZXY=            -25.5398
 N-N= 1.371976241359D+03 E-N=-1.036832209825D+04  KE= 3.196657792067D+03
  Exact polarizability:     217.069       9.695     151.794       0.059      15.621     138.700
 Approx polarizability:     183.984       9.747     166.093      -0.107      22.324     144.669
   1 Symmetry operations used in ECPInt.
 ECPInt:  NShTT=    9591 NPrTT=   36310 LenC2=    8989 LenP2D=   24326.
 LDataN:  DoStor=T MaxTD1= 6 Len=  172
 D2PCM: PCM CHGder 2nd derivatives, FixD1E=F FixD2E=F DoIter=F DoCFld=F I1PDM=0
 Calling FoFJK, ICntrl=    100127 FMM=F ISym2X=0 I1Cent= 0 IOpClX= 0 NMat=1 NMatS=1 NMatT=0.
 Full mass-weighted force constant matrix:
 Low frequencies --- -231.5090  -12.5900   -7.4564    0.0004    0.0069    0.0087
 Low frequencies ---   15.1210   42.1665   49.3956
 ******    1 imaginary frequencies (negative Signs) ****** 
 Diagonal vibrational polarizability:
      185.3161984      83.6131982     164.8316285
 Harmonic frequencies (cm**-1), IR intensities (KM/Mole), Raman scattering
 activities (A**4/AMU), depolarization ratios for plane and unpolarized
 incident light, reduced masses (AMU), force constants (mDyne/A),
 and normal coordinates:
                      1                      2                      3
                      A                      A                      A
 Frequencies --   -231.5078                41.7600                49.2295
 Red. masses --      5.4154                 5.7138                 4.4525
 Frc consts  --      0.1710                 0.0059                 0.0064
 IR Inten    --    406.3677                 0.4691                 2.4426
  Atom  AN      X      Y      Z        X      Y      Z        X      Y      Z
     1   6     0.04   0.03  -0.07     0.01   0.05  -0.09     0.00   0.01  -0.07
     2   6    -0.05  -0.00  -0.02     0.02   0.02  -0.07    -0.02   0.01   0.01
     3   8    -0.02   0.02  -0.02     0.07   0.02  -0.15    -0.02   0.01   0.00
     4   6    -0.02   0.15  -0.36     0.02   0.06  -0.08     0.01  -0.00  -0.06
     5   6    -0.01  -0.03   0.13     0.01   0.10  -0.06    -0.03  -0.07  -0.13
     6   1    -0.34   0.10   0.21     0.01   0.13  -0.06    -0.02  -0.11  -0.15
     7   1     0.06   0.02  -0.10     0.01   0.10  -0.08    -0.04  -0.07  -0.09
     8   1     0.01  -0.07   0.17     0.02   0.09  -0.05    -0.02  -0.04  -0.17
     9   7     0.07  -0.23   0.34     0.01   0.10  -0.07    -0.03  -0.03  -0.12
    10   1     0.17  -0.30   0.33     0.01   0.12  -0.09    -0.05  -0.04  -0.09
    11   1    -0.05  -0.32   0.21     0.02   0.10  -0.04    -0.02  -0.02  -0.12
    12   6    -0.00   0.05  -0.07     0.04   0.02  -0.07     0.01   0.01  -0.02
    13   6    -0.01   0.03  -0.03     0.02   0.11  -0.16    -0.01  -0.02   0.05
    14   6     0.01  -0.00   0.01     0.05   0.03  -0.12     0.01  -0.02   0.13
    15   6     0.03  -0.00   0.02     0.10  -0.14   0.02     0.05  -0.00   0.15
    16   6     0.05  -0.01   0.01     0.13  -0.23   0.12     0.08   0.03   0.08
    17   6     0.04   0.01  -0.02     0.09  -0.14   0.07     0.06   0.04  -0.00
    18   1    -0.03   0.00  -0.03    -0.02   0.22  -0.26    -0.05  -0.03   0.03
    19   1     0.01  -0.02   0.03     0.03   0.10  -0.19    -0.02  -0.05   0.18
    20   1     0.03  -0.00   0.05     0.13  -0.20   0.05     0.07  -0.01   0.21
    21   1     0.07  -0.01   0.03     0.17  -0.36   0.23     0.12   0.05   0.09
    22   1     0.04   0.02  -0.04     0.12  -0.22   0.15     0.08   0.06  -0.05
    23   1    -0.01   0.03  -0.10     0.02   0.06  -0.07     0.02   0.02  -0.10
    24  35    -0.01   0.01  -0.01    -0.09   0.01   0.09     0.02   0.02  -0.08
    25   8    -0.01  -0.00   0.02    -0.04  -0.02   0.04    -0.06  -0.01   0.13
    26   6    -0.03   0.02   0.01    -0.03  -0.05   0.07    -0.12  -0.03   0.31
    27   1    -0.01   0.03   0.01    -0.09  -0.08   0.18    -0.15  -0.05   0.42
    28   1    -0.02   0.02   0.01    -0.06   0.04   0.02    -0.26  -0.02   0.29
    29   1    -0.03   0.02   0.01     0.05  -0.13   0.03     0.00  -0.05   0.37
                      4                      5                      6
                      A                      A                      A
 Frequencies --     66.7673                84.6562                97.4818
 Red. masses --      3.6126                 4.5079                 2.9939
 Frc consts  --      0.0095                 0.0190                 0.0168
 IR Inten    --      3.8053                 0.8959                11.8037
  Atom  AN      X      Y      Z        X      Y      Z        X      Y      Z
     1   6     0.03  -0.02  -0.09     0.02  -0.06  -0.03    -0.02  -0.01  -0.01
     2   6     0.02  -0.02  -0.06    -0.00  -0.00  -0.02    -0.03  -0.00   0.05
     3   8     0.03  -0.02  -0.09    -0.07   0.01  -0.02    -0.10  -0.02   0.19
     4   6     0.01  -0.02  -0.03     0.00  -0.08   0.00     0.00  -0.02  -0.06
     5   6    -0.12   0.32   0.05    -0.09   0.05  -0.01     0.08   0.13   0.01
     6   1    -0.17   0.36   0.06    -0.11   0.02  -0.02     0.17   0.01  -0.04
     7   1     0.03   0.43   0.01    -0.00   0.11   0.01     0.24   0.25   0.20
     8   1    -0.26   0.36   0.09    -0.16   0.10  -0.02    -0.16   0.28  -0.01
     9   7    -0.06   0.06   0.01    -0.05  -0.07  -0.01     0.07  -0.07  -0.14
    10   1     0.07   0.01  -0.03     0.01  -0.10  -0.02     0.28  -0.18  -0.15
    11   1    -0.20  -0.05   0.05    -0.12  -0.12  -0.00    -0.06  -0.19  -0.26
    12   6     0.02  -0.02  -0.00     0.00  -0.06   0.03    -0.00   0.01  -0.07
    13   6     0.04  -0.08   0.06    -0.10   0.08  -0.06    -0.03   0.00  -0.03
    14   6     0.03  -0.06   0.05    -0.15   0.22  -0.11    -0.01  -0.01   0.05
    15   6     0.00   0.03  -0.02    -0.08   0.19  -0.05     0.04  -0.02   0.08
    16   6    -0.02   0.09  -0.08     0.05   0.00   0.08     0.07   0.00   0.03
    17   6    -0.01   0.07  -0.07     0.08  -0.11   0.12     0.04   0.02  -0.04
    18   1     0.06  -0.13   0.10    -0.15   0.10  -0.11    -0.06  -0.00  -0.05
    19   1     0.05  -0.10   0.10    -0.24   0.34  -0.20    -0.03  -0.02   0.08
    20   1    -0.00   0.05  -0.02    -0.12   0.29  -0.09     0.06  -0.04   0.15
    21   1    -0.04   0.16  -0.14     0.11  -0.03   0.14     0.11  -0.00   0.06
    22   1    -0.03   0.12  -0.12     0.17  -0.23   0.20     0.07   0.03  -0.08
    23   1     0.02  -0.03  -0.00     0.01  -0.08  -0.01     0.00   0.01  -0.11
    24  35     0.01  -0.05   0.03     0.06  -0.07   0.00    -0.03  -0.01   0.01
    25   8    -0.00  -0.04   0.01     0.04   0.06   0.01     0.02   0.03  -0.09
    26   6    -0.02  -0.05   0.07    -0.01   0.14   0.06    -0.00   0.03  -0.05
    27   1    -0.05  -0.06   0.14     0.05   0.19   0.07     0.09   0.08  -0.29
    28   1    -0.07  -0.02   0.05    -0.08   0.11   0.07     0.02  -0.21   0.07
    29   1     0.04  -0.08   0.07    -0.04   0.18   0.09    -0.13   0.23   0.10
                      7                      8                      9
                      A                      A                      A
 Frequencies --    116.6077               122.5866               144.0063
 Red. masses --      1.5937                 3.3760                 2.5759
 Frc consts  --      0.0128                 0.0299                 0.0315
 IR Inten    --      6.6440                 7.8287                12.4587
  Atom  AN      X      Y      Z        X      Y      Z        X      Y      Z
     1   6    -0.02  -0.01   0.05    -0.01  -0.06  -0.04     0.01   0.02  -0.10
     2   6    -0.01  -0.00   0.04    -0.04  -0.02  -0.03    -0.03  -0.01   0.03
     3   8     0.01   0.00  -0.03    -0.10  -0.00  -0.07    -0.07  -0.03   0.20
     4   6    -0.01  -0.02   0.01     0.01  -0.02  -0.00    -0.00   0.03  -0.07
     5   6     0.04   0.05   0.04     0.15  -0.00   0.09    -0.07  -0.02  -0.09
     6   1     0.09  -0.03   0.01     0.20   0.18   0.14    -0.15   0.10  -0.04
     7   1     0.12   0.12   0.14    -0.02  -0.13  -0.07    -0.17  -0.10  -0.25
     8   1    -0.09   0.13   0.02     0.31  -0.19   0.21     0.08  -0.14  -0.05
     9   7     0.03  -0.06  -0.05     0.09   0.17   0.05    -0.06   0.08   0.01
    10   1     0.15  -0.12  -0.04    -0.06   0.32  -0.05    -0.20   0.17   0.00
    11   1    -0.04  -0.12  -0.12     0.24   0.29   0.16     0.02   0.15   0.12
    12   6    -0.01  -0.00  -0.01     0.00   0.01  -0.03     0.01   0.02  -0.03
    13   6    -0.02   0.00  -0.00    -0.00  -0.01   0.00     0.00   0.02  -0.03
    14   6    -0.02   0.00   0.01     0.01  -0.02   0.06     0.01   0.01  -0.01
    15   6    -0.01  -0.00   0.02     0.03  -0.01   0.06     0.03   0.01   0.00
    16   6     0.00  -0.00   0.02     0.03   0.03   0.01     0.03   0.01  -0.00
    17   6    -0.00  -0.00   0.00     0.02   0.04  -0.04     0.02   0.02  -0.02
    18   1    -0.04  -0.00  -0.01    -0.02  -0.01  -0.00     0.00   0.02  -0.03
    19   1    -0.03   0.01   0.02     0.00  -0.05   0.09     0.01   0.01  -0.00
    20   1    -0.01  -0.00   0.04     0.05  -0.03   0.11     0.03   0.00   0.02
    21   1     0.01  -0.01   0.03     0.05   0.05   0.01     0.04   0.00   0.01
    22   1     0.01  -0.01  -0.00     0.02   0.06  -0.07     0.03   0.02  -0.03
    23   1    -0.02   0.00  -0.02     0.03  -0.07   0.07     0.02  -0.00  -0.02
    24  35     0.00   0.01  -0.02    -0.03  -0.08  -0.02     0.03  -0.02   0.03
    25   8    -0.04  -0.02   0.12     0.01   0.06   0.02    -0.02  -0.01  -0.06
    26   6     0.02   0.02  -0.08    -0.04   0.20   0.01    -0.01  -0.04  -0.06
    27   1    -0.11  -0.05   0.33     0.02   0.26   0.13    -0.16  -0.13   0.34
    28   1     0.07   0.49  -0.30    -0.11   0.31  -0.06    -0.08   0.35  -0.26
    29   1     0.17  -0.37  -0.42    -0.07   0.15  -0.07     0.23  -0.37  -0.28
                     10                     11                     12
                      A                      A                      A
 Frequencies --    153.4763               164.5601               207.1866
 Red. masses --      4.0053                 2.9409                 1.8475
 Frc consts  --      0.0556                 0.0469                 0.0467
 IR Inten    --      0.4911                 5.1001                 1.4982
  Atom  AN      X      Y      Z        X      Y      Z        X      Y      Z
     1   6    -0.07   0.02  -0.01     0.03  -0.01  -0.03     0.04   0.02  -0.01
     2   6    -0.07   0.01  -0.01    -0.01  -0.03   0.09     0.03   0.02   0.01
     3   8    -0.00   0.01  -0.09    -0.02  -0.02   0.05     0.04   0.02   0.03
     4   6    -0.07   0.01  -0.06     0.03   0.01  -0.02     0.00  -0.05  -0.03
     5   6     0.08   0.02   0.05    -0.10   0.01  -0.10     0.02   0.01   0.03
     6   1     0.14   0.20   0.11    -0.18  -0.00  -0.10     0.00   0.52   0.20
     7   1    -0.02  -0.06  -0.08    -0.10   0.01  -0.13    -0.10  -0.10  -0.44
     8   1     0.15  -0.14   0.20    -0.04   0.02  -0.15     0.17  -0.36   0.38
     9   7     0.02   0.08  -0.04    -0.05   0.03   0.01    -0.01  -0.03  -0.06
    10   1    -0.01   0.15  -0.11    -0.12   0.05   0.04     0.00   0.01  -0.11
    11   1     0.08   0.13  -0.02    -0.04   0.04   0.08    -0.00  -0.02  -0.02
    12   6    -0.08   0.03  -0.07     0.04   0.01   0.00     0.01  -0.11  -0.02
    13   6    -0.11   0.03  -0.05     0.06   0.00  -0.00    -0.03  -0.10   0.01
    14   6    -0.09   0.02   0.03     0.06   0.00  -0.02    -0.06  -0.02   0.02
    15   6    -0.04  -0.02   0.08     0.05   0.01  -0.03    -0.03   0.05  -0.01
    16   6    -0.01  -0.01   0.05     0.04   0.01  -0.02     0.03   0.01  -0.01
    17   6    -0.04   0.02  -0.03     0.04   0.01  -0.01     0.05  -0.07  -0.02
    18   1    -0.14   0.04  -0.07     0.06   0.00  -0.00    -0.07  -0.14   0.01
    19   1    -0.12   0.01   0.05     0.06   0.00  -0.02    -0.10  -0.00   0.04
    20   1    -0.02  -0.04   0.15     0.04   0.01  -0.04    -0.05   0.13  -0.02
    21   1     0.03  -0.03   0.09     0.03   0.02  -0.03     0.06   0.06  -0.02
    22   1    -0.02   0.02  -0.05     0.04   0.01  -0.01     0.09  -0.09  -0.03
    23   1    -0.07   0.00  -0.04     0.05  -0.00  -0.00    -0.06  -0.02  -0.05
    24  35     0.11   0.00   0.03    -0.02  -0.02  -0.01    -0.03   0.04   0.00
    25   8    -0.15  -0.06   0.07    -0.05  -0.03   0.25     0.03   0.01   0.02
    26   6    -0.05  -0.15  -0.09     0.06   0.07  -0.11     0.04  -0.00   0.00
    27   1    -0.01  -0.15  -0.48     0.22   0.16  -0.53     0.03  -0.01  -0.01
    28   1     0.18  -0.41   0.07     0.37  -0.14   0.03     0.07  -0.01   0.01
    29   1    -0.24   0.04   0.00    -0.33   0.27  -0.13     0.04  -0.01   0.00
                     13                     14                     15
                      A                      A                      A
 Frequencies --    244.7369               265.0849               319.7604
 Red. masses --      2.0325                 4.6727                 4.6236
 Frc consts  --      0.0717                 0.1935                 0.2785
 IR Inten    --      5.6689                14.5367                20.9889
  Atom  AN      X      Y      Z        X      Y      Z        X      Y      Z
     1   6     0.03   0.03  -0.09    -0.07   0.00  -0.05    -0.03  -0.04   0.21
     2   6    -0.01   0.03  -0.01    -0.12   0.04  -0.04    -0.03   0.15   0.06
     3   8    -0.02   0.02   0.01    -0.15   0.04  -0.04    -0.14   0.19  -0.05
     4   6    -0.01  -0.01  -0.05    -0.01   0.03   0.01     0.01  -0.05   0.09
     5   6     0.04  -0.03   0.04     0.05  -0.02   0.08    -0.04   0.03  -0.06
     6   1     0.12  -0.50  -0.13     0.16   0.16   0.14    -0.18   0.06  -0.04
     7   1     0.08   0.03   0.50     0.01  -0.05  -0.01    -0.01   0.04  -0.18
     8   1    -0.09   0.29  -0.26     0.02  -0.15   0.26     0.03   0.02  -0.09
     9   7     0.01   0.09   0.06    -0.01  -0.05  -0.08     0.03  -0.01   0.09
    10   1    -0.07   0.16   0.03     0.09  -0.11  -0.08    -0.03   0.02   0.10
    11   1     0.09   0.15   0.10    -0.04  -0.08  -0.19     0.02  -0.01   0.17
    12   6     0.02  -0.11  -0.03     0.08   0.01   0.13     0.02  -0.04  -0.05
    13   6    -0.02  -0.12   0.02     0.19  -0.04   0.13     0.00  -0.01  -0.07
    14   6    -0.05  -0.03   0.03     0.17   0.00  -0.02     0.01   0.01  -0.02
    15   6    -0.03   0.07  -0.02     0.07   0.10  -0.14     0.07  -0.00   0.03
    16   6     0.04   0.01  -0.01     0.05   0.01   0.01     0.08   0.03  -0.02
    17   6     0.07  -0.09  -0.01     0.09  -0.04   0.16     0.06   0.02  -0.07
    18   1    -0.05  -0.17   0.02     0.28  -0.03   0.18    -0.02  -0.01  -0.09
    19   1    -0.10  -0.01   0.05     0.20   0.01  -0.05    -0.03   0.02   0.00
    20   1    -0.06   0.17  -0.04     0.01   0.20  -0.30     0.09  -0.02   0.09
    21   1     0.08   0.07  -0.02    -0.03  -0.00  -0.03     0.10   0.05  -0.01
    22   1     0.12  -0.12  -0.03     0.09  -0.08   0.22     0.09   0.03  -0.12
    23   1    -0.06  -0.04   0.04     0.06   0.05  -0.07    -0.03  -0.05   0.10
    24  35    -0.01   0.02   0.01     0.01  -0.00  -0.00    -0.02  -0.05  -0.02
    25   8    -0.02   0.01   0.01    -0.17   0.01  -0.04    -0.02   0.17  -0.01
    26   6     0.00  -0.04  -0.02    -0.14  -0.06  -0.06     0.11  -0.19   0.02
    27   1    -0.02  -0.06  -0.04    -0.18  -0.10  -0.09    -0.14  -0.41  -0.04
    28   1     0.05  -0.04  -0.01    -0.10  -0.07  -0.05     0.26  -0.25   0.07
    29   1     0.01  -0.05  -0.02    -0.12  -0.08  -0.06     0.35  -0.27   0.08
                     16                     17                     18
                      A                      A                      A
 Frequencies --    324.2487               327.4112               415.5968
 Red. masses --      4.1535                 4.1063                 8.5457
 Frc consts  --      0.2573                 0.2593                 0.8696
 IR Inten    --      9.8403                20.2020                20.1553
  Atom  AN      X      Y      Z        X      Y      Z        X      Y      Z
     1   6    -0.10  -0.07   0.23    -0.05  -0.04   0.10    -0.10   0.14   0.25
     2   6    -0.07  -0.11   0.02    -0.01  -0.05   0.01     0.01   0.17   0.10
     3   8    -0.03  -0.10  -0.05     0.01  -0.06  -0.03     0.43   0.12   0.12
     4   6     0.00  -0.01   0.05    -0.02  -0.07   0.07    -0.07   0.13  -0.08
     5   6     0.01   0.09  -0.20    -0.13  -0.09   0.22    -0.02   0.00   0.01
     6   1    -0.30   0.12  -0.17     0.14  -0.11   0.19     0.04  -0.04  -0.01
     7   1     0.08   0.13  -0.41    -0.17  -0.11   0.38    -0.05  -0.01   0.09
     8   1     0.13   0.11  -0.30    -0.21  -0.10   0.29    -0.04   0.02  -0.00
     9   7     0.13   0.01   0.10    -0.18  -0.02  -0.01    -0.05   0.05  -0.03
    10   1     0.07   0.01   0.15    -0.21   0.03  -0.06    -0.08   0.08  -0.05
    11   1     0.10  -0.01   0.15    -0.15   0.01   0.08    -0.02   0.08  -0.03
    12   6     0.01  -0.05  -0.05     0.02  -0.05  -0.07    -0.04   0.04  -0.09
    13   6     0.01  -0.08  -0.01     0.02   0.02  -0.14    -0.01  -0.02  -0.04
    14   6    -0.01  -0.02   0.01     0.05   0.03  -0.06     0.04  -0.10   0.08
    15   6     0.02   0.05  -0.01     0.16  -0.01   0.04    -0.01   0.08  -0.06
    16   6     0.06   0.01  -0.00     0.14   0.06  -0.04     0.03   0.03  -0.02
    17   6     0.06  -0.06  -0.02     0.10   0.06  -0.12     0.07  -0.10   0.06
    18   1    -0.01  -0.12   0.00    -0.00   0.05  -0.18    -0.01  -0.02  -0.05
    19   1    -0.04  -0.02   0.04    -0.02   0.05  -0.03     0.07  -0.21   0.20
    20   1    -0.00   0.12  -0.03     0.20  -0.07   0.15    -0.04   0.18  -0.12
    21   1     0.09   0.03   0.00     0.15   0.08  -0.04     0.04   0.05  -0.03
    22   1     0.12  -0.09  -0.03     0.15   0.09  -0.21     0.16  -0.23   0.15
    23   1    -0.03  -0.03   0.11    -0.04  -0.04   0.01    -0.15   0.17  -0.11
    24  35     0.02   0.06   0.01     0.01   0.04   0.01    -0.01  -0.12  -0.03
    25   8    -0.04  -0.10  -0.07    -0.01  -0.05  -0.03    -0.11   0.04  -0.06
    26   6    -0.14   0.06  -0.02    -0.06   0.05  -0.01    -0.16   0.09  -0.04
    27   1    -0.02   0.17   0.05     0.00   0.10   0.03    -0.12   0.13  -0.02
    28   1    -0.27   0.09  -0.05    -0.14   0.06  -0.02    -0.23   0.09  -0.05
    29   1    -0.20   0.10  -0.02    -0.11   0.07  -0.01    -0.20   0.12  -0.01
                     19                     20                     21
                      A                      A                      A
 Frequencies --    425.3311               457.9431               570.7463
 Red. masses --      3.0247                 4.5934                 2.7413
 Frc consts  --      0.3224                 0.5675                 0.5261
 IR Inten    --      2.1157                26.9729               126.1922
  Atom  AN      X      Y      Z        X      Y      Z        X      Y      Z
     1   6    -0.01  -0.03   0.00     0.13   0.02  -0.18     0.02   0.03  -0.12
     2   6    -0.00  -0.04  -0.00     0.01   0.10  -0.06     0.02   0.00  -0.05
     3   8    -0.07  -0.03  -0.03     0.09   0.08   0.06    -0.02  -0.01   0.01
     4   6     0.01  -0.01  -0.01     0.06  -0.10   0.19    -0.02   0.04   0.22
     5   6    -0.01  -0.00   0.00     0.03  -0.00  -0.03    -0.02  -0.03   0.01
     6   1     0.01  -0.00   0.00    -0.11   0.03  -0.02    -0.03   0.01   0.02
     7   1    -0.01  -0.00   0.01     0.08   0.03  -0.16    -0.06  -0.05  -0.06
     8   1    -0.01  -0.00   0.01     0.08   0.00  -0.07     0.06  -0.07   0.01
     9   7    -0.01  -0.00  -0.01     0.09  -0.06   0.09     0.01   0.01   0.05
    10   1    -0.02   0.02  -0.04     0.17  -0.18   0.19     0.23  -0.31   0.31
    11   1     0.00   0.01   0.02     0.00  -0.14  -0.04    -0.16  -0.15  -0.32
    12   6    -0.01   0.02  -0.01     0.07  -0.14   0.11    -0.08   0.10  -0.14
    13   6    -0.07   0.16  -0.13    -0.04   0.06  -0.08    -0.01  -0.02  -0.09
    14   6     0.06  -0.14   0.13    -0.03   0.04  -0.03     0.03  -0.07   0.05
    15   6    -0.01  -0.00  -0.00     0.05  -0.10   0.10    -0.01   0.11  -0.07
    16   6    -0.07   0.13  -0.12    -0.04   0.09  -0.08     0.04  -0.04   0.07
    17   6     0.06  -0.14   0.14     0.00  -0.01  -0.02    -0.01   0.00  -0.05
    18   1    -0.14   0.31  -0.28    -0.12   0.18  -0.21     0.04  -0.17   0.05
    19   1     0.15  -0.32   0.29    -0.07   0.11  -0.09     0.06  -0.25   0.27
    20   1    -0.01  -0.01  -0.00     0.10  -0.21   0.21    -0.01   0.13  -0.08
    21   1    -0.15   0.29  -0.27    -0.09   0.24  -0.21     0.15  -0.21   0.24
    22   1     0.15  -0.33   0.31    -0.03   0.06  -0.08     0.10  -0.15   0.04
    23   1     0.03  -0.01  -0.02     0.02  -0.11   0.22    -0.03   0.02   0.27
    24  35     0.00   0.02   0.00    -0.01  -0.00   0.00     0.00  -0.00   0.00
    25   8     0.04  -0.00   0.01    -0.15   0.00  -0.01    -0.00  -0.00   0.02
    26   6     0.05  -0.01   0.01    -0.18   0.01  -0.06     0.01   0.00   0.00
    27   1     0.03  -0.02   0.01    -0.14   0.04  -0.07     0.01  -0.00  -0.00
    28   1     0.05  -0.02   0.02    -0.18   0.03  -0.07     0.02   0.00   0.00
    29   1     0.06  -0.02   0.01    -0.24   0.03  -0.08    -0.00  -0.00  -0.01
                     22                     23                     24
                      A                      A                      A
 Frequencies --    605.0362               628.3124               638.5974
 Red. masses --      2.8773                 5.7982                 5.2385
 Frc consts  --      0.6206                 1.3486                 1.2587
 IR Inten    --     23.0176                28.7695                 1.2019
  Atom  AN      X      Y      Z        X      Y      Z        X      Y      Z
     1   6    -0.10   0.12   0.00    -0.07  -0.01  -0.09     0.03  -0.05  -0.00
     2   6    -0.02  -0.04  -0.00    -0.03   0.01  -0.04     0.00   0.01   0.00
     3   8    -0.03  -0.04  -0.02     0.09  -0.03   0.03     0.02   0.01   0.01
     4   6    -0.10   0.21   0.02    -0.24  -0.18  -0.04     0.00  -0.10  -0.06
     5   6     0.02  -0.00  -0.01     0.05   0.02  -0.05    -0.00   0.01  -0.00
     6   1     0.01  -0.01  -0.01    -0.11  -0.01  -0.05    -0.02   0.01  -0.00
     7   1    -0.06  -0.06  -0.04     0.13   0.08  -0.10     0.07   0.05   0.01
     8   1     0.11  -0.04  -0.03     0.04   0.09  -0.12    -0.07   0.04   0.00
     9   7    -0.02   0.07   0.00     0.05  -0.03   0.03     0.01  -0.05  -0.01
    10   1     0.24  -0.26   0.23    -0.02   0.14  -0.15    -0.16   0.19  -0.20
    11   1    -0.17  -0.07  -0.47     0.15   0.05   0.12     0.13   0.06   0.28
    12   6     0.01  -0.12   0.05    -0.26  -0.05   0.09    -0.01  -0.06  -0.09
    13   6     0.05  -0.08  -0.05    -0.03  -0.08  -0.08     0.19  -0.05  -0.18
    14   6     0.01   0.07  -0.03     0.01  -0.12  -0.15     0.22   0.18   0.11
    15   6     0.07  -0.04   0.08     0.27   0.05  -0.08    -0.00   0.09   0.07
    16   6    -0.04   0.09  -0.00     0.01   0.12   0.11    -0.22   0.08   0.22
    17   6    -0.01  -0.08   0.01    -0.01   0.16   0.19    -0.21  -0.14  -0.08
    18   1    -0.04   0.01  -0.16     0.21   0.07  -0.01     0.10  -0.13  -0.19
    19   1    -0.13   0.24  -0.14    -0.16  -0.10  -0.03     0.13   0.16   0.22
    20   1     0.06  -0.06   0.03     0.27   0.05  -0.06     0.00  -0.17  -0.21
    21   1    -0.10   0.28  -0.16    -0.24  -0.05   0.05    -0.10   0.10   0.28
    22   1    -0.01   0.03  -0.14     0.14   0.13   0.09    -0.08  -0.18  -0.13
    23   1    -0.21   0.21   0.08    -0.27  -0.19   0.00     0.01  -0.09  -0.07
    24  35     0.01  -0.02  -0.00    -0.00   0.01   0.00    -0.00   0.01   0.00
    25   8     0.05  -0.02   0.01     0.03   0.04   0.02    -0.01   0.01  -0.00
    26   6     0.07   0.01   0.02     0.07   0.01   0.03    -0.01  -0.00  -0.00
    27   1     0.07   0.01   0.03     0.02  -0.03  -0.00    -0.02  -0.00  -0.01
    28   1     0.07   0.01   0.02     0.12  -0.00   0.04    -0.01  -0.00  -0.00
    29   1     0.07   0.00   0.02     0.11  -0.00   0.03    -0.01  -0.00  -0.00
                     25                     26                     27
                      A                      A                      A
 Frequencies --    729.9318               756.8266               777.7643
 Red. masses --      1.5670                 5.0417                 6.9024
 Frc consts  --      0.4919                 1.7015                 2.4601
 IR Inten    --     55.9374                12.9606                31.7503
  Atom  AN      X      Y      Z        X      Y      Z        X      Y      Z
     1   6     0.00   0.01   0.00    -0.17  -0.18  -0.10     0.12  -0.02  -0.14
     2   6     0.00  -0.00   0.00    -0.18  -0.07  -0.02    -0.16  -0.06   0.61
     3   8    -0.00   0.00  -0.00     0.18  -0.17   0.02     0.04   0.06  -0.17
     4   6    -0.01   0.01   0.00    -0.03  -0.08  -0.01     0.04  -0.07  -0.05
     5   6     0.00   0.00  -0.00    -0.00  -0.00   0.00     0.00   0.01  -0.01
     6   1    -0.01  -0.00  -0.00    -0.03  -0.04  -0.01     0.05  -0.04  -0.03
     7   1     0.01   0.00  -0.01    -0.06  -0.05  -0.02    -0.16  -0.11   0.03
     8   1     0.00   0.00  -0.01     0.09  -0.02  -0.04     0.15  -0.07  -0.02
     9   7     0.00  -0.00   0.00     0.00   0.04   0.03    -0.03   0.08   0.00
    10   1     0.01   0.01  -0.02     0.18  -0.15   0.14     0.25  -0.20   0.16
    11   1     0.01   0.00   0.00    -0.13  -0.07  -0.20    -0.24  -0.10  -0.31
    12   6     0.03  -0.06   0.06     0.04   0.03  -0.03     0.00  -0.03   0.03
    13   6    -0.02   0.05  -0.04     0.04   0.04   0.06    -0.02   0.01  -0.03
    14   6     0.04  -0.09   0.08     0.04   0.06   0.05    -0.00  -0.02  -0.02
    15   6    -0.01   0.04  -0.03    -0.06  -0.04   0.03     0.02   0.03  -0.03
    16   6     0.04  -0.09   0.08     0.03  -0.04  -0.06    -0.03   0.01   0.04
    17   6    -0.02   0.04  -0.03     0.03  -0.05  -0.04    -0.02   0.04   0.02
    18   1    -0.17   0.34  -0.32    -0.04   0.06  -0.00     0.02  -0.02   0.01
    19   1    -0.06   0.13  -0.13     0.09   0.15  -0.10     0.02  -0.11   0.09
    20   1    -0.19   0.42  -0.38    -0.11   0.05  -0.06     0.06  -0.08   0.04
    21   1    -0.07   0.15  -0.14     0.08   0.10  -0.12    -0.03  -0.10   0.11
    22   1    -0.17   0.36  -0.32    -0.03  -0.01  -0.05    -0.01   0.02   0.03
    23   1    -0.02   0.01   0.00     0.12  -0.17   0.09     0.03  -0.13   0.06
    24  35     0.00  -0.00   0.00     0.00   0.02   0.01    -0.00   0.00  -0.00
    25   8     0.00  -0.01  -0.00    -0.06   0.28   0.01     0.05  -0.01  -0.13
    26   6     0.00  -0.00  -0.00     0.06   0.04   0.02    -0.02  -0.01  -0.02
    27   1     0.01   0.00   0.00    -0.28  -0.26  -0.13     0.01   0.03   0.07
    28   1    -0.00   0.00  -0.00     0.29  -0.08   0.11    -0.17  -0.03  -0.03
    29   1    -0.00   0.00  -0.00     0.34  -0.06   0.09     0.02   0.03   0.05
                     28                     29                     30
                      A                      A                      A
 Frequencies --    800.2176               819.9455               864.1990
 Red. masses --      2.1580                 2.0859                 4.1250
 Frc consts  --      0.8142                 0.8263                 1.8151
 IR Inten    --      4.1761                27.1282                15.5966
  Atom  AN      X      Y      Z        X      Y      Z        X      Y      Z
     1   6     0.04  -0.02  -0.03     0.04  -0.11   0.10     0.06  -0.06   0.04
     2   6     0.01   0.00   0.05     0.07   0.04  -0.08     0.00  -0.07  -0.01
     3   8    -0.00   0.02  -0.01    -0.01   0.04   0.03     0.01  -0.10  -0.01
     4   6     0.03  -0.00   0.05     0.05  -0.10  -0.12     0.25   0.19   0.01
     5   6    -0.02  -0.01   0.01    -0.01   0.01   0.01    -0.03  -0.01   0.00
     6   1     0.01   0.02   0.02     0.08  -0.12  -0.04     0.13   0.05   0.01
     7   1     0.02   0.02   0.01    -0.29  -0.19   0.06    -0.00   0.01   0.09
     8   1    -0.06  -0.01   0.04     0.25  -0.08  -0.06    -0.12  -0.04   0.11
     9   7     0.01  -0.02  -0.00    -0.03   0.13   0.02     0.00  -0.01  -0.04
    10   1    -0.07   0.03  -0.01     0.40  -0.28   0.22    -0.15   0.00   0.06
    11   1     0.05   0.01   0.10    -0.38  -0.17  -0.39     0.04   0.02   0.16
    12   6    -0.08   0.16  -0.15    -0.01   0.01  -0.02     0.06  -0.02   0.03
    13   6     0.02  -0.09   0.05    -0.00  -0.01  -0.00    -0.05  -0.10  -0.10
    14   6    -0.01  -0.01  -0.02     0.00  -0.02  -0.01    -0.11  -0.14  -0.10
    15   6     0.06  -0.09   0.08     0.03  -0.01  -0.00     0.08   0.05  -0.03
    16   6    -0.01   0.02   0.01    -0.03   0.02   0.04    -0.09   0.07   0.13
    17   6     0.02  -0.06   0.06    -0.02   0.01   0.04    -0.05   0.03   0.06
    18   1    -0.01  -0.01  -0.02     0.01  -0.02   0.01    -0.07  -0.09  -0.13
    19   1    -0.23   0.39  -0.36    -0.04   0.03  -0.04    -0.29  -0.18   0.09
    20   1    -0.14   0.34  -0.30    -0.00   0.03  -0.09     0.12  -0.02   0.08
    21   1    -0.20   0.38  -0.33    -0.11   0.04  -0.02    -0.21  -0.06   0.14
    22   1     0.02  -0.03   0.02    -0.01   0.03   0.01    -0.04   0.09  -0.02
    23   1     0.10  -0.01   0.04     0.10  -0.16  -0.03     0.44   0.21  -0.10
    24  35    -0.00   0.00   0.00    -0.00   0.01   0.00     0.00   0.00   0.00
    25   8     0.00  -0.01  -0.01    -0.01  -0.02   0.02    -0.05   0.15   0.01
    26   6    -0.01  -0.00  -0.01    -0.03  -0.01  -0.01    -0.06   0.00  -0.02
    27   1     0.01   0.01   0.01     0.02   0.03  -0.00    -0.25  -0.15  -0.10
    28   1    -0.04   0.00  -0.01    -0.04   0.01  -0.02     0.06  -0.06   0.03
    29   1    -0.02   0.00  -0.00    -0.08  -0.00  -0.03     0.08  -0.05   0.01
                     31                     32                     33
                      A                      A                      A
 Frequencies --    877.3804               958.9891              1006.6737
 Red. masses --      1.2437                 1.4451                 3.4252
 Frc consts  --      0.5641                 0.7830                 2.0451
 IR Inten    --      0.6731                 1.4340                 3.5336
  Atom  AN      X      Y      Z        X      Y      Z        X      Y      Z
     1   6    -0.00   0.00  -0.00     0.01   0.03   0.01     0.16   0.20   0.06
     2   6    -0.00   0.00   0.00     0.01  -0.01   0.00     0.16  -0.10   0.04
     3   8     0.00   0.00  -0.00    -0.00  -0.02  -0.00    -0.05  -0.14  -0.03
     4   6    -0.00  -0.00   0.00     0.00   0.01  -0.02    -0.05  -0.06  -0.00
     5   6     0.00   0.00  -0.00     0.01   0.00  -0.01    -0.00   0.04   0.01
     6   1     0.01   0.01   0.00     0.02   0.00  -0.01    -0.05  -0.15  -0.05
     7   1     0.01   0.01   0.00     0.01   0.00   0.00    -0.23  -0.13   0.01
     8   1    -0.01   0.00   0.01     0.01   0.00  -0.00     0.28  -0.02  -0.11
     9   7     0.00  -0.00  -0.00    -0.01   0.00  -0.00     0.01  -0.01   0.01
    10   1    -0.03   0.00   0.01    -0.02  -0.00   0.01     0.21   0.09  -0.28
    11   1     0.01   0.01   0.01    -0.00   0.01   0.00    -0.15  -0.13   0.16
    12   6    -0.00   0.01  -0.00     0.02  -0.06   0.05    -0.07   0.01  -0.03
    13   6    -0.02   0.05  -0.05    -0.03   0.07  -0.07     0.01  -0.00   0.04
    14   6    -0.02   0.05  -0.04     0.00  -0.01   0.01     0.03   0.05   0.03
    15   6    -0.00  -0.00   0.00     0.02  -0.07   0.06    -0.01   0.00  -0.02
    16   6     0.02  -0.05   0.04     0.00  -0.01   0.01     0.02  -0.02  -0.03
    17   6     0.03  -0.06   0.05    -0.03   0.08  -0.06     0.01  -0.00   0.02
    18   1     0.19  -0.34   0.34     0.22  -0.38   0.38    -0.01   0.12  -0.05
    19   1     0.16  -0.33   0.30    -0.02   0.04  -0.04     0.08   0.03   0.01
    20   1    -0.01   0.01   0.00    -0.19   0.39  -0.35     0.03  -0.10   0.03
    21   1    -0.15   0.34  -0.31    -0.01   0.03  -0.03    -0.01   0.02  -0.08
    22   1    -0.17   0.35  -0.32     0.19  -0.38   0.35    -0.01   0.05  -0.03
    23   1     0.00  -0.01   0.01    -0.05   0.02  -0.02    -0.38   0.07  -0.09
    24  35    -0.00   0.00  -0.00    -0.00  -0.00  -0.00    -0.00  -0.01  -0.00
    25   8    -0.00  -0.00  -0.00    -0.00   0.02   0.00     0.02   0.15   0.03
    26   6     0.00   0.00   0.00    -0.01   0.00  -0.00    -0.16  -0.02  -0.06
    27   1     0.00   0.00   0.00    -0.04  -0.02  -0.02    -0.36  -0.19  -0.15
    28   1    -0.00   0.00   0.00     0.01  -0.01   0.00    -0.02  -0.10   0.00
    29   1     0.00   0.00   0.00     0.01  -0.01   0.00     0.00  -0.08  -0.03
                     34                     35                     36
                      A                      A                      A
 Frequencies --   1016.7508              1020.4381              1034.2679
 Red. masses --      1.5395                 3.7978                 1.2561
 Frc consts  --      0.9377                 2.3300                 0.7917
 IR Inten    --      0.5320                 1.6524                13.7179
  Atom  AN      X      Y      Z        X      Y      Z        X      Y      Z
     1   6     0.01   0.00   0.00    -0.02  -0.01  -0.01    -0.04   0.02  -0.03
     2   6     0.01  -0.00   0.00    -0.02   0.01  -0.00    -0.05   0.01  -0.01
     3   8    -0.00  -0.00  -0.00     0.00   0.01   0.00     0.01   0.01   0.00
     4   6    -0.00  -0.00  -0.00     0.01   0.02   0.01     0.01   0.02   0.04
     5   6     0.00  -0.00  -0.01    -0.01   0.01   0.01    -0.00   0.07  -0.01
     6   1     0.03   0.02   0.00     0.01  -0.05  -0.02     0.16  -0.17  -0.10
     7   1     0.02   0.01   0.01    -0.10  -0.06   0.02    -0.37  -0.20   0.11
     8   1    -0.03  -0.00   0.02     0.10  -0.02  -0.03     0.37  -0.09  -0.07
     9   7    -0.00   0.00  -0.00     0.01  -0.01  -0.00     0.01  -0.04  -0.00
    10   1    -0.04  -0.02   0.05     0.08   0.03  -0.09     0.19   0.07  -0.27
    11   1     0.01   0.01  -0.01    -0.07  -0.07   0.11    -0.27  -0.26   0.51
    12   6    -0.01   0.00   0.00    -0.02  -0.01   0.01     0.01   0.00   0.01
    13   6     0.01   0.02  -0.11     0.13  -0.19  -0.20    -0.00   0.01   0.00
[...]
 5234,0.00083392,0.00172046,0.00011890,-0.00002778,-0.00003415,-0.00032
 708,0.00001502,-0.00002520,0.00001742,-0.00004700,-0.00005710,0.000068
 50,-0.00001934,0.00001539,-0.00024141,-0.00049095,-0.00102211,0.068260
 55,-0.00084450,-0.01884524,-0.00636925,0.00149387,-0.00447716,0.000479
 33,0.00326678,0.00248514,-0.00031798,0.05200960,-0.26798044,-0.1107358
 8,-0.00114058,0.00063620,-0.00021419,0.00003844,-0.00012355,-0.0000330
 2,0.00010791,0.00000955,0.00002608,-0.00002893,-0.00036242,-0.00018532
 ,-0.00180696,0.00681893,0.00878203,0.00034443,-0.00044813,0.00233550,-
 0.00011936,0.00036340,-0.00029224,0.00050896,-0.00356726,-0.00213309,0
 .00070032,0.00041377,0.00026504,-0.00039767,-0.00007589,-0.00043800,-0
 .00008874,0.00029244,0.00025465,0.00031723,0.00022945,0.00001205,-0.00
 198404,0.00063387,-0.00068478,-0.00009811,-0.00003576,0.00006921,0.000
 04200,-0.00004305,0.00005983,-0.00002908,-0.00000998,0.00006219,0.0000
 1249,-0.00003895,0.00000635,0.00015582,0.00020448,0.00058068,-0.050265
 66,0.28527611,0.00291291,0.00317261,0.00404415,-0.00145450,0.00329502,
 -0.00064670,0.00095576,-0.00155762,-0.00201124,0.01906354,-0.10914408,
 -0.08998094,0.00189958,-0.00094678,0.00030178,-0.00044521,0.00037161,0
 .00015332,-0.00009832,-0.00004224,-0.00004197,-0.00067531,0.00048223,-
 0.00021676,0.00617697,-0.01540149,-0.02592449,-0.00049331,0.00254040,-
 0.00386799,0.00026807,-0.00051372,0.00010295,0.00012922,0.00454574,0.0
 0385898,-0.00176425,-0.00012412,0.00028983,-0.00005054,0.00017854,0.00
 037449,-0.00008334,0.00004549,0.00002000,0.00021731,0.00008987,-0.0003
 3688,-0.00214811,0.00165891,0.00016612,0.00005131,0.00016253,-0.000047
 12,-0.00009221,0.00006029,-0.00004753,-0.00002485,-0.00005208,0.000030
 50,-0.00001147,-0.00000895,-0.00001285,-0.00029791,-0.00026339,0.00005
 890,-0.02591613,0.11033987,0.11104804,-0.02838130,0.00288139,0.0084314
 2,0.00325009,0.01666923,0.00124090,-0.00310443,0.00273546,0.00260801,0
 .00184880,-0.01610682,-0.00399667,-0.00016002,-0.00007070,0.00017860,-
 0.00001225,-0.00001225,-0.00001553,0.00000521,0.00009202,-0.00003490,-
 0.00006237,-0.00008405,0.00002988,0.00071170,0.00135169,-0.00125128,-0
 .00000749,0.00009227,0.00005896,0.00003885,0.00017243,-0.00040583,-0.0
 0000683,-0.00152059,-0.00052400,-0.00398889,-0.00114259,0.00171734,-0.
 00004233,-0.00066596,-0.00004777,0.00016701,0.00006244,-0.00030229,-0.
 00036911,0.00001257,-0.00014654,0.00037512,0.00025377,0.00017711,-0.00
 267902,-0.00181963,-0.00034151,-0.00001960,-0.00005601,0.00008468,-0.0
 0004391,0.00001321,-0.00008169,-0.00000153,-0.00000952,-0.00000708,0.0
 0001313,-0.00002200,0.00003808,-0.00227093,-0.00207615,0.00124109,0.03
 796017,0.00769018,-0.13892138,-0.03107021,-0.01223668,-0.02466372,-0.0
 0201435,0.00671084,-0.00410906,-0.00301209,0.00680183,-0.02731845,-0.0
 1339139,-0.00031470,0.00021853,-0.00053731,0.00015764,0.00002198,0.000
 15022,0.00031687,-0.00053285,0.00018667,0.00010795,0.00034370,-0.00017
 583,-0.00027633,0.00073585,0.00325733,-0.00015568,-0.00062762,0.000420
 19,0.00011423,0.00046840,-0.00030354,0.00229200,0.00008565,0.00149718,
 -0.00165128,0.00037841,-0.00002498,-0.00072790,0.00004415,-0.00029090,
 -0.00009530,0.00049608,0.00040860,0.00049636,-0.00033148,-0.00012103,-
 0.00067720,0.00018168,-0.00052581,-0.00081277,-0.00067809,0.00025117,-
 0.00012780,0.00002521,0.00001759,-0.00004476,0.00001869,-0.00000129,-0
 .00005000,-0.00002994,-0.00000795,0.00015332,0.00003380,0.00018889,-0.
 00339781,-0.00177327,0.00108102,-0.00614260,0.19400860,0.00831451,-0.0
 2934835,-0.01348605,-0.00589790,-0.00904864,-0.00442325,0.00338693,-0.
 00254544,0.00291930,0.00099876,-0.00031007,-0.00496734,-0.00055497,-0.
 00021553,0.00028225,0.00005161,-0.00000985,0.00002185,0.00008025,0.000
 09143,-0.00029700,-0.00001177,-0.00003391,-0.00006506,-0.00017241,0.00
 037897,0.00209698,-0.00008058,-0.00051104,0.00063779,0.00006936,-0.000
 19282,-0.00006553,0.00112433,-0.00054532,-0.00057409,0.00088238,0.0000
 2363,-0.00076676,-0.00001169,0.00015220,0.00038865,0.00008405,-0.00007
 288,0.00007684,0.00001832,0.00000783,-0.00001307,-0.00008801,0.0001014
 0,-0.00009179,0.00096292,0.00075457,0.00024445,-0.00000402,0.00002468,
 -0.00003759,0.00001905,0.00002087,0.00002892,-0.00000473,0.00000572,0.
 00000319,0.00001020,0.00004120,0.00006285,-0.00029759,-0.00159143,0.00
 252223,-0.01036418,0.04408277,0.01772726,-0.06567227,-0.03307101,0.017
 81567,-0.19251720,-0.07958578,0.03096939,0.00767990,-0.04107144,0.0008
 3178,0.00675570,0.01625603,-0.00972399,-0.00255689,-0.00002068,-0.0001
 0558,0.00032972,-0.00008319,0.00041397,-0.00022323,0.00020405,-0.00056
 118,0.00015341,0.00038872,-0.00063141,-0.00336423,-0.00597796,0.010697
 00,0.00043822,-0.00042327,-0.00013948,0.00047528,-0.00007417,0.0013498
 8,0.00126953,-0.00180582,0.00205087,-0.00074315,-0.00023119,-0.0002436
 0,-0.00009724,0.00003552,-0.00034935,-0.00057674,0.00032058,0.00009808
 ,0.00032603,-0.00004079,-0.00012933,-0.00115820,0.00052060,0.00006829,
 0.00024270,-0.00020708,-0.00005399,-0.00018353,0.00012674,0.00003484,-
 0.00013924,0.00001492,-0.00001802,-0.00018875,-0.00003855,-0.00011789,
 0.00019338,-0.00003966,0.00015454,0.00167584,-0.00005151,0.00067027,-0
 .00374396,0.00225194,0.00191913,0.51272454,-0.01228259,0.00794843,0.00
 144536,-0.04398656,-0.17493778,-0.00025473,-0.05218067,-0.08378595,0.0
 0337949,0.00681662,0.00450154,-0.00586723,-0.00075304,-0.00056316,-0.0
 0005165,0.00005998,0.00014480,0.00026604,-0.00008623,0.00002978,-0.000
 18511,0.00018187,0.00051315,-0.00062851,-0.00113522,-0.00188580,0.0041
 1005,0.00009096,-0.00033419,0.00006470,0.00022369,-0.00004052,0.000401
 91,0.00076693,0.00036354,0.00090964,-0.00016501,-0.00012161,-0.0003024
 0,-0.00014966,0.00010265,-0.00010865,-0.00018731,0.00016788,0.00011037
 ,0.00020803,-0.00000753,0.00003494,-0.00027181,-0.00000522,-0.00007588
 ,-0.00001577,-0.00008635,0.00015695,-0.00007742,0.00004445,0.00000908,
 -0.00004541,0.00000484,0.00001021,-0.00004542,-0.00002725,-0.00002566,
 0.00008702,0.00001445,0.00009351,0.00169763,0.00036407,-0.00000504,0.0
 0511164,0.00160384,-0.00125779,0.03536534,0.36538559,0.02187689,0.0103
 4145,0.00611337,0.03793094,0.01172615,-0.07618160,-0.00111215,-0.00041
 790,0.02672442,0.00064422,-0.00480712,0.00455458,0.00009340,-0.0004204
 3,0.00027717,-0.00018753,0.00009990,-0.00004886,-0.00009916,-0.0002069
 5,0.00030430,0.00001636,0.00006487,-0.00012311,0.00053288,0.00082903,-
 0.00217717,-0.00013577,0.00010444,-0.00002273,-0.00005032,-0.00005946,
 -0.00022542,-0.00008316,0.00128235,-0.00078285,0.00016482,0.00004031,0
 .00004741,0.00004496,-0.00001091,0.00017797,0.00020725,-0.00012528,-0.
 00003841,-0.00013301,-0.00001934,0.00009980,0.00044605,-0.00020926,-0.
 00003460,-0.00005094,0.00008489,0.00000288,0.00005399,-0.00003556,-0.0
 0001448,0.00004620,0.00000290,-0.00000034,0.00007265,0.00002000,0.0000
 3512,-0.00005228,0.00005368,-0.00004042,-0.00021976,-0.00022169,-0.000
 02561,0.00191068,-0.00032793,-0.00192222,-0.14188775,0.02787906,0.1271
 9749,0.00889518,-0.00042774,-0.00072336,-0.06620934,-0.01284780,0.0199
 2086,0.00184414,0.01551153,-0.00043743,-0.00344442,-0.00412458,0.00469
 110,0.00059352,-0.00005552,0.00004171,-0.00004617,0.00004212,-0.000169
 86,0.00002308,-0.00012149,0.00033418,-0.00003579,-0.00022683,0.0002923
 7,0.00088328,0.00181542,-0.00362629,-0.00017600,0.00010855,0.00004506,
 -0.00013637,-0.00002365,-0.00036240,-0.00049097,0.00032816,-0.00079515
 ,0.00028134,0.00005472,-0.00000655,0.00004240,0.00003043,0.00014415,0.
 00019722,-0.00012345,-0.00004002,-0.00012932,0.00001878,0.00000978,0.0
 0033258,-0.00012372,0.00000156,-0.00011832,0.00007065,0.00008075,0.000
 05694,-0.00004742,-0.00001288,0.00005275,-0.00000827,0.00001252,0.0000
 5807,0.00001855,0.00004212,-0.00007655,-0.00000433,-0.00004892,-0.0004
 3469,-0.00001127,-0.00015373,0.00033820,-0.00008371,-0.00033583,-0.190
 86518,0.04365963,0.04828996,0.53195166,-0.00412121,-0.00476717,-0.0000
 4145,-0.02015384,0.02138220,0.00984273,-0.00338754,-0.00552569,0.00099
 781,-0.00025164,0.00169718,-0.00094697,-0.00021765,0.00002438,0.000003
 04,0.00001146,-0.00001764,0.00005521,-0.00003172,0.00006422,-0.0001017
 7,-0.00002984,0.00004399,-0.00009271,-0.00022403,-0.00044147,0.0009051
 2,0.00005711,-0.00003889,-0.00000097,0.00004838,0.00001399,0.00011352,
 0.00007795,-0.00036621,0.00030873,-0.00006906,-0.00000924,-0.00003809,
 -0.00002203,0.00001263,-0.00004554,-0.00006560,0.00003947,0.00002043,0
 .00004833,-0.00000962,-0.00002700,-0.00015532,0.00009373,-0.00000022,0
 .00002251,-0.00002289,0.00000709,-0.00001908,0.00001585,0.00000080,-0.
 00001507,0.00000221,-0.00000143,-0.00002756,-0.00000374,-0.00001471,0.
 00002622,-0.00001040,0.00001920,0.00017893,0.00001891,0.00007812,0.000
 31569,0.00030092,-0.00000277,0.06785055,-0.12029301,-0.03025174,0.0531
 7258,0.60571189,-0.00272161,-0.00092562,0.00351207,0.01846477,0.007038
 55,-0.00667577,-0.00307615,-0.00529937,-0.00438715,0.00175926,0.001329
 78,-0.00020563,-0.00020027,0.00005352,-0.00007117,0.00001375,-0.000018
 90,0.00005149,0.00006546,-0.00003620,-0.00009739,0.00007507,0.00012669
 ,-0.00009988,-0.00084352,-0.00104510,0.00151832,0.00007626,-0.00004505
 ,-0.00003000,0.00005560,-0.00002402,0.00025680,0.00040900,0.00015555,0
 .00003408,-0.00005807,0.00000199,0.00001439,-0.00004427,-0.00001126,-0
 .00005591,-0.00004509,0.00005296,0.00002660,0.00003466,-0.00005007,-0.
 00001249,-0.00012890,0.00007612,0.00001221,0.00003582,-0.00004824,-0.0
 0003724,-0.00001794,0.00001326,0.00000359,-0.00002008,0.00000071,-0.00
 000332,-0.00002859,-0.00000684,-0.00001390,0.00002852,-0.00000153,0.00
 002252,0.00024971,-0.00008340,0.00021152,-0.00013026,0.00021794,-0.000
 28902,0.05257646,-0.02225616,-0.08704481,0.02710563,-0.01513564,0.5795
 6361,-0.00154801,-0.00158727,0.00021941,-0.00048661,0.00628420,0.00099
 206,0.00121973,-0.00105914,-0.00032729,0.00011451,0.00084738,-0.000446
 56,-0.00010356,0.00001133,0.00000297,0.00001092,-0.00001044,0.00002118
 ,-0.00000236,0.00000765,-0.00004968,0.00000776,0.00002415,-0.00003037,
 -0.00015757,-0.00028288,0.00052024,0.00002322,-0.00002196,-0.00000721,
 0.00002225,-0.00000231,0.00006119,0.00007535,-0.00011768,0.00011197,-0
 .00003779,-0.00000326,-0.00001242,-0.00000711,0.00000464,-0.00002089,-
 0.00003168,0.00001931,0.00000651,0.00001968,-0.00000340,-0.00000878,-0
 .00006901,0.00002901,-0.00000166,0.00001179,-0.00001315,-0.00000034,-0
 .00001069,0.00000679,0.00000245,-0.00000825,0.00000037,-0.00000043,-0.
 00001074,-0.00000272,-0.00000612,0.00001171,-0.00000169,0.00000911,0.0
 0007029,0.00000494,0.00003595,0.00003996,0.00010878,0.00000834,-0.0340
 4421,-0.02225884,0.00802701,-0.14749598,-0.13079344,0.00941709,0.17426
 319,-0.00018552,0.00051588,0.00001252,0.00360802,-0.00311916,-0.001612
 33,-0.00259954,0.00135302,0.00095091,0.00021117,0.00010304,-0.00022780
 ,-0.00000786,-0.00002410,-0.00000251,-0.00000343,0.00000305,0.00001352
 ,0.00000222,-0.00000870,-0.00002189,0.00001780,0.00003146,-0.00001834,
 -0.00004240,-0.00006981,0.00015359,0.00000532,-0.00000860,-0.00000527,
 0.00000905,0.00000032,0.00000824,0.00004602,0.00003418,0.00004488,-0.0
 0002303,-0.00000244,-0.00000346,-0.00000348,-0.00000091,-0.00000432,-0
 .00000918,0.00000656,0.00000194,0.00000572,0.00000023,0.00000427,-0.00
 000965,-0.00000415,-0.00000313,0.00000606,-0.00000414,-0.00000422,-0.0
 0000386,0.00000299,0.00000103,-0.00000350,0.00000080,-0.00000068,-0.00
 000148,-0.00000153,-0.00000214,0.00000564,0.00000299,0.00000420,0.0000
 4329,0.00004138,0.00000438,-0.00010197,0.00010266,0.00007267,0.0158995
 8,0.01410138,-0.00298609,-0.14195207,-0.22913296,0.01719373,0.14276186
 ,0.23515572,0.00050180,0.00061777,0.00007683,0.00098006,-0.00239359,-0
 .00029703,-0.00041032,0.00038564,0.00089092,0.00003843,-0.00027040,0.0
 0014498,0.00003062,-0.00000311,-0.00000027,0.00000002,0.00000584,-0.00
 000569,0.00000017,0.00000719,0.00002295,-0.00001385,-0.00001148,0.0000
 0885,0.00003588,0.00006683,-0.00013742,-0.00000176,0.00000635,0.000005
 46,-0.00000570,-0.00000087,-0.00001430,-0.00001230,0.00004895,-0.00005
 560,0.00001328,0.00000178,0.00000629,0.00000211,-0.00000257,0.00000793
 ,0.00000993,-0.00000618,-0.00000404,-0.00000850,0.00000245,0.00000360,
 0.00002314,-0.00001246,-0.00000088,-0.00000276,0.00000405,-0.00000099,
 0.00000330,-0.00000245,0.00000016,0.00000171,-0.00000019,0.00000042,0.
 00000323,0.00000002,0.00000192,-0.00000236,0.00000159,-0.00000227,-0.0
 0002458,-0.00000820,-0.00000016,-0.00004085,-0.00002386,-0.00003264,0.
 01390885,0.00958090,-0.00242088,0.00754049,0.01345769,-0.05261235,-0.0
 1856748,-0.01530005,0.04909343,-0.00189298,-0.00022979,-0.00036559,0.0
 0527758,0.00584791,0.00116722,-0.00068618,-0.00200921,-0.00043722,0.00
 040529,0.00072595,-0.00084002,-0.00010051,0.00003794,-0.00001521,0.000
 02348,-0.00001433,0.00001195,-0.00001065,0.00003052,-0.00004443,-0.000
 00215,-0.00001324,-0.00000774,-0.00009906,-0.00023585,0.00056459,0.000
 02214,-0.00001788,-0.00000037,0.00001591,0.00000364,0.00004527,0.00004
 625,-0.00012176,0.00012787,-0.00004422,-0.00000775,0.00000147,0.000004
 16,-0.00000620,-0.00002124,-0.00003486,0.00001549,0.00000050,0.0000190
 4,0.00000326,-0.00001017,-0.00005515,0.00002710,0.00000521,0.00001626,
 -0.00000902,-0.00001034,-0.00000747,0.00000520,0.00000182,-0.00000560,
 -0.00000010,-0.00000140,-0.00000967,-0.00000298,-0.00000468,0.00000531
 ,-0.00001017,0.00000602,0.00000270,-0.00000011,0.00002357,0.00007422,-
 0.00017656,0.00002683,-0.00804073,0.01615612,0.03674913,-0.05710131,-0
 .02080705,-0.04611672,-0.00103120,-0.00546170,-0.01702981,0.06330438,0
 .00084349,0.00021150,-0.00014762,-0.00360798,-0.00146310,0.00146179,0.
 00055073,0.00081157,-0.00001099,-0.00024824,-0.00042262,0.00041479,0.0
 0004024,0.00001596,-0.00000126,0.00000493,0.00000061,-0.00002043,0.000
 00918,-0.00001579,0.00003662,-0.00000356,-0.00003778,0.00004636,0.0000
 7296,0.00015306,-0.00027757,-0.00001915,0.00000875,0.00000916,-0.00001
 728,0.00000102,-0.00003450,-0.00004048,0.00004003,-0.00010138,0.000037
 62,0.00000555,0.00000591,0.00000353,0.00000020,0.00001295,0.00002215,-
 0.00001231,-0.00000077,-0.00000843,-0.00000113,0.00000694,0.00003317,-
 0.00002196,-0.00000061,-0.00001407,0.00000769,0.00000947,0.00000716,-0
 .00000470,-0.00000193,0.00000657,0.00000002,0.00000064,0.00000886,0.00
 000361,0.00000399,-0.00000842,0.00000670,-0.00000877,-0.00008693,0.000
 00253,-0.00000852,0.00002867,-0.00005742,-0.00007373,0.00821162,-0.005
 41541,-0.01369471,-0.01796502,-0.09646321,-0.10018086,-0.00290754,-0.0
 0702482,-0.02130382,0.01207966,0.10003384,0.00098663,0.00058047,-0.000
 28170,-0.00398287,-0.00634426,0.00087353,-0.00120574,0.00264206,0.0016
 0749,-0.00036681,-0.00051392,0.00041998,0.00006065,-0.00004877,0.00001
 185,-0.00000149,0.00001147,-0.00000535,-0.00001938,0.00000629,0.000032
 50,-0.00002093,-0.00001546,0.00001376,0.00011908,0.00020572,-0.0003661
 9,-0.00002280,0.00000780,0.00001104,-0.00000934,-0.00000735,-0.0000441
 2,-0.00003699,0.00006372,-0.00007894,0.00002755,0.00000868,-0.00000228
 ,0.00000011,0.00000430,0.00001751,0.00002133,-0.00001037,-0.00000140,-
 0.00000867,0.00000266,0.00000797,0.00003893,-0.00003008,-0.00000981,-0
 .00001384,0.00000918,0.00001083,0.00000492,-0.00000425,-0.00000126,0.0
 0000527,-0.00000006,0.00000141,0.00000883,0.00000195,0.00000451,-0.000
 00490,0.00000643,-0.00000447,-0.00000995,0.00002940,-0.00001723,-0.000
 02685,0.00015304,0.00000855,0.01281570,-0.00514024,-0.00832678,-0.0395
 9785,-0.09956004,-0.26584061,0.00035713,0.00323843,0.00515792,0.034815
 16,0.11403106,0.28235092,-0.00166780,-0.00066600,0.00084765,0.00544349
 ,0.00895301,-0.00194063,0.00063778,-0.00349424,0.00000264,0.00071476,0
 .00082301,-0.00062506,-0.00014816,0.00003276,-0.00002635,0.00003760,-0
 .00001381,0.00001191,-0.00001913,0.00004784,-0.00001666,-0.00003285,-0
 .00001682,-0.00002524,-0.00020333,-0.00042133,0.00070447,0.00003062,-0
 .00001314,-0.00000930,0.00002238,-0.00001294,0.00009669,0.00010144,-0.
 00003823,0.00008120,-0.00003074,-0.00000771,0.00001058,-0.00000931,-0.
 00000492,-0.00002329,-0.00002310,0.00001843,0.00000817,0.00001699,-0.0
 0001103,-0.00000361,-0.00005318,0.00002114,0.00000595,0.00001567,-0.00
 001410,-0.00001499,-0.00000673,0.00000608,0.00000101,-0.00000653,0.000
 00076,-0.00000184,-0.00000758,-0.00000113,-0.00000582,0.00000863,0.000
 00217,0.00000193,0.00000006,-0.00006011,0.00006362,0.00007154,-0.00023
 086,-0.00013329,-0.02814950,0.02321549,-0.01309556,-0.07878994,0.05858
 196,-0.05693560,0.00915440,-0.01221311,0.01302727,-0.00009496,0.002966
 55,-0.00393289,0.09298750,0.00105815,0.00028668,-0.00004263,-0.0046502
 7,-0.00243224,0.00057171,-0.00046775,0.00146409,-0.00000846,-0.0003790
 0,-0.00049692,0.00044656,0.00009654,0.00001842,0.00001998,-0.00001405,
 0.00000216,-0.00002507,0.00002920,-0.00002954,0.00003695,-0.00000633,-
 0.00001914,0.00003621,0.00012193,0.00020661,-0.00046667,-0.00001812,0.
 00001657,0.00000063,-0.00002563,0.00000279,-0.00004608,-0.00007496,0.0
 0005600,-0.00006568,0.00002927,0.00000446,-0.00000432,0.00000745,0.000
 00677,0.00001651,0.00002233,-0.00001525,-0.00000579,-0.00001556,0.0000
 0258,0.00000082,0.00004308,-0.00001337,0.00000172,-0.00001530,0.000007
 99,0.00001258,0.00000693,-0.00000608,-0.00000133,0.00000646,-0.0000015
 2,0.00000178,0.00000637,0.00000172,0.00000537,-0.00001125,-0.00000229,
 -0.00000731,-0.00007598,-0.00000909,-0.00003859,0.00003835,-0.00002486
 ,0.00000164,0.01527590,-0.00778659,0.00126534,0.06331576,-0.17231943,0
 .11890745,0.00895530,-0.01205434,0.01515220,-0.00580911,0.00963761,-0.
 00932786,-0.07744971,0.18349622,0.00040440,-0.00012079,-0.00059836,-0.
 00021634,0.00088536,0.00147615,0.00164424,-0.00066508,-0.00044692,-0.0
 0015795,-0.00017993,0.00005953,0.00004526,0.00003133,-0.00000637,-0.00
 000247,-0.00000360,-0.00000490,0.00000627,-0.00000359,0.00000228,-0.00
 000621,-0.00000665,0.00001161,0.00003933,0.00012205,-0.00016411,-0.000
 00326,0.00000488,0.00000644,-0.00001231,0.00001072,-0.00001974,-0.0000
 4466,-0.00003203,-0.00001982,0.00001377,-0.00000231,0.00000290,0.00000
 414,-0.00000264,0.00000372,0.00000530,-0.00000579,-0.00000181,-0.00000
 285,0.00000345,0.00000409,0.00001218,-0.00000577,0.00000143,-0.0000022
 5,0.00000515,0.00000182,0.00000272,-0.00000074,-0.00000058,0.00000186,
 0.00000083,-0.00000048,0.00000321,0.00000169,0.00000023,-0.00000118,0.
 00000489,-0.00000447,-0.00005051,0.00000623,-0.00000536,0.00000050,-0.
 00008415,0.00001030,0.00758685,-0.01229317,0.01389577,-0.06224199,0.12
 045158,-0.16775053,-0.00031338,-0.00151203,0.00016285,-0.00864168,0.01
 982777,-0.01554966,0.06192705,-0.12643766,0.16893398\\-0.00002860,-0.0
 0002767,-0.00000280,-0.00000279,-0.00000426,0.00000669,-0.00000783,-0.
 00000560,0.00001499,0.00002644,0.00003319,0.00002101,-0.00001779,0.000
 01663,0.00001558,-0.00000741,0.00001464,0.00000390,-0.00000296,0.00000
 458,-0.00000117,-0.00000193,0.00000101,0.00000993,0.00002271,0.0000320
 8,-0.00000103,-0.00000501,0.00001160,0.00000038,-0.00002696,-0.0000152
 8,0.00000978,0.00000830,-0.00000840,-0.00001587,0.00000279,0.00000624,
 -0.00000901,0.00000620,0.00000629,-0.00001046,0.00000074,0.00000295,-0
 .00001391,-0.00000248,-0.00000018,-0.00000291,0.00000693,-0.00000146,0
 .00000605,0.00000040,0.00000999,-0.00001092,0.00000123,0.00001122,-0.0
 0001639,0.00000381,0.00000318,-0.00001221,0.00000256,-0.00000598,-0.00
 000334,0.00000095,-0.00000419,0.00000185,0.00000019,-0.00000276,-0.000
 00451,0.00000454,-0.00001104,-0.00001048,0.00000748,-0.00000695,0.0000
 0149,-0.00000638,-0.00001778,0.00000541,0.00000774,-0.00000897,0.00000
 084,0.00000562,-0.00001943,0.00000760,0.00000150,-0.00001365,0.0000095
 4\\\@
 The archive entry for this job was punched.


 ON A TOMBSTONE, "HERE LIES LESTER MOORE,
 FOUR SLUGS FROM A 44, NO LES, NO MORE".
 Job cpu time:       0 days  0 hours 45 minutes 15.2 seconds.
 Elapsed time:       0 days  0 hours  3 minutes 48.5 seconds.
 File lengths (MBytes):  RWF=    416 Int=      0 D2E=      0 Chk=     14 Scr=      1
 Normal termination of Gaussian 16 at Mon Jan  1 14:57:45 2024.
