Unloading slurm/anatra/current
  ERROR: No such file or directory on
    '/cm/local/modulefiles/slurm/anatra/current'
environment: line 0: unalias: gv: not found
environment: line 0: unalias: sl: not found
 Entering Gaussian System, Link 0=g16
 Initial command:
 /apps/gaussian/g16/C.01/g16/l1.exe "/local/jobs/1153225/Gau-1663451.inp" -scrdir="/local/jobs/1153225/"
 Entering Link 1 = /apps/gaussian/g16/C.01/g16/l1.exe PID=   1663452.
  
 Copyright (c) 1988-2019, Gaussian, Inc.  All Rights Reserved.
  
 This is part of the Gaussian(R) 16 program.  It is based on
 the Gaussian(R) 09 system (copyright 2009, Gaussian, Inc.),
 the Gaussian(R) 03 system (copyright 2003, Gaussian, Inc.),
 the Gaussian(R) 98 system (copyright 1998, Gaussian, Inc.),
 the Gaussian(R) 94 system (copyright 1995, Gaussian, Inc.),
 the Gaussian 92(TM) system (copyright 1992, Gaussian, Inc.),
 the Gaussian 90(TM) system (copyright 1990, Gaussian, Inc.),
 the Gaussian 88(TM) system (copyright 1988, Gaussian, Inc.),
 the Gaussian 86(TM) system (copyright 1986, Carnegie Mellon
 University), and the Gaussian 82(TM) system (copyright 1983,
 Carnegie Mellon University). Gaussian is a federally registered
 trademark of Gaussian, Inc.
  
 This software contains proprietary and confidential information,
 including trade secrets, belonging to Gaussian, Inc.
  
 This software is provided under written license and may be
 used, copied, transmitted, or stored only in accord with that
 written license.
  
 The following legend is applicable only to US Government
 contracts under FAR:
  
                    RESTRICTED RIGHTS LEGEND
  
 Use, reproduction and disclosure by the US Government is
 subject to restrictions as set forth in subparagraphs (a)
 and (c) of the Commercial Computer Software - Restricted
 Rights clause in FAR 52.227-19.
  
 Gaussian, Inc.
 340 Quinnipiac St., Bldg. 40, Wallingford CT 06492
  
  
 ---------------------------------------------------------------
 Warning -- This program may not be used in any manner that
 competes with the business of Gaussian, Inc. or will provide
 assistance to any competitor of Gaussian, Inc.  The licensee
 of this program is prohibited from giving any competitor of
 Gaussian, Inc. access to this program.  By using this program,
 the user acknowledges that Gaussian, Inc. is engaged in the
 business of creating and licensing software in the field of
 computational chemistry and represents and warrants to the
 licensee that it is not a competitor of Gaussian, Inc. and that
 it will not use this program in any manner prohibited above.
 ---------------------------------------------------------------
  

 Cite this work as:
 Gaussian 16, Revision C.01,
 M. J. Frisch, G. W. Trucks, H. B. Schlegel, G. E. Scuseria, 
 M. A. Robb, J. R. Cheeseman, G. Scalmani, V. Barone, 
 G. A. Petersson, H. Nakatsuji, X. Li, M. Caricato, A. V. Marenich, 
 J. Bloino, B. G. Janesko, R. Gomperts, B. Mennucci, H. P. Hratchian, 
 J. V. Ortiz, A. F. Izmaylov, J. L. Sonnenberg, D. Williams-Young, 
 F. Ding, F. Lipparini, F. Egidi, J. Goings, B. Peng, A. Petrone, 
 T. Henderson, D. Ranasinghe, V. G. Zakrzewski, J. Gao, N. Rega, 
 G. Zheng, W. Liang, M. Hada, M. Ehara, K. Toyota, R. Fukuda, 
 J. Hasegawa, M. Ishida, T. Nakajima, Y. Honda, O. Kitao, H. Nakai, 
 T. Vreven, K. Throssell, J. A. Montgomery, Jr., J. E. Peralta, 
 F. Ogliaro, M. J. Bearpark, J. J. Heyd, E. N. Brothers, K. N. Kudin, 
 V. N. Staroverov, T. A. Keith, R. Kobayashi, J. Normand, 
 K. Raghavachari, A. P. Rendell, J. C. Burant, S. S. Iyengar, 
 J. Tomasi, M. Cossi, J. M. Millam, M. Klene, C. Adamo, R. Cammi, 
 J. W. Ochterski, R. L. Martin, K. Morokuma, O. Farkas, 
 J. B. Foresman, and D. J. Fox, Gaussian, Inc., Wallingford CT, 2019.
 
 ******************************************
 Gaussian 16:  ES64L-G16RevC.01  3-Jul-2019
                 1-Jan-2024 
 ******************************************
 %chk=TS-68_opt_dft.chk
 %nprocshared=12
 Will use up to   12 processors via shared memory.
 %mem=48GB
 ----------------------------------------------------------------------
 # wb97xd def2svp scrf=(iefpcm,solvent=toluene) opt=(calcfc,ts,noeigen,
 maxcycles=50,maxstep=10)
 ----------------------------------------------------------------------
 1/5=1,6=50,8=10,10=4,11=1,18=20,26=3,38=1/1,3;
 2/9=110,12=2,17=6,18=5,40=1/2;
 3/5=43,7=101,11=2,25=1,30=1,70=2201,71=2,72=13,74=-58,140=1/1,2,3;
 4//1;
 5/5=2,38=5,53=13/2;
 8/6=4,10=90,11=11/1;
 11/6=1,8=1,9=11,15=111,16=1/1,2,10;
 10/6=1,13=1/2;
 6/7=2,8=2,9=2,10=2,28=1/1;
 7/10=1,25=1/1,2,3,16;
 1/5=1,6=50,8=10,10=4,11=1,18=20,26=3/3(2);
 2/9=110/2;
 99//99;
 2/9=110/2;
 3/5=43,7=101,11=2,25=1,30=1,70=2205,71=1,72=13,74=-58/1,2,3;
 4/5=5,16=3,69=1/1;
 5/5=2,38=5,53=13/2;
 7//1,2,3,16;
 1/5=1,6=50,8=10,11=1,18=20,26=3/3(-5);
 2/9=110/2;
 6/7=2,8=2,9=2,10=2,19=2,28=1/1;
 99/9=1/99;
 ---------
 TS-68.out
 ---------
 Symbolic Z-matrix:
 Charge =  0 Multiplicity = 1
 C                    -0.74249  -0.12132   0.22248 
 C                    -2.09729   0.30804   0.69467 
 O                    -2.30169   1.18952   1.52012 
 C                     0.23569   0.82708   0.28242 
 C                    -1.12249   3.02777  -1.33601 
 H                    -0.92798   3.59591  -2.25016 
 H                    -2.10314   2.55168  -1.41988 
 H                    -1.13854   3.71741  -0.4876 
 N                    -0.08065   2.0099   -1.1377 
 H                    -0.07122   1.43807  -1.98871 
 H                     0.8163    2.51011  -1.18421 
 C                     1.69287   0.45967   0.25094 
 C                     2.32299  -0.06152  -0.88807 
 C                     3.68719  -0.36217  -0.87152 
 C                     4.43783  -0.13667   0.28037 
 C                     3.82677   0.39194   1.41535 
 C                     2.46265   0.69229   1.39956 
 H                     1.75802  -0.23854  -1.79909 
 H                     4.16255  -0.77282  -1.75836 
 H                     5.49878  -0.37232   0.29348 
 H                     4.41054   0.57044   2.31459 
 H                     2.00288   1.1043    2.29536 
 H                     0.02255   1.70746   0.91213 
 Br                   -0.52741  -1.88792  -0.36586 
 O                    -3.07299  -0.40619   0.06938 
 C                    -4.39791  -0.05049   0.46209 
 H                    -5.09696  -0.68232  -0.09281 
 H                    -4.5431   -0.23106   1.53182 
 H                    -4.60411   0.99512   0.21281 
 
 Add virtual bond connecting atoms N9         and C4         Dist= 3.54D+00.

 GradGradGradGradGradGradGradGradGradGradGradGradGradGradGradGradGradGrad
 Berny optimization.
 Initialization pass.
                           ----------------------------
                           !    Initial Parameters    !
                           ! (Angstroms and Degrees)  !
 --------------------------                            --------------------------
 ! Name  Definition              Value          Derivative Info.                !
 --------------------------------------------------------------------------------
 ! R1    R(1,2)                  1.4976         calculate D2E/DX2 analytically  !
 ! R2    R(1,4)                  1.3638         calculate D2E/DX2 analytically  !
 ! R3    R(1,24)                 1.8744         calculate D2E/DX2 analytically  !
 ! R4    R(2,3)                  1.2248         calculate D2E/DX2 analytically  !
 ! R5    R(2,25)                 1.3613         calculate D2E/DX2 analytically  !
 ! R6    R(4,9)                  1.8751         calculate D2E/DX2 analytically  !
 ! R7    R(4,12)                 1.5031         calculate D2E/DX2 analytically  !
 ! R8    R(4,23)                 1.1032         calculate D2E/DX2 analytically  !
 ! R9    R(5,6)                  1.0937         calculate D2E/DX2 analytically  !
 ! R10   R(5,7)                  1.0933         calculate D2E/DX2 analytically  !
 ! R11   R(5,8)                  1.0935         calculate D2E/DX2 analytically  !
 ! R12   R(5,9)                  1.47           calculate D2E/DX2 analytically  !
 ! R13   R(9,10)                 1.0253         calculate D2E/DX2 analytically  !
 ! R14   R(9,11)                 1.0281         calculate D2E/DX2 analytically  !
 ! R15   R(12,13)                1.4022         calculate D2E/DX2 analytically  !
 ! R16   R(12,17)                1.4021         calculate D2E/DX2 analytically  !
 ! R17   R(13,14)                1.397          calculate D2E/DX2 analytically  !
 ! R18   R(13,18)                1.0865         calculate D2E/DX2 analytically  !
 ! R19   R(14,15)                1.3933         calculate D2E/DX2 analytically  !
 ! R20   R(14,19)                1.0868         calculate D2E/DX2 analytically  !
 ! R21   R(15,16)                1.3932         calculate D2E/DX2 analytically  !
 ! R22   R(15,20)                1.0869         calculate D2E/DX2 analytically  !
 ! R23   R(16,17)                1.3969         calculate D2E/DX2 analytically  !
 ! R24   R(16,21)                1.0869         calculate D2E/DX2 analytically  !
 ! R25   R(17,22)                1.0879         calculate D2E/DX2 analytically  !
 ! R26   R(25,26)                1.4269         calculate D2E/DX2 analytically  !
 ! R27   R(26,27)                1.0935         calculate D2E/DX2 analytically  !
 ! R28   R(26,28)                1.0945         calculate D2E/DX2 analytically  !
 ! R29   R(26,29)                1.0945         calculate D2E/DX2 analytically  !
 ! A1    A(2,1,4)              115.8255         calculate D2E/DX2 analytically  !
 ! A2    A(2,1,24)             118.2285         calculate D2E/DX2 analytically  !
 ! A3    A(4,1,24)             125.9393         calculate D2E/DX2 analytically  !
 ! A4    A(1,2,3)              124.7361         calculate D2E/DX2 analytically  !
 ! A5    A(1,2,25)             110.6804         calculate D2E/DX2 analytically  !
 ! A6    A(3,2,25)             124.5799         calculate D2E/DX2 analytically  !
 ! A7    A(1,4,9)              106.5222         calculate D2E/DX2 analytically  !
 ! A8    A(1,4,12)             121.6302         calculate D2E/DX2 analytically  !
 ! A9    A(1,4,23)             116.1982         calculate D2E/DX2 analytically  !
 ! A10   A(9,4,12)             107.5707         calculate D2E/DX2 analytically  !
 ! A11   A(9,4,23)              84.0482         calculate D2E/DX2 analytically  !
 ! A12   A(12,4,23)            113.2234         calculate D2E/DX2 analytically  !
 ! A13   A(6,5,7)              108.7589         calculate D2E/DX2 analytically  !
 ! A14   A(6,5,8)              108.874          calculate D2E/DX2 analytically  !
 ! A15   A(6,5,9)              110.2671         calculate D2E/DX2 analytically  !
 ! A16   A(7,5,8)              108.7228         calculate D2E/DX2 analytically  !
 ! A17   A(7,5,9)              110.1531         calculate D2E/DX2 analytically  !
 ! A18   A(8,5,9)              110.0261         calculate D2E/DX2 analytically  !
 ! A19   A(4,9,5)              131.1893         calculate D2E/DX2 analytically  !
 ! A20   A(4,9,10)             105.9768         calculate D2E/DX2 analytically  !
 ! A21   A(4,9,11)             101.1863         calculate D2E/DX2 analytically  !
 ! A22   A(5,9,10)             106.3035         calculate D2E/DX2 analytically  !
 ! A23   A(5,9,11)             105.9827         calculate D2E/DX2 analytically  !
 ! A24   A(10,9,11)            103.049          calculate D2E/DX2 analytically  !
 ! A25   A(4,12,13)            122.9243         calculate D2E/DX2 analytically  !
 ! A26   A(4,12,17)            118.3279         calculate D2E/DX2 analytically  !
 ! A27   A(13,12,17)           118.7115         calculate D2E/DX2 analytically  !
 ! A28   A(12,13,14)           120.6107         calculate D2E/DX2 analytically  !
 ! A29   A(12,13,18)           120.5314         calculate D2E/DX2 analytically  !
 ! A30   A(14,13,18)           118.8579         calculate D2E/DX2 analytically  !
 ! A31   A(13,14,15)           120.0706         calculate D2E/DX2 analytically  !
 ! A32   A(13,14,19)           119.9189         calculate D2E/DX2 analytically  !
 ! A33   A(15,14,19)           120.0105         calculate D2E/DX2 analytically  !
 ! A34   A(14,15,16)           119.9096         calculate D2E/DX2 analytically  !
 ! A35   A(14,15,20)           120.0524         calculate D2E/DX2 analytically  !
 ! A36   A(16,15,20)           120.038          calculate D2E/DX2 analytically  !
 ! A37   A(15,16,17)           120.0455         calculate D2E/DX2 analytically  !
 ! A38   A(15,16,21)           120.0501         calculate D2E/DX2 analytically  !
 ! A39   A(17,16,21)           119.9044         calculate D2E/DX2 analytically  !
 ! A40   A(12,17,16)           120.6448         calculate D2E/DX2 analytically  !
 ! A41   A(12,17,22)           120.3535         calculate D2E/DX2 analytically  !
 ! A42   A(16,17,22)           119.0005         calculate D2E/DX2 analytically  !
 ! A43   A(2,25,26)            114.0982         calculate D2E/DX2 analytically  !
 ! A44   A(25,26,27)           108.0518         calculate D2E/DX2 analytically  !
 ! A45   A(25,26,28)           110.5495         calculate D2E/DX2 analytically  !
 ! A46   A(25,26,29)           110.5106         calculate D2E/DX2 analytically  !
 ! A47   A(27,26,28)           108.4105         calculate D2E/DX2 analytically  !
 ! A48   A(27,26,29)           108.4194         calculate D2E/DX2 analytically  !
 ! A49   A(28,26,29)           110.806          calculate D2E/DX2 analytically  !
 ! D1    D(4,1,2,3)            -27.0774         calculate D2E/DX2 analytically  !
 ! D2    D(4,1,2,25)           152.2549         calculate D2E/DX2 analytically  !
 ! D3    D(24,1,2,3)           152.0325         calculate D2E/DX2 analytically  !
 ! D4    D(24,1,2,25)          -28.6351         calculate D2E/DX2 analytically  !
 ! D5    D(2,1,4,9)            -75.3285         calculate D2E/DX2 analytically  !
 ! D6    D(2,1,4,12)           161.1309         calculate D2E/DX2 analytically  !
 ! D7    D(2,1,4,23)            16.1275         calculate D2E/DX2 analytically  !
 ! D8    D(24,1,4,9)           105.64           calculate D2E/DX2 analytically  !
 ! D9    D(24,1,4,12)          -17.9006         calculate D2E/DX2 analytically  !
 ! D10   D(24,1,4,23)         -162.9039         calculate D2E/DX2 analytically  !
 ! D11   D(1,2,25,26)         -179.7276         calculate D2E/DX2 analytically  !
 ! D12   D(3,2,25,26)           -0.394          calculate D2E/DX2 analytically  !
 ! D13   D(1,4,9,5)             72.2434         calculate D2E/DX2 analytically  !
 ! D14   D(1,4,9,10)           -57.4423         calculate D2E/DX2 analytically  !
 ! D15   D(1,4,9,11)          -164.6612         calculate D2E/DX2 analytically  !
 ! D16   D(12,4,9,5)          -155.8651         calculate D2E/DX2 analytically  !
 ! D17   D(12,4,9,10)           74.4492         calculate D2E/DX2 analytically  !
 ! D18   D(12,4,9,11)          -32.7697         calculate D2E/DX2 analytically  !
 ! D19   D(23,4,9,5)           -43.3552         calculate D2E/DX2 analytically  !
 ! D20   D(23,4,9,10)         -173.0409         calculate D2E/DX2 analytically  !
 ! D21   D(23,4,9,11)           79.7403         calculate D2E/DX2 analytically  !
 ! D22   D(1,4,12,13)           68.9325         calculate D2E/DX2 analytically  !
 ! D23   D(1,4,12,17)         -113.2871         calculate D2E/DX2 analytically  !
 ! D24   D(9,4,12,13)          -54.1185         calculate D2E/DX2 analytically  !
 ! D25   D(9,4,12,17)          123.6619         calculate D2E/DX2 analytically  !
 ! D26   D(23,4,12,13)        -145.1222         calculate D2E/DX2 analytically  !
 ! D27   D(23,4,12,17)          32.6582         calculate D2E/DX2 analytically  !
 ! D28   D(6,5,9,4)            174.3827         calculate D2E/DX2 analytically  !
 ! D29   D(6,5,9,10)           -56.0457         calculate D2E/DX2 analytically  !
 ! D30   D(6,5,9,11)            53.1305         calculate D2E/DX2 analytically  !
 ! D31   D(7,5,9,4)            -65.572          calculate D2E/DX2 analytically  !
 ! D32   D(7,5,9,10)            63.9996         calculate D2E/DX2 analytically  !
 ! D33   D(7,5,9,11)           173.1758         calculate D2E/DX2 analytically  !
 ! D34   D(8,5,9,4)             54.2755         calculate D2E/DX2 analytically  !
 ! D35   D(8,5,9,10)          -176.1529         calculate D2E/DX2 analytically  !
 ! D36   D(8,5,9,11)           -66.9767         calculate D2E/DX2 analytically  !
 ! D37   D(4,12,13,14)         178.741          calculate D2E/DX2 analytically  !
 ! D38   D(4,12,13,18)          -1.2625         calculate D2E/DX2 analytically  !
 ! D39   D(17,12,13,14)          0.9687         calculate D2E/DX2 analytically  !
 ! D40   D(17,12,13,18)       -179.0348         calculate D2E/DX2 analytically  !
 ! D41   D(4,12,17,16)        -178.8208         calculate D2E/DX2 analytically  !
 ! D42   D(4,12,17,22)           1.582          calculate D2E/DX2 analytically  !
 ! D43   D(13,12,17,16)         -0.9451         calculate D2E/DX2 analytically  !
 ! D44   D(13,12,17,22)        179.4577         calculate D2E/DX2 analytically  !
 ! D45   D(12,13,14,15)         -0.4365         calculate D2E/DX2 analytically  !
 ! D46   D(12,13,14,19)        179.5331         calculate D2E/DX2 analytically  !
 ! D47   D(18,13,14,15)        179.5669         calculate D2E/DX2 analytically  !
 ! D48   D(18,13,14,19)         -0.4634         calculate D2E/DX2 analytically  !
 ! D49   D(13,14,15,16)         -0.1381         calculate D2E/DX2 analytically  !
 ! D50   D(13,14,15,20)        179.8921         calculate D2E/DX2 analytically  !
 ! D51   D(19,14,15,16)        179.8923         calculate D2E/DX2 analytically  !
 ! D52   D(19,14,15,20)         -0.0775         calculate D2E/DX2 analytically  !
 ! D53   D(14,15,16,17)          0.1618         calculate D2E/DX2 analytically  !
 ! D54   D(14,15,16,21)       -179.8899         calculate D2E/DX2 analytically  !
 ! D55   D(20,15,16,17)       -179.8684         calculate D2E/DX2 analytically  !
 ! D56   D(20,15,16,21)          0.0799         calculate D2E/DX2 analytically  !
 ! D57   D(15,16,17,12)          0.3887         calculate D2E/DX2 analytically  !
 ! D58   D(15,16,17,22)        179.9913         calculate D2E/DX2 analytically  !
 ! D59   D(21,16,17,12)       -179.5596         calculate D2E/DX2 analytically  !
 ! D60   D(21,16,17,22)          0.043          calculate D2E/DX2 analytically  !
 ! D61   D(2,25,26,27)        -179.7742         calculate D2E/DX2 analytically  !
 ! D62   D(2,25,26,28)         -61.2895         calculate D2E/DX2 analytically  !
 ! D63   D(2,25,26,29)          61.7526         calculate D2E/DX2 analytically  !
 --------------------------------------------------------------------------------
 Trust Radius=1.00D-01 FncErr=1.00D-07 GrdErr=1.00D-06 EigMax=2.50D+02 EigMin=1.00D-04
 Number of steps in this run=     50 maximum allowed number of steps=    174.
 Search for a saddle point of order  1.
 GradGradGradGradGradGradGradGradGradGradGradGradGradGradGradGradGradGrad

                          Input orientation:                          
 ---------------------------------------------------------------------
 Center     Atomic      Atomic             Coordinates (Angstroms)
 Number     Number       Type             X           Y           Z
 ---------------------------------------------------------------------
      1          6           0       -0.742490   -0.121320    0.222480
      2          6           0       -2.097290    0.308040    0.694670
      3          8           0       -2.301690    1.189520    1.520120
      4          6           0        0.235690    0.827080    0.282420
      5          6           0       -1.122490    3.027770   -1.336010
      6          1           0       -0.927980    3.595910   -2.250160
      7          1           0       -2.103140    2.551680   -1.419880
      8          1           0       -1.138540    3.717410   -0.487600
      9          7           0       -0.080650    2.009900   -1.137700
     10          1           0       -0.071220    1.438070   -1.988710
     11          1           0        0.816300    2.510110   -1.184210
     12          6           0        1.692870    0.459670    0.250940
     13          6           0        2.322990   -0.061520   -0.888070
     14          6           0        3.687190   -0.362170   -0.871520
     15          6           0        4.437830   -0.136670    0.280370
     16          6           0        3.826770    0.391940    1.415350
     17          6           0        2.462650    0.692290    1.399560
     18          1           0        1.758020   -0.238540   -1.799090
     19          1           0        4.162550   -0.772820   -1.758360
     20          1           0        5.498780   -0.372320    0.293480
     21          1           0        4.410540    0.570440    2.314590
     22          1           0        2.002880    1.104300    2.295360
     23          1           0        0.022550    1.707460    0.912130
     24         35           0       -0.527410   -1.887920   -0.365860
     25          8           0       -3.072990   -0.406190    0.069380
     26          6           0       -4.397910   -0.050490    0.462090
     27          1           0       -5.096960   -0.682320   -0.092810
     28          1           0       -4.543100   -0.231060    1.531820
     29          1           0       -4.604110    0.995120    0.212810
 ---------------------------------------------------------------------
                    Distance matrix (angstroms):
                    1          2          3          4          5
     1  C    0.000000
     2  C    1.497597   0.000000
     3  O    2.415218   1.224808   0.000000
     4  C    1.363778   2.425314   2.846324   0.000000
     5  C    3.534128   3.531406   3.595435   3.050738   0.000000
     6  H    4.468350   4.566114   4.678975   3.928678   1.093749
     7  H    3.419597   3.083063   3.246306   3.367818   1.093330
     8  H    3.923891   3.733734   3.431339   3.291724   1.093463
     9  N    2.613469   3.212592   3.559501   1.875067   1.469972
    10  H    2.787770   3.547176   4.165172   2.371821   2.014530
    11  H    3.366456   4.107105   4.333500   2.306665   2.012442
    12  C    2.503865   3.819058   4.254410   1.503115   4.127929
    13  C    3.260991   4.709619   5.362103   2.552739   4.649268
    14  C    4.569126   6.030120   6.632825   3.828674   5.902581
    15  C    5.180666   6.563323   6.979749   4.311241   6.598752
    16  C    4.750212   5.968325   6.181030   3.790611   6.246019
    17  C    3.510043   4.630072   4.791733   2.495099   5.078488
    18  H    3.217613   4.623960   5.434865   2.790290   4.379562
    19  H    5.329878   6.809641   7.509035   4.705815   6.523382
    20  H    6.246719   7.637023   8.049306   5.398037   7.619519
    21  H    5.604389   6.711546   6.787376   4.650264   7.069637
    22  H    3.651853   4.472989   4.374652   2.692905   5.162802
    23  H    2.098890   2.549389   2.457642   1.103192   2.847537
    24  Br   1.874374   2.900256   4.021893   2.893754   5.045723
    25  O    2.352833   1.361287   2.290380   3.537471   4.191856
    26  C    3.663949   2.339976   2.655408   4.719392   4.841201
    27  H    4.401765   3.255604   3.730799   5.554840   5.577340
    28  H    4.021324   2.640726   2.653696   5.051484   5.526753
    29  H    4.019781   2.643561   2.654805   4.843217   4.318818
                    6          7          8          9         10
     6  H    0.000000
     7  H    1.777859   0.000000
     8  H    1.779246   1.777224   0.000000
     9  N    2.114465   2.112727   2.111244   0.000000
    10  H    2.336379   2.385874   2.930511   1.025328   0.000000
    11  H    2.314676   2.929232   2.400883   1.028053   1.607539
    12  C    4.791697   4.645195   4.378949   2.734393   3.014185
    13  C    5.079458   5.167423   5.140319   3.182857   3.031900
    14  C    6.234328   6.505316   6.330722   4.460290   4.314467
    15  C    7.009112   7.273401   6.821995   5.199553   5.287727
    16  C    6.805074   6.918586   6.271704   4.940019   5.279805
    17  C    5.766094   5.679173   5.067671   3.826507   4.296168
    18  H    4.703304   4.778879   5.075392   2.978863   2.488593
    19  H    6.726155   7.101108   7.062475   5.112093   4.781831
    20  H    7.969956   8.323134   7.835177   6.233241   6.285762
    21  H    7.647889   7.765282   6.967638   5.844753   6.273543
    22  H    5.954814   5.723401   4.943858   4.116687   4.771430
    23  H    3.803923   3.266426   2.710585   2.074590   2.914830
    24  Br   5.812352   4.827415   5.639860   3.998541   3.728802
    25  O    5.098837   3.450724   4.588725   4.030959   4.080153
    26  C    5.717775   3.947033   5.071733   5.044132   5.190614
    27  H    6.351205   4.602481   5.931490   5.788196   5.774821
    28  H    6.482142   4.733876   5.591020   5.662305   5.931091
    29  H    5.132666   3.367997   4.462243   4.828597   5.058655
                   11         12         13         14         15
    11  H    0.000000
    12  C    2.651855   0.000000
    13  C    2.995179   1.402153   0.000000
    14  C    4.073055   2.431594   1.397035   0.000000
    15  C    4.718678   2.809145   2.417322   1.393256   0.000000
    16  C    4.506361   2.431865   2.787961   2.412040   1.393199
    17  C    3.562416   1.402142   2.412672   2.787326   2.416836
    18  H    2.969847   2.166648   1.086501   2.144147   3.393510
    19  H    4.722782   3.414035   2.155767   1.086778   2.153343
    20  H    5.693645   3.896019   3.402690   2.153877   1.086884
    21  H    5.377963   3.414184   3.874825   3.397689   2.153787
    22  H    3.935947   2.165943   3.405266   3.875121   3.395464
    23  H    2.380951   2.187263   3.414972   4.571035   4.826451
    24  Br   4.670966   3.289569   3.425379   4.510705   5.304536
    25  O    5.020246   4.847277   5.491094   6.825486   7.518615
    26  C    6.037794   6.115754   6.855184   8.200275   8.838029
    27  H    6.808040   6.893772   7.488223   8.824408   9.557678
    28  H    6.604090   6.403521   7.282019   8.575016   9.068194
    29  H    5.798940   6.319819   7.093176   8.471344   9.112749
                   16         17         18         19         20
    16  C    0.000000
    17  C    1.396883   0.000000
    18  H    3.874256   3.405042   0.000000
    19  H    3.397330   3.874102   2.463509   0.000000
    20  H    2.153672   3.402189   4.288360   2.481120   0.000000
    21  H    1.086868   2.155552   4.961116   4.295901   2.481521
    22  H    2.146730   1.087933   4.315982   4.961895   4.290600
    23  H    4.056589   2.687424   3.761580   5.515696   5.890442
    24  Br   5.227748   4.326043   3.161929   5.017791   6.248739
    25  O    7.074979   5.798219   5.182465   7.471820   8.574766
    26  C    8.291551   6.964040   6.560775   8.873198   9.903357
    27  H    9.113810   7.827159   7.078071   9.408548  10.607310
    28  H    8.393832   7.067574   7.127351   9.322399  10.118932
    29  H    8.537545   7.172111   6.785747   9.157808  10.195332
                   21         22         23         24         25
    21  H    0.000000
    22  H    2.466212   0.000000
    23  H    4.744909   2.489746   0.000000
    24  Br   6.132838   4.736860   3.855188   0.000000
    25  O    7.873881   5.744652   3.841889   2.977404   0.000000
    26  C    9.022533   6.757554   4.778430   4.363762   1.426940
    27  H    9.887241   7.700850   5.738496   4.733795   2.049148
    28  H    9.023458   6.724287   4.998703   4.740479   2.081015
    29  H    9.266161   6.928294   4.733124   5.026556   2.080522
                   26         27         28         29
    26  C    0.000000
    27  H    1.093524   0.000000
    28  H    1.094535   1.774773   0.000000
    29  H    1.094513   1.774855   1.801951   0.000000
 Stoichiometry    C11H14BrNO2
 Framework group  C1[X(C11H14BrNO2)]
 Deg. of freedom    81
 Full point group                 C1      NOp   1
 Largest Abelian subgroup         C1      NOp   1
 Largest concise Abelian subgroup C1      NOp   1
                         Standard orientation:                         
 ---------------------------------------------------------------------
 Center     Atomic      Atomic             Coordinates (Angstroms)
 Number     Number       Type             X           Y           Z
 ---------------------------------------------------------------------
      1          6           0       -0.742491   -0.121320    0.222480
      2          6           0       -2.097291    0.308039    0.694670
      3          8           0       -2.301692    1.189518    1.520120
      4          6           0        0.235689    0.827081    0.282420
      5          6           0       -1.122494    3.027770   -1.336010
      6          1           0       -0.927984    3.595910   -2.250160
      7          1           0       -2.103143    2.551679   -1.419880
      8          1           0       -1.138544    3.717410   -0.487600
      9          7           0       -0.080653    2.009901   -1.137700
     10          1           0       -0.071222    1.438071   -1.988710
     11          1           0        0.816297    2.510112   -1.184210
     12          6           0        1.692869    0.459672    0.250940
     13          6           0        2.322989   -0.061517   -0.888070
     14          6           0        3.687190   -0.362166   -0.871520
     15          6           0        4.437829   -0.136665    0.280370
     16          6           0        3.826769    0.391945    1.415350
     17          6           0        2.462649    0.692293    1.399560
     18          1           0        1.758020   -0.238538   -1.799090
     19          1           0        4.162550   -0.772815   -1.758360
     20          1           0        5.498780   -0.372314    0.293480
     21          1           0        4.410539    0.570445    2.314590
     22          1           0        2.002878    1.104303    2.295360
     23          1           0        0.022548    1.707461    0.912130
     24         35           0       -0.527409   -1.887920   -0.365860
     25          8           0       -3.072990   -0.406192    0.069380
     26          6           0       -4.397911   -0.050494    0.462090
     27          1           0       -5.096960   -0.682324   -0.092810
     28          1           0       -4.543100   -0.231064    1.531820
     29          1           0       -4.604112    0.995116    0.212810
 ---------------------------------------------------------------------
 Rotational constants (GHZ):           0.6855917           0.3044402           0.2523100
 Standard basis: def2SVP (5D, 7F)
 There are   315 symmetry adapted cartesian basis functions of A   symmetry.
 There are   298 symmetry adapted basis functions of A   symmetry.
   298 basis functions,   528 primitive gaussians,   315 cartesian basis functions
    69 alpha electrons       69 beta electrons
       nuclear repulsion energy      1360.8047526770 Hartrees.
 NAtoms=   29 NActive=   29 NUniq=   29 SFac= 1.00D+00 NAtFMM=   60 NAOKFM=F Big=F
 Integral buffers will be    131072 words long.
 Raffenetti 2 integral format.
 Two-electron integral symmetry is turned on.
 Nuclear repulsion after empirical dispersion term =     1360.7843886899 Hartrees.
 Force inversion solution in PCM.
 ------------------------------------------------------------------------------
 Polarizable Continuum Model (PCM)
 =================================
 Model                : PCM.
 Atomic radii         : UFF (Universal Force Field).
 Polarization charges : Total charges.
 Charge compensation  : None.
 Solution method      : Matrix inversion.
 Cavity type          : Scaled VdW (van der Waals Surface) (Alpha=1.100).
 Cavity algorithm     : GePol (No added spheres)
                        Default sphere list used, NSphG=   29.
                        Lebedev-Laikov grids with approx.  5.0 points / Ang**2.
                        Smoothing algorithm: York/Karplus (Gamma=1.0000).
                        Polarization charges: spherical gaussians, with
                                              point-specific exponents (IZeta= 3).
                        Self-potential: point-specific (ISelfS= 7).
                        Self-field    : sphere-specific E.n sum rule (ISelfD= 2).
 1st derivatives      : Analytical E(r).r(x)/FMM algorithm (CHGder, D1EAlg=3).
                        Cavity 1st derivative terms included.
 2nd derivatives      : Analytical E(r).r(xy)/FMM algorithm (CHGder, D2EAlg=3).
                        Cavity 2nd derivative terms included.
 Solvent              : Toluene, Eps=   2.374100 Eps(inf)=   2.238315
 ------------------------------------------------------------------------------
 One-electron integrals computed using PRISM.
   1 Symmetry operations used in ECPInt.
 ECPInt:  NShTT=    9591 NPrTT=   36310 LenC2=    8963 LenP2D=   24222.
 LDataN:  DoStor=T MaxTD1= 4 Len=   56
 NBasis=   298 RedAO= T EigKep=  2.90D-04  NBF=   298
 NBsUse=   298 1.00D-06 EigRej= -1.00D+00 NBFU=   298
 ExpMin= 1.22D-01 ExpMax= 1.13D+05 ExpMxC= 1.70D+04 IAcc=3 IRadAn=         5 AccDes= 0.00D+00
 Harris functional with IExCor= 4639 and IRadAn=       5 diagonalized for initial guess.
 HarFok:  IExCor= 4639 AccDes= 0.00D+00 IRadAn=         5 IDoV= 1 UseB2=F ITyADJ=14
 ICtDFT=  3500011 ScaDFX=  1.000000  1.000000  1.000000  1.000000
 FoFCou: FMM=F IPFlag=           0 FMFlag=      100000 FMFlg1=           0
         NFxFlg=           0 DoJE=T BraDBF=F KetDBF=T FulRan=T
         wScrn=  0.000000 ICntrl=       500 IOpCl=  0 I1Cent=   200000004 NGrid=           0
         NMat0=    1 NMatS0=      1 NMatT0=    0 NMatD0=    1 NMtDS0=    0 NMtDT0=    0
 Petite list used in FoFCou.
 Requested convergence on RMS density matrix=1.00D-08 within 128 cycles.
 Requested convergence on MAX density matrix=1.00D-06.
 Requested convergence on             energy=1.00D-06.
 No special actions if energy rises.
 Inv3:  Mode=1 IEnd=    16511148.
 Iteration    1 A*A^-1 deviation from unit magnitude is 3.22D-15 for   1115.
 Iteration    1 A*A^-1 deviation from orthogonality  is 1.54D-15 for   1646    194.
 Iteration    1 A^-1*A deviation from unit magnitude is 3.33D-15 for    582.
 Iteration    1 A^-1*A deviation from orthogonality  is 1.78D-15 for   2306   1524.
 Error on total polarization charges =  0.00672
 SCF Done:  E(RwB97XD) =  -3205.97423548     A.U. after   15 cycles
            NFock= 15  Conv=0.55D-08     -V/T= 2.0029
 DoSCS=F DFT=T ScalE2(SS,OS)=  1.000000  1.000000
 Range of M.O.s used for correlation:     1   298
 NBasis=   298 NAE=    69 NBE=    69 NFC=     0 NFV=     0
 NROrb=    298 NOA=    69 NOB=    69 NVA=   229 NVB=   229

 **** Warning!!: The largest alpha MO coefficient is  0.14972206D+02

   1 Symmetry operations used in ECPInt.
 ECPInt:  NShTT=    9591 NPrTT=   36310 LenC2=    8963 LenP2D=   24222.
 LDataN:  DoStor=T MaxTD1= 5 Len=  102
 Symmetrizing basis deriv contribution to polar:
 IMax=3 JMax=2 DiffMx= 0.00D+00
 G2DrvN: will do    30 centers at a time, making    1 passes.
 Calling FoFCou, ICntrl=  3107 FMM=F I1Cent=   0 AccDes= 0.00D+00.
 NEqPCM:  Using equilibrium solvation (IEInf=0, Eps=   2.3741, EpsInf=   2.2383)
 G2PCM: DoFxE=T DoFxN=T DoGrad=T DoDP/DQ/DG/TGxP=FFFF NFrqRd=   0 IEInf=0 SqF1=F DoCFld=F IF1Alg=4.
 End of G2Drv F.D. properties file   721 does not exist.
 End of G2Drv F.D. properties file   722 does not exist.
 End of G2Drv F.D. properties file   788 does not exist.
          IDoAtm=11111111111111111111111111111
 NEqPCM:  Using equilibrium solvation (IEInf=0, Eps=   2.3741, EpsInf=   2.2383)
          Differentiating once with respect to nuclear coordinates.
 Keep R1 ints in memory in canonical form, NReq=2013993496.
          There are    90 degrees of freedom in the 1st order CPHF.  IDoFFX=6 NUNeed=     0.
     84 vectors produced by pass  0 Test12= 1.76D-14 1.11D-09 XBig12= 1.16D-01 1.19D-01.
 AX will form    84 AO Fock derivatives at one time.
     84 vectors produced by pass  1 Test12= 1.76D-14 1.11D-09 XBig12= 1.89D-02 3.37D-02.
     84 vectors produced by pass  2 Test12= 1.76D-14 1.11D-09 XBig12= 3.95D-04 3.58D-03.
     84 vectors produced by pass  3 Test12= 1.76D-14 1.11D-09 XBig12= 6.07D-06 2.96D-04.
     84 vectors produced by pass  4 Test12= 1.76D-14 1.11D-09 XBig12= 6.46D-08 3.17D-05.
     84 vectors produced by pass  5 Test12= 1.76D-14 1.11D-09 XBig12= 4.23D-10 2.14D-06.
     79 vectors produced by pass  6 Test12= 1.76D-14 1.11D-09 XBig12= 2.32D-12 1.44D-07.
     27 vectors produced by pass  7 Test12= 1.76D-14 1.11D-09 XBig12= 1.12D-14 8.75D-09.
 InvSVY:  IOpt=1 It=  1 EMax= 2.78D-16
 Solved reduced A of dimension   610 with    90 vectors.
 End of Minotr F.D. properties file   721 does not exist.
 End of Minotr F.D. properties file   722 does not exist.
 End of Minotr F.D. properties file   788 does not exist.

 **********************************************************************

            Population analysis using the SCF Density.

 **********************************************************************

 Orbital symmetries:
       Occupied  (A) (A) (A) (A) (A) (A) (A) (A) (A) (A) (A) (A)
                 (A) (A) (A) (A) (A) (A) (A) (A) (A) (A) (A) (A)
                 (A) (A) (A) (A) (A) (A) (A) (A) (A) (A) (A) (A)
                 (A) (A) (A) (A) (A) (A) (A) (A) (A) (A) (A) (A)
                 (A) (A) (A) (A) (A) (A) (A) (A) (A) (A) (A) (A)
                 (A) (A) (A) (A) (A) (A) (A) (A) (A)
       Virtual   (A) (A) (A) (A) (A) (A) (A) (A) (A) (A) (A) (A)
                 (A) (A) (A) (A) (A) (A) (A) (A) (A) (A) (A) (A)
                 (A) (A) (A) (A) (A) (A) (A) (A) (A) (A) (A) (A)
                 (A) (A) (A) (A) (A) (A) (A) (A) (A) (A) (A) (A)
                 (A) (A) (A) (A) (A) (A) (A) (A) (A) (A) (A) (A)
                 (A) (A) (A) (A) (A) (A) (A) (A) (A) (A) (A) (A)
                 (A) (A) (A) (A) (A) (A) (A) (A) (A) (A) (A) (A)
                 (A) (A) (A) (A) (A) (A) (A) (A) (A) (A) (A) (A)
                 (A) (A) (A) (A) (A) (A) (A) (A) (A) (A) (A) (A)
                 (A) (A) (A) (A) (A) (A) (A) (A) (A) (A) (A) (A)
                 (A) (A) (A) (A) (A) (A) (A) (A) (A) (A) (A) (A)
                 (A) (A) (A) (A) (A) (A) (A) (A) (A) (A) (A) (A)
                 (A) (A) (A) (A) (A) (A) (A) (A) (A) (A) (A) (A)
                 (A) (A) (A) (A) (A) (A) (A) (A) (A) (A) (A) (A)
                 (A) (A) (A) (A) (A) (A) (A) (A) (A) (A) (A) (A)
                 (A) (A) (A) (A) (A) (A) (A) (A) (A) (A) (A) (A)
                 (A) (A) (A) (A) (A) (A) (A) (A) (A) (A) (A) (A)
                 (A) (A) (A) (A) (A) (A) (A) (A) (A) (A) (A) (A)
                 (A) (A) (A) (A) (A) (A) (A) (A) (A) (A) (A) (A)
                 (A)
 The electronic state is 1-A.
 Alpha  occ. eigenvalues -- -483.03562 -62.61748 -56.42516 -56.42164 -56.42159
 Alpha  occ. eigenvalues --  -19.28371 -19.22194 -14.49206 -10.40842 -10.34617
 Alpha  occ. eigenvalues --  -10.34442 -10.33945 -10.32197 -10.31102 -10.30957
 Alpha  occ. eigenvalues --  -10.30846 -10.30780 -10.30679 -10.29410  -8.78704
 Alpha  occ. eigenvalues --   -6.61239  -6.59948  -6.59924  -2.71620  -2.71241
 Alpha  occ. eigenvalues --   -2.71221  -2.70192  -2.70191  -1.17356  -1.08191
 Alpha  occ. eigenvalues --   -1.03405  -0.96264  -0.91396  -0.86340  -0.84457
 Alpha  occ. eigenvalues --   -0.81518  -0.80333  -0.78103  -0.71530  -0.70213
 Alpha  occ. eigenvalues --   -0.66956  -0.63598  -0.62451  -0.60292  -0.58658
 Alpha  occ. eigenvalues --   -0.56616  -0.56106  -0.55374  -0.54915  -0.54000
 Alpha  occ. eigenvalues --   -0.52304  -0.51252  -0.50991  -0.49480  -0.48200
 Alpha  occ. eigenvalues --   -0.47215  -0.46831  -0.45365  -0.44276  -0.43406
 Alpha  occ. eigenvalues --   -0.42732  -0.41892  -0.37612  -0.37392  -0.36597
 Alpha  occ. eigenvalues --   -0.34032  -0.33596  -0.32708  -0.24629
 Alpha virt. eigenvalues --    0.03801   0.05325   0.08579   0.10839   0.11983
 Alpha virt. eigenvalues --    0.14280   0.15222   0.16248   0.17326   0.18534
 Alpha virt. eigenvalues --    0.18614   0.19752   0.20461   0.21105   0.22031
 Alpha virt. eigenvalues --    0.22532   0.23004   0.23116   0.24679   0.25333
 Alpha virt. eigenvalues --    0.26277   0.27502   0.31706   0.33228   0.35799
 Alpha virt. eigenvalues --    0.36187   0.36604   0.37161   0.39246   0.39923
 Alpha virt. eigenvalues --    0.40572   0.43572   0.44812   0.47525   0.49001
 Alpha virt. eigenvalues --    0.49456   0.50237   0.50763   0.52461   0.53303
 Alpha virt. eigenvalues --    0.53957   0.55034   0.55533   0.55985   0.56834
 Alpha virt. eigenvalues --    0.57410   0.57951   0.59017   0.60121   0.61289
 Alpha virt. eigenvalues --    0.62621   0.63590   0.64284   0.64684   0.65741
 Alpha virt. eigenvalues --    0.66162   0.68069   0.69299   0.70511   0.71149
 Alpha virt. eigenvalues --    0.72010   0.72359   0.73119   0.73302   0.73724
 Alpha virt. eigenvalues --    0.74140   0.74695   0.74953   0.75673   0.75852
 Alpha virt. eigenvalues --    0.76835   0.77324   0.78117   0.78565   0.80566
 Alpha virt. eigenvalues --    0.81140   0.81677   0.81951   0.82860   0.83315
 Alpha virt. eigenvalues --    0.84722   0.85311   0.86268   0.87403   0.88377
 Alpha virt. eigenvalues --    0.89087   0.91869   0.93758   0.94809   0.96651
 Alpha virt. eigenvalues --    0.97778   0.98087   1.02213   1.04187   1.07109
 Alpha virt. eigenvalues --    1.07562   1.09196   1.12820   1.14078   1.15631
 Alpha virt. eigenvalues --    1.18360   1.21385   1.23060   1.23437   1.26828
 Alpha virt. eigenvalues --    1.27587   1.30575   1.32489   1.34046   1.35234
 Alpha virt. eigenvalues --    1.36474   1.36881   1.38120   1.39532   1.40852
 Alpha virt. eigenvalues --    1.43468   1.47627   1.49200   1.52825   1.56228
 Alpha virt. eigenvalues --    1.59299   1.60009   1.60368   1.61236   1.64025
 Alpha virt. eigenvalues --    1.65460   1.70485   1.71496   1.72366   1.75784
 Alpha virt. eigenvalues --    1.76335   1.78983   1.80819   1.81446   1.82270
 Alpha virt. eigenvalues --    1.82862   1.84112   1.84606   1.85134   1.85285
 Alpha virt. eigenvalues --    1.85886   1.86563   1.87074   1.88132   1.89631
 Alpha virt. eigenvalues --    1.90568   1.92140   1.94830   1.95701   1.97800
 Alpha virt. eigenvalues --    1.98191   2.01067   2.02268   2.03199   2.03418
 Alpha virt. eigenvalues --    2.04420   2.06380   2.07504   2.07936   2.09288
 Alpha virt. eigenvalues --    2.12308   2.13323   2.15881   2.17538   2.18799
 Alpha virt. eigenvalues --    2.20938   2.21539   2.23181   2.24019   2.26472
 Alpha virt. eigenvalues --    2.28453   2.30204   2.34318   2.37019   2.37351
 Alpha virt. eigenvalues --    2.38588   2.39064   2.41101   2.42342   2.42701
 Alpha virt. eigenvalues --    2.43030   2.44632   2.47196   2.51622   2.52639
 Alpha virt. eigenvalues --    2.54438   2.62087   2.64223   2.69584   2.71047
 Alpha virt. eigenvalues --    2.72207   2.72930   2.75479   2.76151   2.77155
 Alpha virt. eigenvalues --    2.78368   2.80474   2.82304   2.82498   2.82931
 Alpha virt. eigenvalues --    2.85024   2.89699   2.93791   2.95809   2.96073
 Alpha virt. eigenvalues --    2.97296   2.99460   3.01519   3.05180   3.05557
 Alpha virt. eigenvalues --    3.06918   3.08519   3.15330   3.19068   3.21403
 Alpha virt. eigenvalues --    3.25483   3.28800   3.30785   3.33953   3.49252
 Alpha virt. eigenvalues --    3.51178   3.57066   3.59107   3.65968   3.71090
 Alpha virt. eigenvalues --    3.73064   3.73903   3.79774   3.96744
          Condensed to atoms (all electrons):
               1          2          3          4          5          6
     1  C    5.657714   0.297228  -0.115092   0.523058   0.000496  -0.001176
     2  C    0.297228   4.477083   0.686142  -0.025878   0.004598   0.000034
     3  O   -0.115092   0.686142   7.781524   0.006134   0.001846   0.000093
     4  C    0.523058  -0.025878   0.006134   4.847298  -0.004816   0.001645
     5  C    0.000496   0.004598   0.001846  -0.004816   4.492175   0.404792
     6  H   -0.001176   0.000034   0.000093   0.001645   0.404792   0.619188
     7  H    0.004348   0.003300  -0.001579  -0.003662   0.402184  -0.024909
     8  H   -0.000097   0.000013   0.000340  -0.001218   0.404849  -0.023096
     9  N   -0.132513  -0.005717   0.000421   0.025537   0.317252  -0.015305
    10  H    0.006129  -0.001652  -0.000062   0.001738  -0.021719  -0.008613
    11  H    0.007775   0.000125  -0.000092  -0.002874  -0.020667  -0.011028
    12  C   -0.053556   0.009761   0.000336   0.337039   0.002319  -0.000095
    13  C   -0.013591  -0.000374  -0.000011  -0.075189  -0.000060  -0.000007
    14  C    0.000099   0.000009   0.000000   0.009083   0.000004  -0.000000
    15  C    0.000072   0.000000   0.000000  -0.000096  -0.000000  -0.000000
    16  C   -0.000539  -0.000009  -0.000001   0.011491   0.000001   0.000000
    17  C    0.003548  -0.000115   0.000020  -0.066031   0.000000  -0.000009
    18  H   -0.001906  -0.000077  -0.000000  -0.012428  -0.000134   0.000020
    19  H   -0.000005  -0.000000  -0.000000  -0.000220  -0.000000   0.000000
    20  H    0.000000   0.000000   0.000000   0.000020   0.000000  -0.000000
    21  H   -0.000002  -0.000000   0.000000  -0.000263  -0.000000   0.000000
    22  H    0.000928  -0.000080  -0.000038  -0.013083  -0.000012   0.000000
    23  H   -0.016547  -0.009750   0.017879   0.386008   0.000544  -0.000555
    24  Br   0.202645  -0.046223   0.001780  -0.072491  -0.000077   0.000007
    25  O   -0.130201   0.374867  -0.074879  -0.000513  -0.000705   0.000002
    26  C    0.012039  -0.034395   0.002464  -0.000234  -0.000096  -0.000002
    27  H    0.000047   0.004922   0.000810   0.000015   0.000001   0.000000
    28  H    0.001582  -0.004922   0.006328  -0.000226  -0.000016  -0.000000
    29  H   -0.000626  -0.004820   0.007449   0.000326   0.000271   0.000001
               7          8          9         10         11         12
     1  C    0.004348  -0.000097  -0.132513   0.006129   0.007775  -0.053556
     2  C    0.003300   0.000013  -0.005717  -0.001652   0.000125   0.009761
     3  O   -0.001579   0.000340   0.000421  -0.000062  -0.000092   0.000336
     4  C   -0.003662  -0.001218   0.025537   0.001738  -0.002874   0.337039
     5  C    0.402184   0.404849   0.317252  -0.021719  -0.020667   0.002319
     6  H   -0.024909  -0.023096  -0.015305  -0.008613  -0.011028  -0.000095
     7  H    0.582407  -0.015733  -0.023614  -0.004999   0.007505   0.000005
     8  H   -0.015733   0.581871  -0.024754   0.007108  -0.004563  -0.000059
     9  N   -0.023614  -0.024754   6.523078   0.325963   0.317816  -0.025615
    10  H   -0.004999   0.007108   0.325963   0.545208  -0.011866  -0.007583
    11  H    0.007505  -0.004563   0.317816  -0.011866   0.558589   0.001866
    12  C    0.000005  -0.000059  -0.025615  -0.007583   0.001866   5.306156
    13  C   -0.000034   0.000049  -0.003402   0.004698   0.001673   0.283531
    14  C   -0.000000   0.000001   0.000066   0.000026  -0.000423   0.070525
    15  C    0.000000  -0.000000  -0.000001   0.000003   0.000047  -0.137646
    16  C   -0.000000   0.000001  -0.000132   0.000023  -0.000186   0.068670
    17  C    0.000012  -0.000027  -0.001353   0.000041   0.001460   0.325532
    18  H   -0.000008  -0.000005   0.001334   0.002021  -0.000106  -0.075957
    19  H    0.000000   0.000000  -0.000001   0.000003   0.000001   0.014188
    20  H    0.000000   0.000000   0.000000  -0.000000  -0.000001  -0.001429
    21  H   -0.000000  -0.000000   0.000001  -0.000000  -0.000001   0.014091
    22  H    0.000000  -0.000002   0.000066  -0.000002   0.000035  -0.066074
    23  H   -0.000133   0.004921  -0.050473   0.004597  -0.000080  -0.032823
    24  Br  -0.000016   0.000003   0.000691   0.001229  -0.000093  -0.009338
    25  O    0.001234  -0.000008   0.000509   0.000022  -0.000010  -0.000056
    26  C    0.000174  -0.000000  -0.000037   0.000003   0.000001   0.000004
    27  H   -0.000011   0.000000   0.000001  -0.000001   0.000000  -0.000000
    28  H    0.000040  -0.000001   0.000006   0.000000  -0.000000  -0.000001
    29  H   -0.000131   0.000021  -0.000046   0.000003   0.000001   0.000003
              13         14         15         16         17         18
     1  C   -0.013591   0.000099   0.000072  -0.000539   0.003548  -0.001906
     2  C   -0.000374   0.000009   0.000000  -0.000009  -0.000115  -0.000077
     3  O   -0.000011   0.000000   0.000000  -0.000001   0.000020  -0.000000
     4  C   -0.075189   0.009083  -0.000096   0.011491  -0.066031  -0.012428
     5  C   -0.000060   0.000004  -0.000000   0.000001   0.000000  -0.000134
     6  H   -0.000007  -0.000000  -0.000000   0.000000  -0.000009   0.000020
     7  H   -0.000034  -0.000000   0.000000  -0.000000   0.000012  -0.000008
     8  H    0.000049   0.000001  -0.000000   0.000001  -0.000027  -0.000005
     9  N   -0.003402   0.000066  -0.000001  -0.000132  -0.001353   0.001334
    10  H    0.004698   0.000026   0.000003   0.000023   0.000041   0.002021
    11  H    0.001673  -0.000423   0.000047  -0.000186   0.001460  -0.000106
    12  C    0.283531   0.070525  -0.137646   0.068670   0.325532  -0.075957
    13  C    5.074348   0.352747   0.059589  -0.118523   0.040352   0.448868
    14  C    0.352747   4.981642   0.320068   0.062062  -0.115757  -0.051452
    15  C    0.059589   0.320068   5.061395   0.311557   0.064800   0.012930
    16  C   -0.118523   0.062062   0.311557   5.015656   0.334346  -0.001586
    17  C    0.040352  -0.115757   0.064800   0.334346   5.034419   0.011585
    18  H    0.448868  -0.051452   0.012930  -0.001586   0.011585   0.657754
    19  H   -0.062874   0.449133  -0.066785   0.012614  -0.001737  -0.011919
    20  H    0.012658  -0.063270   0.447682  -0.063603   0.012418  -0.000216
    21  H   -0.001670   0.012511  -0.066687   0.450455  -0.063903   0.000021
    22  H    0.012684  -0.001732   0.012683  -0.058411   0.451095  -0.000154
    23  H    0.006071  -0.000214  -0.000009   0.000598  -0.006068   0.000039
    24  Br   0.004909  -0.001002  -0.000006  -0.000061   0.001571   0.007471
    25  O   -0.000003  -0.000000   0.000000  -0.000000   0.000000  -0.000000
    26  C    0.000000   0.000000  -0.000000   0.000000  -0.000000  -0.000000
    27  H    0.000000  -0.000000  -0.000000   0.000000  -0.000000   0.000000
    28  H   -0.000000   0.000000  -0.000000  -0.000000   0.000000  -0.000000
    29  H    0.000000  -0.000000   0.000000   0.000000  -0.000000   0.000000
              19         20         21         22         23         24
     1  C   -0.000005   0.000000  -0.000002   0.000928  -0.016547   0.202645
     2  C   -0.000000   0.000000  -0.000000  -0.000080  -0.009750  -0.046223
     3  O   -0.000000   0.000000   0.000000  -0.000038   0.017879   0.001780
     4  C   -0.000220   0.000020  -0.000263  -0.013083   0.386008  -0.072491
     5  C   -0.000000   0.000000  -0.000000  -0.000012   0.000544  -0.000077
     6  H    0.000000  -0.000000   0.000000   0.000000  -0.000555   0.000007
     7  H    0.000000   0.000000  -0.000000   0.000000  -0.000133  -0.000016
     8  H    0.000000   0.000000  -0.000000  -0.000002   0.004921   0.000003
     9  N   -0.000001   0.000000   0.000001   0.000066  -0.050473   0.000691
    10  H    0.000003  -0.000000  -0.000000  -0.000002   0.004597   0.001229
    11  H    0.000001  -0.000001  -0.000001   0.000035  -0.000080  -0.000093
    12  C    0.014188  -0.001429   0.014091  -0.066074  -0.032823  -0.009338
    13  C   -0.062874   0.012658  -0.001670   0.012684   0.006071   0.004909
    14  C    0.449133  -0.063270   0.012511  -0.001732  -0.000214  -0.001002
    15  C   -0.066785   0.447682  -0.066687   0.012683  -0.000009  -0.000006
    16  C    0.012614  -0.063603   0.450455  -0.058411   0.000598  -0.000061
    17  C   -0.001737   0.012418  -0.063903   0.451095  -0.006068   0.001571
    18  H   -0.011919  -0.000216   0.000021  -0.000154   0.000039   0.007471
    19  H    0.650821  -0.011047  -0.000208   0.000020   0.000005  -0.000020
    20  H   -0.011047   0.648763  -0.011043  -0.000206  -0.000001  -0.000000
    21  H   -0.000208  -0.011043   0.647936  -0.011267   0.000005  -0.000000
    22  H    0.000020  -0.000206  -0.011267   0.643486   0.003364   0.000036
    23  H    0.000005  -0.000001   0.000005   0.003364   0.642427   0.004461
    24  Br  -0.000020  -0.000000  -0.000000   0.000036   0.004461  34.986391
    25  O    0.000000   0.000000   0.000000   0.000000   0.001105   0.006189
    26  C   -0.000000   0.000000  -0.000000  -0.000000  -0.000071  -0.000179
    27  H    0.000000  -0.000000   0.000000   0.000000  -0.000002  -0.000036
    28  H    0.000000  -0.000000  -0.000000  -0.000000  -0.000007  -0.000045
    29  H   -0.000000   0.000000   0.000000   0.000000  -0.000014  -0.000018
              25         26         27         28         29
     1  C   -0.130201   0.012039   0.000047   0.001582  -0.000626
     2  C    0.374867  -0.034395   0.004922  -0.004922  -0.004820
     3  O   -0.074879   0.002464   0.000810   0.006328   0.007449
     4  C   -0.000513  -0.000234   0.000015  -0.000226   0.000326
     5  C   -0.000705  -0.000096   0.000001  -0.000016   0.000271
     6  H    0.000002  -0.000002   0.000000  -0.000000   0.000001
     7  H    0.001234   0.000174  -0.000011   0.000040  -0.000131
     8  H   -0.000008  -0.000000   0.000000  -0.000001   0.000021
     9  N    0.000509  -0.000037   0.000001   0.000006  -0.000046
    10  H    0.000022   0.000003  -0.000001   0.000000   0.000003
    11  H   -0.000010   0.000001   0.000000  -0.000000   0.000001
    12  C   -0.000056   0.000004  -0.000000  -0.000001   0.000003
    13  C   -0.000003   0.000000   0.000000  -0.000000   0.000000
    14  C   -0.000000   0.000000  -0.000000   0.000000  -0.000000
    15  C    0.000000  -0.000000  -0.000000  -0.000000   0.000000
    16  C   -0.000000   0.000000   0.000000  -0.000000   0.000000
    17  C    0.000000  -0.000000  -0.000000   0.000000  -0.000000
    18  H   -0.000000  -0.000000   0.000000  -0.000000   0.000000
    19  H    0.000000  -0.000000   0.000000   0.000000  -0.000000
    20  H    0.000000   0.000000  -0.000000  -0.000000   0.000000
    21  H    0.000000  -0.000000   0.000000  -0.000000   0.000000
    22  H    0.000000  -0.000000   0.000000  -0.000000   0.000000
    23  H    0.001105  -0.000071  -0.000002  -0.000007  -0.000014
    24  Br   0.006189  -0.000179  -0.000036  -0.000045  -0.000018
    25  O    7.980898   0.269679  -0.020934  -0.027335  -0.029923
    26  C    0.269679   4.402454   0.396978   0.407161   0.404221
    27  H   -0.020934   0.396978   0.620644  -0.024609  -0.026009
    28  H   -0.027335   0.407161  -0.024609   0.624926  -0.030886
    29  H   -0.029923   0.404221  -0.026009  -0.030886   0.641618
 Mulliken charges:
               1
     1  C   -0.251857
     2  C    0.275930
     3  O   -0.321811
     4  C    0.129828
     5  C    0.016973
     6  H    0.059013
     7  H    0.073622
     8  H    0.070388
     9  N   -0.229779
    10  H    0.157680
    11  H    0.155095
    12  C   -0.023792
    13  C   -0.026437
    14  C   -0.024125
    15  C   -0.019596
    16  C   -0.024423
    17  C   -0.026199
    18  H    0.013906
    19  H    0.028028
    20  H    0.029273
    21  H    0.030024
    22  H    0.026665
    23  H    0.044723
    24  Br  -0.087777
    25  O   -0.349936
    26  C    0.139835
    27  H    0.048186
    28  H    0.048005
    29  H    0.038559
 Sum of Mulliken charges =  -0.00000
 Mulliken charges with hydrogens summed into heavy atoms:
               1
     1  C   -0.251857
     2  C    0.275930
     3  O   -0.321811
     4  C    0.174551
     5  C    0.219997
     9  N    0.082996
    12  C   -0.023792
    13  C   -0.012530
    14  C    0.003902
    15  C    0.009677
    16  C    0.005601
    17  C    0.000466
    24  Br  -0.087777
    25  O   -0.349936
    26  C    0.274585
 APT charges:
               1
     1  C   -0.267527
     2  C   -0.469388
     3  O    0.245406
     4  C   -0.265037
     5  C   -0.908619
     6  H    0.661701
     7  H    0.219902
     8  H    0.418826
     9  N   -0.931682
    10  H    0.319806
    11  H    0.517376
    12  C   -0.512209
    13  C   -0.456852
    14  C   -0.492418
    15  C   -0.589675
    16  C   -0.520268
    17  C   -0.463388
    18  H    0.153879
    19  H    0.685922
    20  H    1.033338
    21  H    0.841091
    22  H    0.321603
    23  H    0.366222
    24  Br  -0.096651
    25  O   -0.303595
    26  C   -1.027885
    27  H    0.738463
    28  H    0.427665
    29  H    0.353994
 Sum of APT charges =  -0.00000
 APT charges with hydrogens summed into heavy atoms:
               1
     1  C   -0.267527
     2  C   -0.469388
     3  O    0.245406
     4  C    0.101185
     5  C    0.391809
     9  N   -0.094500
    12  C   -0.512209
    13  C   -0.302973
    14  C    0.193504
    15  C    0.443663
    16  C    0.320823
    17  C   -0.141785
    24  Br  -0.096651
    25  O   -0.303595
    26  C    0.492237
 Electronic spatial extent (au):  <R**2>=           4488.8132
 Charge=              0.0000 electrons
 Dipole moment (field-independent basis, Debye):
    X=              2.0277    Y=              4.7612    Z=             -4.0584  Tot=              6.5766
 Quadrupole moment (field-independent basis, Debye-Ang):
   XX=            -88.4258   YY=            -95.1742   ZZ=            -96.3146
   XY=              0.0526   XZ=              4.2949   YZ=             -7.9822
 Traceless Quadrupole moment (field-independent basis, Debye-Ang):
   XX=              4.8791   YY=             -1.8694   ZZ=             -3.0097
   XY=              0.0526   XZ=              4.2949   YZ=             -7.9822
 Octapole moment (field-independent basis, Debye-Ang**2):
  XXX=            -56.0975  YYY=            -15.3034  ZZZ=            -26.3731  XYY=            -18.3619
  XXY=            -28.5827  XXZ=             -3.0497  XZZ=              4.6622  YZZ=             -8.6253
  YYZ=            -25.8627  XYZ=             19.4810
 Hexadecapole moment (field-independent basis, Debye-Ang**3):
 XXXX=          -3375.7848 YYYY=          -1077.4297 ZZZZ=           -586.2832 XXXY=             -7.3259
 XXXZ=             18.5854 YYYX=             11.4881 YYYZ=            -26.3614 ZZZX=             20.8965
 ZZZY=             -4.2170 XXYY=           -890.3048 XXZZ=           -727.0874 YYZZ=           -283.2402
 XXYZ=             -1.2291 YYXZ=             12.9028 ZZXY=             25.7829
 N-N= 1.360784388690D+03 E-N=-1.034600649453D+04  KE= 3.196797097174D+03
  Exact polarizability:       0.000       0.000       0.000       0.000       0.000       0.000
 Approx polarizability:     187.470      -3.439     150.420      -2.053      20.613     159.794
   1 Symmetry operations used in ECPInt.
 ECPInt:  NShTT=    9591 NPrTT=   36310 LenC2=    8963 LenP2D=   24222.
 LDataN:  DoStor=T MaxTD1= 6 Len=  172
 D2PCM: PCM CHGder 2nd derivatives, FixD1E=F FixD2E=F DoIter=F DoCFld=F I1PDM=0
 Calling FoFJK, ICntrl=    100127 FMM=F ISym2X=0 I1Cent= 0 IOpClX= 0 NMat=1 NMatS=1 NMatT=0.
 ***** Axes restored to original set *****
 -------------------------------------------------------------------
 Center     Atomic                   Forces (Hartrees/Bohr)
 Number     Number              X              Y              Z
 -------------------------------------------------------------------
      1        6          -0.043314961    0.001813993    0.027972961
      2        6           0.023102651   -0.015296103   -0.006249836
      3        8          -0.004473453   -0.010040101   -0.019282372
      4        6           0.008846045    0.002235821    0.023346288
      5        6          -0.002393143   -0.005968132    0.009595403
      6        1          -0.001005696    0.003118371   -0.003439158
      7        1          -0.002727040   -0.002255794    0.000850762
      8        1          -0.000372717    0.001156194    0.003176928
      9        7           0.027480496    0.028991454   -0.048449653
     10        1           0.000165233   -0.003985064    0.004312286
     11        1          -0.001314878   -0.002020254   -0.000490392
     12        6          -0.001713074    0.012017698   -0.008113750
     13        6           0.004216265   -0.000118348    0.003872187
     14        6          -0.004646720    0.002209071    0.003680035
     15        6          -0.001618064   -0.000007750   -0.000438583
     16        6          -0.006234690   -0.001269331   -0.003103118
     17        6           0.004989566   -0.001548266   -0.002389197
     18        1          -0.003287380   -0.000940492   -0.002637332
     19        1           0.001212213   -0.001265288   -0.003276923
     20        1           0.003739984   -0.000680501   -0.000063462
     21        1           0.001548866    0.000772243    0.003197642
     22        1          -0.003137213    0.001649378    0.001712030
     23        1           0.000523258   -0.014648632    0.009001641
     24       35           0.003187274   -0.007023811   -0.007995375
     25        8          -0.008081299    0.015597768    0.015963168
     26        6           0.004699951   -0.006335619   -0.003931181
     27        1           0.001886511   -0.003389210   -0.003133581
     28        1          -0.000735499    0.003108514    0.003611436
     29        1          -0.000542487    0.004122191    0.002701145
 -------------------------------------------------------------------
 Cartesian Forces:  Max     0.048449653 RMS     0.010899066
 FormGI is forming the generalized inverse of G from B-inverse, IUseBI=4.

 GradGradGradGradGradGradGradGradGradGradGradGradGradGradGradGradGradGrad
 Berny optimization.
 Internal  Forces:  Max     0.034761303 RMS     0.007096106
 Search for a saddle point.
 Step number   1 out of a maximum of   50
 All quantities printed in internal units (Hartrees-Bohrs-Radians)
 Swapping is turned off.
 Second derivative matrix not updated -- analytic derivatives used.
 ITU=  0
     Eigenvalues ---   -0.04292  -0.00059   0.00174   0.00180   0.00254
     Eigenvalues ---    0.00372   0.00849   0.01057   0.01319   0.01624
     Eigenvalues ---    0.01760   0.01810   0.01870   0.02177   0.02449
     Eigenvalues ---    0.02596   0.02752   0.02968   0.03025   0.03060
     Eigenvalues ---    0.04465   0.04682   0.04778   0.04946   0.05515
     Eigenvalues ---    0.07233   0.08142   0.08545   0.08581   0.09317
     Eigenvalues ---    0.09845   0.11032   0.11501   0.11825   0.12268
     Eigenvalues ---    0.12468   0.12681   0.12868   0.13289   0.15837
     Eigenvalues ---    0.17483   0.17558   0.17763   0.18147   0.18574
     Eigenvalues ---    0.18664   0.19246   0.19551   0.19682   0.22299
     Eigenvalues ---    0.24748   0.24945   0.26281   0.29035   0.30388
     Eigenvalues ---    0.31633   0.33652   0.34996   0.35065   0.35617
     Eigenvalues ---    0.35639   0.35939   0.36090   0.37158   0.37285
     Eigenvalues ---    0.37505   0.37534   0.37661   0.37768   0.37782
     Eigenvalues ---    0.39573   0.42670   0.42973   0.43274   0.43928
     Eigenvalues ---    0.46720   0.48788   0.49060   0.52460   0.58296
     Eigenvalues ---    0.80176
 Eigenvectors required to have negative eigenvalues:
                          R6        A19       A11       A21       D10
   1                   -0.77136  -0.31083   0.16698   0.15807   0.14168
                          D6        D26       R2        D27       A20
   1                   -0.13603  -0.12987   0.12082  -0.11975   0.11974
 RFO step:  Lambda0=6.443243175D-05 Lambda=-3.65587548D-02.
 Linear search not attempted -- option 19 set.
 Maximum step size (   0.100) exceeded in Quadratic search.
    -- Step size scaled by   0.189
 Iteration  1 RMS(Cart)=  0.03759980 RMS(Int)=  0.00137174
 Iteration  2 RMS(Cart)=  0.00201591 RMS(Int)=  0.00006442
 Iteration  3 RMS(Cart)=  0.00000557 RMS(Int)=  0.00006436
 Iteration  4 RMS(Cart)=  0.00000000 RMS(Int)=  0.00006436
 Variable       Old X    -DE/DX   Delta X   Delta X   Delta X     New X
                                 (Linear)    (Quad)   (Total)
    R1        2.83005  -0.02110   0.00000  -0.01192  -0.01192   2.81812
    R2        2.57717   0.02911   0.00000   0.00307   0.00307   2.58024
    R3        3.54205   0.00949   0.00000   0.00757   0.00757   3.54962
    R4        2.31455  -0.01947   0.00000  -0.00321  -0.00321   2.31135
    R5        2.57246  -0.01189   0.00000  -0.00570  -0.00570   2.56676
    R6        3.54336   0.03476   0.00000   0.04921   0.04921   3.59257
    R7        2.84048  -0.00727   0.00000  -0.00509  -0.00509   2.83539
    R8        2.08473  -0.00665   0.00000  -0.00355  -0.00355   2.08118
    R9        2.06689   0.00432   0.00000   0.00245   0.00245   2.06934
   R10        2.06609   0.00337   0.00000   0.00239   0.00239   2.06849
   R11        2.06634   0.00319   0.00000   0.00163   0.00163   2.06798
   R12        2.77784   0.00050   0.00000  -0.00690  -0.00690   2.77095
   R13        1.93759  -0.00135   0.00000  -0.00128  -0.00128   1.93631
   R14        1.94274  -0.00211   0.00000  -0.00198  -0.00198   1.94075
   R15        2.64969  -0.00230   0.00000  -0.00089  -0.00088   2.64880
   R16        2.64966  -0.00223   0.00000  -0.00059  -0.00059   2.64907
   R17        2.64001  -0.00267   0.00000  -0.00112  -0.00112   2.63889
   R18        2.05319   0.00407   0.00000   0.00169   0.00169   2.05488
   R19        2.63287   0.00077   0.00000   0.00041   0.00041   2.63328
   R20        2.05371   0.00368   0.00000   0.00172   0.00172   2.05544
   R21        2.63276   0.00149   0.00000   0.00046   0.00046   2.63322
   R22        2.05391   0.00380   0.00000   0.00169   0.00169   2.05561
   R23        2.63973  -0.00313   0.00000  -0.00112  -0.00112   2.63861
   R24        2.05388   0.00360   0.00000   0.00168   0.00168   2.05557
   R25        2.05590   0.00336   0.00000   0.00160   0.00160   2.05750
   R26        2.69653  -0.00576   0.00000  -0.00392  -0.00392   2.69261
   R27        2.06646   0.00234   0.00000   0.00087   0.00087   2.06733
   R28        2.06837   0.00312   0.00000   0.00165   0.00165   2.07002
   R29        2.06833   0.00342   0.00000   0.00174   0.00174   2.07007
    A1        2.02154   0.00684   0.00000   0.00703   0.00701   2.02854
    A2        2.06348   0.00244   0.00000   0.00210   0.00208   2.06555
    A3        2.19805  -0.00926   0.00000  -0.00895  -0.00897   2.18908
    A4        2.17706   0.00026   0.00000  -0.00019  -0.00020   2.17686
    A5        1.93174   0.01691   0.00000   0.00916   0.00916   1.94090
    A6        2.17433  -0.01720   0.00000  -0.00899  -0.00899   2.16534
    A7        1.85916   0.01850   0.00000   0.01222   0.01231   1.87147
    A8        2.12285   0.00523   0.00000   0.01345   0.01349   2.13634
    A9        2.02804  -0.00631   0.00000  -0.01224  -0.01231   2.01573
   A10        1.87746  -0.02564   0.00000  -0.02862  -0.02860   1.84886
   A11        1.46692   0.00998   0.00000   0.00779   0.00786   1.47478
   A12        1.97612  -0.00099   0.00000   0.00259   0.00262   1.97874
   A13        1.89820  -0.00035   0.00000  -0.00147  -0.00146   1.89674
   A14        1.90021  -0.00043   0.00000   0.00046   0.00045   1.90066
   A15        1.92452   0.00365   0.00000   0.00775   0.00775   1.93227
   A16        1.89757   0.00025   0.00000  -0.00114  -0.00115   1.89642
   A17        1.92253  -0.00205   0.00000  -0.00432  -0.00433   1.91821
   A18        1.92032  -0.00109   0.00000  -0.00134  -0.00135   1.91896
   A19        2.28969  -0.02613   0.00000  -0.06066  -0.06067   2.22901
   A20        1.84964   0.00418   0.00000   0.01591   0.01557   1.86521
   A21        1.76603   0.00824   0.00000   0.02047   0.02066   1.78670
   A22        1.85535   0.01205   0.00000   0.01410   0.01378   1.86913
   A23        1.84975   0.00787   0.00000   0.01867   0.01888   1.86863
   A24        1.79854  -0.00265   0.00000   0.00391   0.00352   1.80207
   A25        2.14543  -0.00052   0.00000  -0.00038  -0.00038   2.14505
   A26        2.06521  -0.00086   0.00000   0.00026   0.00026   2.06547
   A27        2.07191   0.00141   0.00000   0.00019   0.00019   2.07210
   A28        2.10505  -0.00022   0.00000   0.00001   0.00001   2.10506
   A29        2.10367  -0.00115   0.00000  -0.00164  -0.00164   2.10203
   A30        2.07446   0.00137   0.00000   0.00163   0.00163   2.07609
   A31        2.09563   0.00013   0.00000   0.00033   0.00033   2.09596
   A32        2.09298  -0.00056   0.00000  -0.00060  -0.00060   2.09238
   A33        2.09458   0.00043   0.00000   0.00027   0.00027   2.09485
   A34        2.09282  -0.00124   0.00000  -0.00078  -0.00078   2.09204
   A35        2.09531   0.00056   0.00000   0.00034   0.00034   2.09565
   A36        2.09506   0.00068   0.00000   0.00044   0.00044   2.09550
   A37        2.09519   0.00024   0.00000   0.00017   0.00017   2.09536
   A38        2.09527   0.00037   0.00000   0.00025   0.00025   2.09552
   A39        2.09273  -0.00061   0.00000  -0.00043  -0.00043   2.09230
   A40        2.10565  -0.00031   0.00000   0.00008   0.00009   2.10573
   A41        2.10056  -0.00192   0.00000  -0.00235  -0.00235   2.09821
   A42        2.07695   0.00223   0.00000   0.00227   0.00227   2.07922
   A43        1.99139   0.00788   0.00000   0.00617   0.00617   1.99756
   A44        1.88586  -0.00613   0.00000  -0.00512  -0.00511   1.88075
   A45        1.92945   0.00227   0.00000   0.00191   0.00191   1.93137
   A46        1.92877   0.00174   0.00000   0.00156   0.00156   1.93034
   A47        1.89212   0.00289   0.00000   0.00359   0.00359   1.89571
   A48        1.89228   0.00308   0.00000   0.00390   0.00390   1.89618
   A49        1.93393  -0.00386   0.00000  -0.00574  -0.00574   1.92819
    D1       -0.47259   0.00527   0.00000  -0.00608  -0.00611  -0.47870
    D2        2.65735   0.00328   0.00000  -0.00801  -0.00804   2.64931
    D3        2.65347   0.00650   0.00000   0.00572   0.00575   2.65922
    D4       -0.49978   0.00451   0.00000   0.00379   0.00382  -0.49596
    D5       -1.31473  -0.01084   0.00000  -0.01366  -0.01362  -1.32835
    D6        2.81226   0.00378   0.00000   0.00472   0.00467   2.81693
    D7        0.28148   0.00798   0.00000  -0.00233  -0.00237   0.27911
    D8        1.84377  -0.01232   0.00000  -0.02664  -0.02656   1.81721
    D9       -0.31242   0.00231   0.00000  -0.00825  -0.00827  -0.32070
   D10       -2.84321   0.00651   0.00000  -0.01531  -0.01531  -2.85852
   D11       -3.13684  -0.00052   0.00000  -0.00354  -0.00355  -3.14038
   D12       -0.00688  -0.00237   0.00000  -0.00539  -0.00539  -0.01227
   D13        1.26088  -0.00287   0.00000  -0.07430  -0.07421   1.18668
   D14       -1.00256  -0.00069   0.00000  -0.05386  -0.05378  -1.05634
   D15       -2.87388  -0.00204   0.00000  -0.07018  -0.07025  -2.94413
   D16       -2.72036  -0.00103   0.00000  -0.06855  -0.06849  -2.78885
   D17        1.29938   0.00114   0.00000  -0.04811  -0.04806   1.25132
   D18       -0.57194  -0.00020   0.00000  -0.06443  -0.06453  -0.63647
   D19       -0.75669   0.00044   0.00000  -0.06403  -0.06400  -0.82069
   D20       -3.02013   0.00262   0.00000  -0.04359  -0.04358  -3.06371
   D21        1.39173   0.00128   0.00000  -0.05991  -0.06005   1.33168
   D22        1.20310   0.00305   0.00000  -0.00589  -0.00593   1.19717
   D23       -1.97723   0.00402   0.00000  -0.00370  -0.00375  -1.98098
   D24       -0.94455  -0.00296   0.00000  -0.00666  -0.00664  -0.95118
   D25        2.15831  -0.00199   0.00000  -0.00447  -0.00445   2.15386
   D26       -2.53286  -0.00282   0.00000  -0.00390  -0.00388  -2.53674
   D27        0.56999  -0.00185   0.00000  -0.00171  -0.00170   0.56830
   D28        3.04355   0.00185   0.00000   0.01569   0.01562   3.05918
   D29       -0.97818  -0.00315   0.00000  -0.00431  -0.00432  -0.98250
   D30        0.92730   0.00198   0.00000   0.01340   0.01349   0.94079
   D31       -1.14445   0.00243   0.00000   0.01605   0.01597  -1.12848
   D32        1.11700  -0.00257   0.00000  -0.00396  -0.00397   1.11303
   D33        3.02249   0.00257   0.00000   0.01376   0.01383   3.03632
   D34        0.94729   0.00076   0.00000   0.01106   0.01099   0.95827
   D35       -3.07445  -0.00424   0.00000  -0.00894  -0.00895  -3.08340
   D36       -1.16896   0.00090   0.00000   0.00877   0.00885  -1.16011
   D37        3.11962   0.00083   0.00000   0.00115   0.00115   3.12076
   D38       -0.02204   0.00038   0.00000  -0.00123  -0.00123  -0.02327
   D39        0.01691  -0.00010   0.00000  -0.00105  -0.00105   0.01586
   D40       -3.12475  -0.00055   0.00000  -0.00343  -0.00343  -3.12818
   D41       -3.12101  -0.00111   0.00000  -0.00177  -0.00177  -3.12278
   D42        0.02761  -0.00080   0.00000  -0.00132  -0.00132   0.02629
   D43       -0.01649  -0.00022   0.00000   0.00031   0.00032  -0.01618
   D44        3.13213   0.00008   0.00000   0.00076   0.00076   3.13289
   D45       -0.00762   0.00025   0.00000   0.00086   0.00086  -0.00676
   D46        3.13344   0.00004   0.00000   0.00025   0.00025   3.13369
   D47        3.13403   0.00069   0.00000   0.00320   0.00320   3.13724
   D48       -0.00809   0.00048   0.00000   0.00259   0.00259  -0.00550
   D49       -0.00241  -0.00006   0.00000   0.00009   0.00009  -0.00232
   D50        3.13971  -0.00007   0.00000  -0.00018  -0.00018   3.13953
   D51        3.13971   0.00016   0.00000   0.00070   0.00070   3.14041
   D52       -0.00135   0.00015   0.00000   0.00043   0.00043  -0.00092
   D53        0.00282  -0.00026   0.00000  -0.00082  -0.00082   0.00201
   D54       -3.13967  -0.00000   0.00000  -0.00033  -0.00033  -3.14000
   D55       -3.13930  -0.00025   0.00000  -0.00055  -0.00055  -3.13985
   D56        0.00139   0.00001   0.00000  -0.00006  -0.00006   0.00133
   D57        0.00678   0.00039   0.00000   0.00061   0.00061   0.00740
   D58        3.14144   0.00008   0.00000   0.00015   0.00015  -3.14159
   D59       -3.13391   0.00013   0.00000   0.00012   0.00012  -3.13378
   D60        0.00075  -0.00018   0.00000  -0.00034  -0.00034   0.00042
   D61       -3.13765   0.00003   0.00000  -0.00168  -0.00168  -3.13933
   D62       -1.06970   0.00114   0.00000   0.00069   0.00068  -1.06902
   D63        1.07779  -0.00101   0.00000  -0.00422  -0.00421   1.07357
         Item               Value     Threshold  Converged?
 Maximum Force            0.034761     0.000450     NO 
 RMS     Force            0.007096     0.000300     NO 
 Maximum Displacement     0.218453     0.001800     NO 
 RMS     Displacement     0.038247     0.001200     NO 
 Predicted change in Energy=-6.721967D-03
 GradGradGradGradGradGradGradGradGradGradGradGradGradGradGradGradGradGrad

                          Input orientation:                          
 ---------------------------------------------------------------------
 Center     Atomic      Atomic             Coordinates (Angstroms)
 Number     Number       Type             X           Y           Z
 ---------------------------------------------------------------------
      1          6           0       -0.751014   -0.118873    0.228472
      2          6           0       -2.099611    0.312639    0.696470
      3          8           0       -2.301927    1.187341    1.527112
      4          6           0        0.238087    0.820400    0.289869
      5          6           0       -1.136807    2.975537   -1.334875
      6          1           0       -0.977006    3.589320   -2.227547
      7          1           0       -2.082829    2.436080   -1.445191
      8          1           0       -1.207577    3.631419   -0.461742
      9          7           0       -0.036569    2.022688   -1.156944
     10          1           0        0.026227    1.470930   -2.018066
     11          1           0        0.835481    2.565135   -1.160815
     12          6           0        1.693797    0.458611    0.254061
     13          6           0        2.321239   -0.061654   -0.886273
     14          6           0        3.685620   -0.358905   -0.873990
     15          6           0        4.439759   -0.131931    0.275583
     16          6           0        3.830262    0.395023    1.412468
     17          6           0        2.466117    0.692673    1.400297
     18          1           0        1.751336   -0.242253   -1.794581
     19          1           0        4.158932   -0.769114   -1.763244
     20          1           0        5.502146   -0.365382    0.285450
     21          1           0        4.416166    0.574888    2.311126
     22          1           0        2.005335    1.103880    2.296974
     23          1           0        0.021069    1.696755    0.920577
     24         35           0       -0.541573   -1.882120   -0.384233
     25          8           0       -3.083256   -0.381235    0.067284
     26          6           0       -4.404132   -0.021790    0.462673
     27          1           0       -5.103065   -0.643429   -0.104655
     28          1           0       -4.553423   -0.213367    1.530815
     29          1           0       -4.603144    1.030102    0.230516
 ---------------------------------------------------------------------
                    Distance matrix (angstroms):
                    1          2          3          4          5
     1  C    0.000000
     2  C    1.491287   0.000000
     3  O    2.407902   1.223112   0.000000
     4  C    1.365402   2.426515   2.849050   0.000000
     5  C    3.488303   3.484878   3.570171   3.028984   0.000000
     6  H    4.453515   4.532853   4.649987   3.934559   1.095047
     7  H    3.332065   3.015956   3.231398   3.317756   1.094596
     8  H    3.840512   3.626497   3.335665   3.249107   1.094327
     9  N    2.648791   3.258152   3.610237   1.901106   1.466323
    10  H    2.859809   3.637242   4.250766   2.407205   2.020702
    11  H    3.413353   4.139807   4.355065   2.346372   2.022040
    12  C    2.512219   3.821908   4.256468   1.500422   4.107548
    13  C    3.268742   4.710530   5.362656   2.549677   4.624268
    14  C    4.577856   6.032099   6.633769   3.825024   5.881048
    15  C    5.191003   6.567964   6.982630   4.308269   6.583921
    16  C    4.759624   5.973511   6.184226   3.787465   6.235280
    17  C    3.518766   4.635264   4.795313   2.492686   5.066922
    18  H    3.220205   4.619852   5.431972   2.786410   4.348203
    19  H    5.338288   6.811002   7.509784   4.702643   6.500059
    20  H    6.258277   7.642995   8.053337   5.395963   7.606766
    21  H    5.614134   6.717979   6.791358   4.647806   7.063423
    22  H    3.656676   4.476411   4.376317   2.689237   5.154268
    23  H    2.090843   2.542299   2.454322   1.101313   2.839546
    24  Br   1.878381   2.900408   4.021651   2.892385   4.985464
    25  O    2.352482   1.358269   2.280791   3.539038   4.125849
    26  C    3.661904   2.340367   2.648451   4.721158   4.784407
    27  H    4.396190   3.252169   3.723004   5.552148   5.508317
    28  H    4.020366   2.644619   2.651647   5.056401   5.482203
    29  H    4.019832   2.645665   2.646032   4.846134   4.272079
                    6          7          8          9         10
     6  H    0.000000
     7  H    1.779014   0.000000
     8  H    1.781292   1.778222   0.000000
     9  N    2.117769   2.107405   2.107743   0.000000
    10  H    2.353281   2.389103   2.934643   1.024651   0.000000
    11  H    2.339226   2.934971   2.408267   1.027002   1.608432
    12  C    4.805508   4.589198   4.358561   2.726067   2.994685
    13  C    5.099710   5.093808   5.125579   3.158640   2.982759
    14  C    6.257849   6.435310   6.327402   4.427950   4.248337
    15  C    7.032404   7.218025   6.826335   5.170303   5.225826
    16  C    6.823713   6.877264   6.274292   4.919711   5.234197
    17  C    5.779871   5.641735   5.059589   3.817311   4.271294
    18  H    4.723585   4.690027   5.053410   2.955189   2.441504
    19  H    6.751991   7.023817   7.061021   5.075824   4.707652
    20  H    7.995888   8.268927   7.845578   6.201673   6.218032
    21  H    7.666332   7.733750   6.975504   5.826705   6.230277
    22  H    5.961799   5.700143   4.931710   4.116203   4.761424
[...]
 Alpha  occ. eigenvalues --   -0.34031  -0.33577  -0.32074  -0.24688
 Alpha virt. eigenvalues --    0.04134   0.05173   0.09776   0.11585   0.12445
 Alpha virt. eigenvalues --    0.14180   0.15559   0.16296   0.17950   0.18385
 Alpha virt. eigenvalues --    0.19305   0.19496   0.20774   0.21698   0.22494
 Alpha virt. eigenvalues --    0.22677   0.22908   0.23869   0.24029   0.24842
 Alpha virt. eigenvalues --    0.26134   0.26734   0.30372   0.34352   0.35986
 Alpha virt. eigenvalues --    0.36287   0.37626   0.37940   0.39455   0.40090
 Alpha virt. eigenvalues --    0.42321   0.43443   0.45541   0.47465   0.48124
 Alpha virt. eigenvalues --    0.49417   0.50455   0.51027   0.52342   0.53853
 Alpha virt. eigenvalues --    0.54702   0.55302   0.55583   0.56054   0.57030
 Alpha virt. eigenvalues --    0.57628   0.57878   0.59640   0.60520   0.61811
 Alpha virt. eigenvalues --    0.62671   0.63003   0.64119   0.65118   0.65744
 Alpha virt. eigenvalues --    0.66545   0.67469   0.69073   0.70275   0.70391
 Alpha virt. eigenvalues --    0.71167   0.72234   0.72848   0.73382   0.73838
 Alpha virt. eigenvalues --    0.74131   0.74337   0.75095   0.75549   0.76124
 Alpha virt. eigenvalues --    0.76273   0.77412   0.77947   0.78495   0.79471
 Alpha virt. eigenvalues --    0.79539   0.81017   0.82269   0.82716   0.83350
 Alpha virt. eigenvalues --    0.84088   0.84999   0.86298   0.87614   0.88151
 Alpha virt. eigenvalues --    0.90180   0.91632   0.93170   0.94980   0.97050
 Alpha virt. eigenvalues --    0.99471   1.01157   1.02927   1.05871   1.08504
 Alpha virt. eigenvalues --    1.09225   1.11006   1.14457   1.15605   1.16552
 Alpha virt. eigenvalues --    1.20021   1.23588   1.23864   1.26260   1.27670
 Alpha virt. eigenvalues --    1.28962   1.32313   1.33562   1.34615   1.36016
 Alpha virt. eigenvalues --    1.36922   1.37752   1.38155   1.39749   1.41505
 Alpha virt. eigenvalues --    1.43194   1.47323   1.50177   1.56519   1.57273
 Alpha virt. eigenvalues --    1.58022   1.61062   1.61890   1.62463   1.62896
 Alpha virt. eigenvalues --    1.66601   1.68459   1.71529   1.72508   1.75625
 Alpha virt. eigenvalues --    1.77320   1.78204   1.81290   1.82397   1.83072
 Alpha virt. eigenvalues --    1.83500   1.83589   1.84093   1.84968   1.85678
 Alpha virt. eigenvalues --    1.86451   1.87825   1.88216   1.88761   1.91109
 Alpha virt. eigenvalues --    1.92341   1.93753   1.95643   1.96524   1.97249
 Alpha virt. eigenvalues --    1.99804   2.01108   2.02097   2.03755   2.04602
 Alpha virt. eigenvalues --    2.05941   2.06272   2.06852   2.07520   2.08817
 Alpha virt. eigenvalues --    2.10214   2.13613   2.14600   2.15744   2.17794
 Alpha virt. eigenvalues --    2.20073   2.20318   2.22132   2.24454   2.26166
 Alpha virt. eigenvalues --    2.28343   2.28933   2.33490   2.36102   2.37157
 Alpha virt. eigenvalues --    2.38385   2.39392   2.41496   2.41881   2.42445
 Alpha virt. eigenvalues --    2.43517   2.46516   2.48750   2.51628   2.52447
 Alpha virt. eigenvalues --    2.56170   2.62361   2.64574   2.68648   2.69951
 Alpha virt. eigenvalues --    2.71473   2.74131   2.75637   2.76172   2.76617
 Alpha virt. eigenvalues --    2.77512   2.79175   2.80183   2.80994   2.81602
 Alpha virt. eigenvalues --    2.86267   2.90738   2.95434   2.95809   2.96706
 Alpha virt. eigenvalues --    2.99853   3.01567   3.03595   3.04621   3.05350
 Alpha virt. eigenvalues --    3.08119   3.10896   3.15917   3.17632   3.21018
 Alpha virt. eigenvalues --    3.24889   3.29329   3.31783   3.33477   3.46884
 Alpha virt. eigenvalues --    3.55289   3.57305   3.60971   3.65710   3.71221
 Alpha virt. eigenvalues --    3.73629   3.76175   3.80207   3.97137
          Condensed to atoms (all electrons):
               1          2          3          4          5          6
     1  C    5.855620   0.278789  -0.147911   0.475640  -0.000583  -0.000494
     2  C    0.278789   4.439098   0.689659  -0.042264   0.005309   0.000082
     3  O   -0.147911   0.689659   7.844269   0.002331  -0.002746   0.000188
     4  C    0.475640  -0.042264   0.002331   4.918319  -0.027180   0.004797
     5  C   -0.000583   0.005309  -0.002746  -0.027180   4.535120   0.399629
     6  H   -0.000494   0.000082   0.000188   0.004797   0.399629   0.589063
     7  H    0.016955   0.000315  -0.001726  -0.016840   0.400931  -0.020681
     8  H   -0.011657   0.003224   0.013154   0.000128   0.401355  -0.017130
     9  N   -0.100185  -0.002654   0.000318   0.114806   0.300049  -0.018054
    10  H   -0.000954  -0.000637  -0.000074  -0.001073  -0.018672  -0.005459
    11  H    0.007816  -0.000040  -0.000184  -0.013845  -0.017198  -0.005005
    12  C   -0.053260   0.010148   0.001711   0.291281   0.006629  -0.000412
    13  C   -0.013394  -0.000341  -0.000006  -0.074196  -0.000015  -0.000027
    14  C   -0.000009   0.000014   0.000000   0.008210   0.000010  -0.000000
    15  C    0.000080   0.000001   0.000000  -0.000203  -0.000000   0.000000
    16  C   -0.000510  -0.000040  -0.000002   0.013669   0.000006  -0.000000
    17  C    0.003899  -0.000285  -0.000143  -0.059258  -0.000076  -0.000001
    18  H   -0.001954   0.000095  -0.000000  -0.010716  -0.000226   0.000008
    19  H    0.000001  -0.000000  -0.000000  -0.000227  -0.000000   0.000000
    20  H    0.000000   0.000000   0.000000   0.000020   0.000000  -0.000000
    21  H   -0.000001   0.000000   0.000000  -0.000297  -0.000000   0.000000
    22  H    0.001214  -0.000011  -0.000117  -0.016091  -0.000019  -0.000000
    23  H   -0.033453  -0.006306   0.032850   0.367701  -0.002299  -0.000146
    24  Br   0.173695  -0.031570   0.001935  -0.066604  -0.001767  -0.000003
    25  O   -0.145760   0.418394  -0.085083   0.003027  -0.000386  -0.000002
    26  C    0.012180  -0.038203   0.002316  -0.000279  -0.000020  -0.000000
    27  H    0.000363   0.004794   0.000933   0.000011  -0.000000  -0.000000
    28  H    0.000283  -0.004479   0.007133  -0.000060  -0.000008  -0.000000
    29  H    0.000626  -0.004953   0.009692   0.000077   0.000050   0.000003
               7          8          9         10         11         12
     1  C    0.016955  -0.011657  -0.100185  -0.000954   0.007816  -0.053260
     2  C    0.000315   0.003224  -0.002654  -0.000637  -0.000040   0.010148
     3  O   -0.001726   0.013154   0.000318  -0.000074  -0.000184   0.001711
     4  C   -0.016840   0.000128   0.114806  -0.001073  -0.013845   0.291281
     5  C    0.400931   0.401355   0.300049  -0.018672  -0.017198   0.006629
     6  H   -0.020681  -0.017130  -0.018054  -0.005459  -0.005005  -0.000412
     7  H    0.550357  -0.014141  -0.014864  -0.004470   0.005748   0.000775
     8  H   -0.014141   0.548411  -0.016067   0.005195  -0.006321   0.000560
     9  N   -0.014864  -0.016067   6.331699   0.341807   0.340602  -0.058185
    10  H   -0.004470   0.005195   0.341807   0.511937  -0.013618  -0.009545
    11  H    0.005748  -0.006321   0.340602  -0.013618   0.513510   0.009351
    12  C    0.000775   0.000560  -0.058185  -0.009545   0.009351   5.324761
    13  C   -0.000078   0.000056  -0.009699   0.009602  -0.001000   0.287808
    14  C    0.000000  -0.000000   0.000088  -0.000365  -0.000248   0.062915
    15  C    0.000000  -0.000000   0.000016  -0.000001   0.000013  -0.134067
    16  C   -0.000000   0.000001  -0.000366   0.000069  -0.000106   0.060291
    17  C    0.000000  -0.000054   0.001426  -0.000085   0.001390   0.354950
    18  H    0.000057   0.000001   0.000467   0.003598  -0.000157  -0.075093
    19  H    0.000000   0.000000   0.000002   0.000013  -0.000000   0.014357
    20  H   -0.000000   0.000000   0.000000  -0.000001  -0.000000  -0.001441
    21  H   -0.000000   0.000000   0.000002   0.000000  -0.000001   0.014209
    22  H    0.000001  -0.000003   0.000323  -0.000021   0.000061  -0.064197
    23  H   -0.000187   0.004403  -0.028254   0.003676  -0.003184  -0.017389
    24  Br   0.003644   0.000139   0.003467   0.002174  -0.000196  -0.013375
    25  O    0.000620   0.000102   0.000035  -0.000001  -0.000001   0.000044
    26  C   -0.000000  -0.000044   0.000001  -0.000000  -0.000000  -0.000001
    27  H   -0.000000  -0.000000  -0.000000   0.000000   0.000000  -0.000000
    28  H    0.000014  -0.000020   0.000002   0.000000  -0.000000  -0.000002
    29  H   -0.000078   0.000116  -0.000009   0.000000   0.000000   0.000001
              13         14         15         16         17         18
     1  C   -0.013394  -0.000009   0.000080  -0.000510   0.003899  -0.001954
     2  C   -0.000341   0.000014   0.000001  -0.000040  -0.000285   0.000095
     3  O   -0.000006   0.000000   0.000000  -0.000002  -0.000143  -0.000000
     4  C   -0.074196   0.008210  -0.000203   0.013669  -0.059258  -0.010716
     5  C   -0.000015   0.000010  -0.000000   0.000006  -0.000076  -0.000226
     6  H   -0.000027  -0.000000   0.000000  -0.000000  -0.000001   0.000008
     7  H   -0.000078   0.000000   0.000000  -0.000000   0.000000   0.000057
     8  H    0.000056  -0.000000  -0.000000   0.000001  -0.000054   0.000001
     9  N   -0.009699   0.000088   0.000016  -0.000366   0.001426   0.000467
    10  H    0.009602  -0.000365  -0.000001   0.000069  -0.000085   0.003598
    11  H   -0.001000  -0.000248   0.000013  -0.000106   0.001390  -0.000157
    12  C    0.287808   0.062915  -0.134067   0.060291   0.354950  -0.075093
    13  C    5.106960   0.363451   0.055055  -0.116391   0.029484   0.436196
    14  C    0.363451   4.965464   0.327134   0.059749  -0.112018  -0.045640
    15  C    0.055055   0.327134   5.056090   0.316826   0.060840   0.012198
    16  C   -0.116391   0.059749   0.316826   5.021350   0.332143  -0.001542
    17  C    0.029484  -0.112018   0.060840   0.332143   5.026847   0.011107
    18  H    0.436196  -0.045640   0.012198  -0.001542   0.011107   0.646822
    19  H   -0.061141   0.447019  -0.066513   0.012368  -0.001668  -0.012017
    20  H    0.012597  -0.062826   0.447004  -0.063103   0.012293  -0.000201
    21  H   -0.001604   0.012204  -0.066292   0.447862  -0.062127   0.000022
    22  H    0.013020  -0.001669   0.012379  -0.057966   0.449051  -0.000160
    23  H    0.007941  -0.000209  -0.000024   0.000599  -0.011493  -0.000063
    24  Br   0.001023  -0.000388  -0.000035   0.000016   0.000132   0.016908
    25  O    0.000002  -0.000000   0.000000  -0.000000  -0.000004   0.000002
    26  C   -0.000000   0.000000  -0.000000   0.000000   0.000000  -0.000000
    27  H    0.000000  -0.000000  -0.000000   0.000000  -0.000000  -0.000000
    28  H   -0.000000   0.000000   0.000000  -0.000000   0.000000   0.000000
    29  H    0.000000  -0.000000  -0.000000   0.000000  -0.000000   0.000000
              19         20         21         22         23         24
     1  C    0.000001   0.000000  -0.000001   0.001214  -0.033453   0.173695
     2  C   -0.000000   0.000000   0.000000  -0.000011  -0.006306  -0.031570
     3  O   -0.000000   0.000000   0.000000  -0.000117   0.032850   0.001935
     4  C   -0.000227   0.000020  -0.000297  -0.016091   0.367701  -0.066604
     5  C   -0.000000   0.000000  -0.000000  -0.000019  -0.002299  -0.001767
     6  H    0.000000  -0.000000   0.000000  -0.000000  -0.000146  -0.000003
     7  H    0.000000  -0.000000  -0.000000   0.000001  -0.000187   0.003644
     8  H    0.000000   0.000000   0.000000  -0.000003   0.004403   0.000139
     9  N    0.000002   0.000000   0.000002   0.000323  -0.028254   0.003467
    10  H    0.000013  -0.000001   0.000000  -0.000021   0.003676   0.002174
    11  H   -0.000000  -0.000000  -0.000001   0.000061  -0.003184  -0.000196
    12  C    0.014357  -0.001441   0.014209  -0.064197  -0.017389  -0.013375
    13  C   -0.061141   0.012597  -0.001604   0.013020   0.007941   0.001023
    14  C    0.447019  -0.062826   0.012204  -0.001669  -0.000209  -0.000388
    15  C   -0.066513   0.447004  -0.066292   0.012379  -0.000024  -0.000035
    16  C    0.012368  -0.063103   0.447862  -0.057966   0.000599   0.000016
    17  C   -0.001668   0.012293  -0.062127   0.449051  -0.011493   0.000132
    18  H   -0.012017  -0.000201   0.000022  -0.000160  -0.000063   0.016908
    19  H    0.647867  -0.010699  -0.000205   0.000020   0.000005  -0.000024
    20  H   -0.010699   0.644081  -0.010679  -0.000198  -0.000001   0.000000
    21  H   -0.000205  -0.010679   0.645336  -0.011100   0.000009   0.000000
    22  H    0.000020  -0.000198  -0.011100   0.643471   0.004134   0.000005
    23  H    0.000005  -0.000001   0.000009   0.004134   0.627063   0.004603
    24  Br  -0.000024   0.000000   0.000000   0.000005   0.004603  35.018537
    25  O   -0.000000   0.000000   0.000000  -0.000001   0.001534   0.007669
    26  C   -0.000000   0.000000  -0.000000   0.000000  -0.000097  -0.000130
    27  H    0.000000  -0.000000   0.000000   0.000000  -0.000003  -0.000066
    28  H    0.000000   0.000000  -0.000000  -0.000000   0.000023  -0.000014
    29  H   -0.000000  -0.000000  -0.000000   0.000000  -0.000058  -0.000040
              25         26         27         28         29
     1  C   -0.145760   0.012180   0.000363   0.000283   0.000626
     2  C    0.418394  -0.038203   0.004794  -0.004479  -0.004953
     3  O   -0.085083   0.002316   0.000933   0.007133   0.009692
     4  C    0.003027  -0.000279   0.000011  -0.000060   0.000077
     5  C   -0.000386  -0.000020  -0.000000  -0.000008   0.000050
     6  H   -0.000002  -0.000000  -0.000000  -0.000000   0.000003
     7  H    0.000620  -0.000000  -0.000000   0.000014  -0.000078
     8  H    0.000102  -0.000044  -0.000000  -0.000020   0.000116
     9  N    0.000035   0.000001  -0.000000   0.000002  -0.000009
    10  H   -0.000001  -0.000000   0.000000   0.000000   0.000000
    11  H   -0.000001  -0.000000   0.000000  -0.000000   0.000000
    12  C    0.000044  -0.000001  -0.000000  -0.000002   0.000001
    13  C    0.000002  -0.000000   0.000000  -0.000000   0.000000
    14  C   -0.000000   0.000000  -0.000000   0.000000  -0.000000
    15  C    0.000000  -0.000000  -0.000000   0.000000  -0.000000
    16  C   -0.000000   0.000000   0.000000  -0.000000   0.000000
    17  C   -0.000004   0.000000  -0.000000   0.000000  -0.000000
    18  H    0.000002  -0.000000  -0.000000   0.000000   0.000000
    19  H   -0.000000  -0.000000   0.000000   0.000000  -0.000000
    20  H    0.000000   0.000000  -0.000000   0.000000  -0.000000
    21  H    0.000000  -0.000000   0.000000  -0.000000  -0.000000
    22  H   -0.000001   0.000000   0.000000  -0.000000   0.000000
    23  H    0.001534  -0.000097  -0.000003   0.000023  -0.000058
    24  Br   0.007669  -0.000130  -0.000066  -0.000014  -0.000040
    25  O    7.947402   0.281218  -0.024191  -0.028857  -0.029950
    26  C    0.281218   4.395401   0.397799   0.404837   0.400713
    27  H   -0.024191   0.397799   0.626696  -0.025444  -0.025513
    28  H   -0.028857   0.404837  -0.025444   0.643621  -0.034760
    29  H   -0.029950   0.400713  -0.025513  -0.034760   0.652026
 Mulliken charges:
               1
     1  C   -0.317038
     2  C    0.281861
     3  O   -0.368498
     4  C    0.129117
     5  C    0.022107
     6  H    0.073645
     7  H    0.093649
     8  H    0.088590
     9  N   -0.186776
    10  H    0.176903
    11  H    0.182615
    12  C   -0.012822
    13  C   -0.045306
    14  C   -0.022887
    15  C   -0.020500
    16  C   -0.024923
    17  C   -0.036351
    18  H    0.020289
    19  H    0.030844
    20  H    0.033154
    21  H    0.032661
    22  H    0.027876
    23  H    0.048623
    24  Br  -0.119737
    25  O   -0.345815
    26  C    0.144308
    27  H    0.044622
    28  H    0.037730
    29  H    0.032056
 Sum of Mulliken charges =  -0.00000
 Mulliken charges with hydrogens summed into heavy atoms:
               1
     1  C   -0.317038
     2  C    0.281861
     3  O   -0.368498
     4  C    0.177740
     5  C    0.277991
     9  N    0.172743
    12  C   -0.012822
    13  C   -0.025017
    14  C    0.007957
    15  C    0.012654
    16  C    0.007738
    17  C   -0.008475
    24  Br  -0.119737
    25  O   -0.345815
    26  C    0.258717
 Electronic spatial extent (au):  <R**2>=           4406.6911
 Charge=              0.0000 electrons
 Dipole moment (field-independent basis, Debye):
    X=              4.1768    Y=              3.4158    Z=             -5.3061  Tot=              7.5676
 Quadrupole moment (field-independent basis, Debye-Ang):
   XX=            -92.7980   YY=           -100.9223   ZZ=            -88.3325
   XY=              3.0031   XZ=              0.8809   YZ=             -6.9742
 Traceless Quadrupole moment (field-independent basis, Debye-Ang):
   XX=              1.2196   YY=             -6.9047   ZZ=              5.6851
   XY=              3.0031   XZ=              0.8809   YZ=             -6.9742
 Octapole moment (field-independent basis, Debye-Ang**2):
  XXX=            -42.7021  YYY=            -39.6159  ZZZ=            -38.1705  XYY=              6.2808
  XXY=            -29.7381  XXZ=             13.5631  XZZ=            -11.3924  YZZ=              6.6729
  YYZ=            -26.8042  XYZ=             14.6984
 Hexadecapole moment (field-independent basis, Debye-Ang**3):
 XXXX=          -3411.8634 YYYY=           -978.1672 ZZZZ=           -718.4298 XXXY=            -17.1772
 XXXZ=              4.5135 YYYX=             68.8303 YYYZ=            -28.5643 ZZZX=            -14.4740
 ZZZY=            -21.4626 XXYY=           -834.4714 XXZZ=           -714.9096 YYZZ=           -264.4287
 XXYZ=             17.7618 YYXZ=              8.4208 ZZXY=             25.5393
 N-N= 1.371981907316D+03 E-N=-1.036833352180D+04  KE= 3.196657979512D+03
 Unable to Open any file for archive entry.
 1\1\GINC-NODE-007\FTS\RwB97XD\def2SVP\C11H14Br1N1O2\JP2658\01-Jan-2024
 \0\\# wb97xd def2svp scrf=(iefpcm,solvent=toluene) opt=(calcfc,ts,noei
 gen,maxcycles=50,maxstep=10)\\TS-68.out\\0,1\C,-0.8834055595,0.1387947
 839,-0.1413426502\C,-2.1220691891,0.4485890156,0.5015223892\O,-2.31620
 42384,1.4417820378,1.2015630768\C,0.2104440589,1.0317287285,0.04194977
 52\C,-1.038756721,2.7995906477,-1.5310218627\H,-0.9636081584,3.5643047
 778,-2.314857627\H,-1.6671980189,1.9696451836,-1.8767926788\H,-1.49111
 05116,3.2147969576,-0.6232073867\N,0.2838712014,2.2614624659,-1.200454
 7102\H,0.7213896112,1.8440325466,-2.0246341254\H,0.9214838644,2.990187
 8738,-0.8724197679\C,1.6389474191,0.5679239555,0.132663039\C,2.3342616
 313,0.0064229896,-0.9463901172\C,3.6561079896,-0.4109450364,-0.8003509
 165\C,4.3029178865,-0.2801453157,0.4277903098\C,3.6204652027,0.2756766
 376,1.509133358\C,2.3021496691,0.7011679503,1.3589823209\H,1.837679515
 9,-0.1293667936,-1.9098008471\H,4.1809042822,-0.8487829683,-1.65220836
 24\H,5.3373365498,-0.6113127123,0.5416746907\H,4.1174193005,0.38254432
 51,2.4757469011\H,1.7726774023,1.1360452992,2.2105822963\H,-0.04538018
 04,1.6890640979,0.8824838939\Br,-0.7640881325,-1.3395641744,-1.3390658
 922\O,-3.1079631108,-0.4524364967,0.2904357386\C,-4.3355325619,-0.1961
 391472,0.9353583739\H,-5.0146506524,-1.0044843672,0.6377976769\H,-4.22
 20591681,-0.1919623572,2.0302215714\H,-4.7563893818,0.7747490949,0.632
 2315326\\Version=ES64L-G16RevC.01\State=1-A\HF=-3206.0025458\RMSD=4.50
 5e-09\RMSF=7.096e-06\Dipole=1.6435488,2.1280629,-1.278489\Quadrupole=0
 .816555,0.6645697,-1.4811247,1.8511254,1.6613251,-6.854346\PG=C01 [X(C
 11H14Br1N1O2)]\\@
 The archive entry for this job was punched.


 The earth never tires,
 The earth is rude, silent, incomprehensible at first,
 Nature is rude and incomprehensible at first,
 Be not discouraged, keep on,
 There are divine things well envelop'd,
 I swear to you there are divine things more beautiful than words can tell.
                                 -- Walt Whitman
 Job cpu time:       0 days  4 hours 11 minutes 38.1 seconds.
 Elapsed time:       0 days  0 hours 21 minutes 28.2 seconds.
 File lengths (MBytes):  RWF=    421 Int=      0 D2E=      0 Chk=     16 Scr=      1
 Normal termination of Gaussian 16 at Mon Jan  1 11:15:54 2024.
