Unloading slurm/anatra/current
  ERROR: No such file or directory on
    '/cm/local/modulefiles/slurm/anatra/current'
environment: line 0: unalias: gv: not found
environment: line 0: unalias: sl: not found
 Entering Gaussian System, Link 0=g16
 Initial command:
 /apps/gaussian/g16/C.01/g16/l1.exe "/local/jobs/1153287/Gau-1716718.inp" -scrdir="/local/jobs/1153287/"
 Entering Link 1 = /apps/gaussian/g16/C.01/g16/l1.exe PID=   1716730.
  
 Copyright (c) 1988-2019, Gaussian, Inc.  All Rights Reserved.
  
 This is part of the Gaussian(R) 16 program.  It is based on
 the Gaussian(R) 09 system (copyright 2009, Gaussian, Inc.),
 the Gaussian(R) 03 system (copyright 2003, Gaussian, Inc.),
 the Gaussian(R) 98 system (copyright 1998, Gaussian, Inc.),
 the Gaussian(R) 94 system (copyright 1995, Gaussian, Inc.),
 the Gaussian 92(TM) system (copyright 1992, Gaussian, Inc.),
 the Gaussian 90(TM) system (copyright 1990, Gaussian, Inc.),
 the Gaussian 88(TM) system (copyright 1988, Gaussian, Inc.),
 the Gaussian 86(TM) system (copyright 1986, Carnegie Mellon
 University), and the Gaussian 82(TM) system (copyright 1983,
 Carnegie Mellon University). Gaussian is a federally registered
 trademark of Gaussian, Inc.
  
 This software contains proprietary and confidential information,
 including trade secrets, belonging to Gaussian, Inc.
  
 This software is provided under written license and may be
 used, copied, transmitted, or stored only in accord with that
 written license.
  
 The following legend is applicable only to US Government
 contracts under FAR:
  
                    RESTRICTED RIGHTS LEGEND
  
 Use, reproduction and disclosure by the US Government is
 subject to restrictions as set forth in subparagraphs (a)
 and (c) of the Commercial Computer Software - Restricted
 Rights clause in FAR 52.227-19.
  
 Gaussian, Inc.
 340 Quinnipiac St., Bldg. 40, Wallingford CT 06492
  
  
 ---------------------------------------------------------------
 Warning -- This program may not be used in any manner that
 competes with the business of Gaussian, Inc. or will provide
 assistance to any competitor of Gaussian, Inc.  The licensee
 of this program is prohibited from giving any competitor of
 Gaussian, Inc. access to this program.  By using this program,
 the user acknowledges that Gaussian, Inc. is engaged in the
 business of creating and licensing software in the field of
 computational chemistry and represents and warrants to the
 licensee that it is not a competitor of Gaussian, Inc. and that
 it will not use this program in any manner prohibited above.
 ---------------------------------------------------------------
  

 Cite this work as:
 Gaussian 16, Revision C.01,
 M. J. Frisch, G. W. Trucks, H. B. Schlegel, G. E. Scuseria, 
 M. A. Robb, J. R. Cheeseman, G. Scalmani, V. Barone, 
 G. A. Petersson, H. Nakatsuji, X. Li, M. Caricato, A. V. Marenich, 
 J. Bloino, B. G. Janesko, R. Gomperts, B. Mennucci, H. P. Hratchian, 
 J. V. Ortiz, A. F. Izmaylov, J. L. Sonnenberg, D. Williams-Young, 
 F. Ding, F. Lipparini, F. Egidi, J. Goings, B. Peng, A. Petrone, 
 T. Henderson, D. Ranasinghe, V. G. Zakrzewski, J. Gao, N. Rega, 
 G. Zheng, W. Liang, M. Hada, M. Ehara, K. Toyota, R. Fukuda, 
 J. Hasegawa, M. Ishida, T. Nakajima, Y. Honda, O. Kitao, H. Nakai, 
 T. Vreven, K. Throssell, J. A. Montgomery, Jr., J. E. Peralta, 
 F. Ogliaro, M. J. Bearpark, J. J. Heyd, E. N. Brothers, K. N. Kudin, 
 V. N. Staroverov, T. A. Keith, R. Kobayashi, J. Normand, 
 K. Raghavachari, A. P. Rendell, J. C. Burant, S. S. Iyengar, 
 J. Tomasi, M. Cossi, J. M. Millam, M. Klene, C. Adamo, R. Cammi, 
 J. W. Ochterski, R. L. Martin, K. Morokuma, O. Farkas, 
 J. B. Foresman, and D. J. Fox, Gaussian, Inc., Wallingford CT, 2019.
 
 ******************************************
 Gaussian 16:  ES64L-G16RevC.01  3-Jul-2019
                 1-Jan-2024 
 ******************************************
 %chk=TS-68_opt_hf_freq.chk
 %nprocshared=12
 Will use up to   12 processors via shared memory.
 %mem=48GB
 -----------------------------------------------------------
 # wb97xd def2svp scrf=(iefpcm,solvent=toluene) freq=noraman
 -----------------------------------------------------------
 1/10=4,30=1,38=1/1,3;
 2/12=2,17=6,18=5,40=1/2;
 3/5=43,7=101,11=2,25=1,30=1,70=2201,71=2,72=13,74=-58,140=1/1,2,3;
 4//1;
 5/5=2,38=5,53=13,98=1/2;
 8/6=4,10=90,11=11/1;
 11/6=1,8=1,9=11,15=111,16=1/1,2,10;
 10/6=1/2;
 6/7=2,8=2,9=2,10=2,28=1/1;
 7/8=1,10=1,25=1/1,2,3,16;
 1/10=4,30=1/3;
 99//99;
 ----------------
 TS-68_opt_hf.out
 ----------------
 Symbolic Z-matrix:
 Charge =  0 Multiplicity = 1
 C                    -0.81399   0.04612   0.1277 
 C                    -2.03843   0.62262   0.58792 
 O                    -2.21079   1.82349   0.79393 
 C                     0.29174   0.91309  -0.1034 
 C                    -0.9659    1.85144  -2.27056 
 H                    -0.896     2.20327  -3.30794 
 H                    -1.60816   0.96367  -2.21879 
 H                    -1.39908   2.624    -1.62507 
 N                     0.35661   1.48671  -1.75457 
 H                     0.77624   0.74822  -2.32333 
 H                     1.00676   2.27532  -1.7792 
 C                     1.71681   0.51021   0.16293 
 C                     2.3883   -0.47228  -0.57661 
 C                     3.70809  -0.80772  -0.27922 
 C                     4.37657  -0.17174   0.76598 
 C                     3.71791   0.8064    1.5099 
 C                     2.40167   1.14735   1.20527 
 H                     1.87437  -1.00134  -1.38232 
 H                     4.21413  -1.57805  -0.86513 
 H                     5.40932  -0.43852   1.00031 
 H                     4.23196   1.31069   2.33098 
 H                     1.89091   1.91495   1.79228 
 H                     0.05667   1.87222   0.37498 
 Br                   -0.72965  -1.8055   -0.31807 
 O                    -3.03674  -0.26529   0.79631 
 C                    -4.25062   0.26371   1.28127 
 H                    -4.94277  -0.58277   1.36825 
 H                    -4.11869   0.73695   2.26629 
 H                    -4.66671   1.01629   0.59415 
 

 GradGradGradGradGradGradGradGradGradGradGradGradGradGradGradGradGradGrad
 Berny optimization.
 Initialization pass.
 Trust Radius=3.00D-01 FncErr=1.00D-07 GrdErr=1.00D-07 EigMax=2.50D+02 EigMin=1.00D-04
 Number of steps in this run=      2 maximum allowed number of steps=      2.
 GradGradGradGradGradGradGradGradGradGradGradGradGradGradGradGradGradGrad

                          Input orientation:                          
 ---------------------------------------------------------------------
 Center     Atomic      Atomic             Coordinates (Angstroms)
 Number     Number       Type             X           Y           Z
 ---------------------------------------------------------------------
      1          6           0       -0.813990    0.046120    0.127700
      2          6           0       -2.038430    0.622620    0.587920
      3          8           0       -2.210790    1.823490    0.793930
      4          6           0        0.291740    0.913090   -0.103400
      5          6           0       -0.965900    1.851440   -2.270560
      6          1           0       -0.896000    2.203270   -3.307940
      7          1           0       -1.608160    0.963670   -2.218790
      8          1           0       -1.399080    2.624000   -1.625070
      9          7           0        0.356610    1.486710   -1.754570
     10          1           0        0.776240    0.748220   -2.323330
     11          1           0        1.006760    2.275320   -1.779200
     12          6           0        1.716810    0.510210    0.162930
     13          6           0        2.388300   -0.472280   -0.576610
     14          6           0        3.708090   -0.807720   -0.279220
     15          6           0        4.376570   -0.171740    0.765980
     16          6           0        3.717910    0.806400    1.509900
     17          6           0        2.401670    1.147350    1.205270
     18          1           0        1.874370   -1.001340   -1.382320
     19          1           0        4.214130   -1.578050   -0.865130
     20          1           0        5.409320   -0.438520    1.000310
     21          1           0        4.231960    1.310690    2.330980
     22          1           0        1.890910    1.914950    1.792280
     23          1           0        0.056670    1.872220    0.374980
     24         35           0       -0.729650   -1.805500   -0.318070
     25          8           0       -3.036740   -0.265290    0.796310
     26          6           0       -4.250620    0.263710    1.281270
     27          1           0       -4.942770   -0.582770    1.368250
     28          1           0       -4.118690    0.736950    2.266290
     29          1           0       -4.666710    1.016290    0.594150
 ---------------------------------------------------------------------
                    Distance matrix (angstroms):
                    1          2          3          4          5
     1  C    0.000000
     2  C    1.429478   0.000000
     3  O    2.356683   1.230543   0.000000
     4  C    1.423967   2.447854   2.810104   0.000000
     5  C    3.005646   3.291083   3.307814   2.675582   0.000000
     6  H    4.057542   4.356756   4.324147   3.652994   1.097646
     7  H    2.641708   2.859907   3.190444   2.843774   1.096957
     8  H    3.171750   3.051494   2.674182   2.846325   1.095970
     9  N    2.643585   3.459787   3.633155   1.749174   1.465710
    10  H    3.004883   4.051360   4.449254   2.278160   2.062748
    11  H    3.452641   4.196172   4.144608   2.274913   2.076655
    12  C    2.573241   3.780883   4.189142   1.504682   3.862344
    13  C    3.319556   4.706472   5.319828   2.557096   4.418122
    14  C    4.619939   5.985006   6.565673   3.829301   5.734348
    15  C    5.234193   6.466447   6.882953   4.314918   6.469607
    16  C    4.798606   5.832604   6.057769   3.788504   6.109179
    17  C    3.565716   4.513419   4.679867   2.493852   4.890569
    18  H    3.256472   4.672162   5.422570   2.793814   4.122433
    19  H    5.376396   6.785927   7.456712   4.708626   6.369407
    20  H    6.302849   7.534259   7.951438   5.406908   7.522362
    21  H    5.649353   6.544424   6.643381   4.648615   6.963069
    22  H    3.685083   4.308168   4.222441   2.674822   4.967098
    23  H    2.038097   2.448732   2.306354   1.097286   2.836364
    24  Br   1.906389   2.903358   4.074296   2.912053   4.152257
    25  O    2.341929   1.352196   2.246152   3.643739   4.263170
    26  C    3.631597   2.345919   2.613679   4.792916   5.091735
    27  H    4.356752   3.239918   3.685600   5.639454   5.914542
    28  H    3.996480   2.675346   2.643576   5.009825   5.636061
    29  H    4.000282   2.657606   2.592880   5.008338   4.753949
                    6          7          8          9         10
     6  H    0.000000
     7  H    1.797228   0.000000
     8  H    1.806144   1.775645   0.000000
     9  N    2.120247   2.085520   2.095864   0.000000
    10  H    2.425493   2.396395   2.956034   1.022225   0.000000
    11  H    2.441871   2.958289   2.435857   1.022354   1.637453
    12  C    4.662635   4.115051   4.168192   2.545683   2.668859
    13  C    5.040373   4.553065   5.003046   3.058267   2.671963
    14  C    6.279877   5.929778   6.298508   4.321283   3.898087
    15  C    7.073718   6.783436   6.847731   5.026302   4.832446
    16  C    6.815497   6.503452   6.270191   4.734757   4.832231
    17  C    5.688467   5.276046   4.963569   3.613598   3.905425
    18  H    4.653223   4.085213   4.890551   2.938122   2.269879
    19  H    6.810222   6.495521   7.052862   5.006428   4.399655
    20  H    8.080664   7.846895   7.913657   6.068423   5.824119
    21  H    7.673988   7.411331   7.005978   5.633919   5.824172
    22  H    5.819127   5.407135   4.796360   3.888137   4.420633
    23  H    3.818517   3.213217   2.585456   2.184849   3.010321
    24  Br   5.003722   3.471717   4.666568   3.752618   3.579142
    25  O    5.246087   3.555561   4.110110   4.592528   5.029729
    26  C    6.006348   4.441054   4.706279   5.651427   6.204612
    27  H    6.782707   5.135947   5.639244   6.489852   6.935876
    28  H    6.603625   5.144911   5.108808   6.062818   6.710073
    29  H    5.554591   4.155734   4.264631   5.565207   6.181364
                   11         12         13         14         15
    11  H    0.000000
    12  C    2.718760   0.000000
    13  C    3.302148   1.401108   0.000000
    14  C    4.364889   2.428504   1.393846   0.000000
    15  C    4.880744   2.811236   2.417869   1.394195   0.000000
    16  C    4.508463   2.430321   2.785033   2.409654   1.394277
    17  C    3.482119   1.400519   2.408003   2.780781   2.415203
    18  H    3.412735   2.167350   1.092336   2.148685   3.400652
    19  H    5.096195   3.413846   2.153979   1.092143   2.159772
    20  H    5.871383   3.903322   3.407987   2.160484   1.092087
    21  H    5.312815   3.415727   3.877131   3.402241   2.160494
    22  H    3.696898   2.158330   3.399692   3.873782   3.403832
    23  H    2.388651   2.157800   3.440742   4.576344   4.795017
    24  Br   4.669380   3.402799   3.400872   4.548693   5.469718
    25  O    5.425665   4.857860   5.599894   6.851549   7.413962
    26  C    6.407269   6.076320   6.933156   8.180719   8.653528
    27  H    7.312457   6.855466   7.585465   8.809208   9.347822
    28  H    6.708413   6.207141   7.203141   8.374014   8.674450
    29  H    6.277436   6.418052   7.304771   8.615513   9.122601
                   16         17         18         19         20
    16  C    0.000000
    17  C    1.393389   0.000000
    18  H    3.877048   3.404488   0.000000
    19  H    3.401853   3.872902   2.464662   0.000000
    20  H    2.161105   3.406310   4.299949   2.491360   0.000000
    21  H    1.092121   2.154963   4.969136   4.308162   2.493310
    22  H    2.155586   1.093008   4.310813   4.965907   4.306419
    23  H    3.978529   2.591108   3.827464   5.543168   5.863567
    24  Br   5.472137   4.565638   2.925786   4.979153   6.426018
    25  O    6.876265   5.633747   5.422841   7.553730   8.450299
    26  C    7.990260   6.711152   6.797835   8.924747   9.689505
    27  H    8.772527   7.547230   7.363032   9.477731  10.359631
    28  H    7.873325   6.618858   7.228470   9.197875   9.683357
    29  H    8.437091   7.095959   7.124815   9.366398  10.188612
                   21         22         23         24         25
    21  H    0.000000
    22  H    2.477063   0.000000
    23  H    4.644814   2.318405   0.000000
    24  Br   6.430061   5.016240   3.824166   0.000000
    25  O    7.594269   5.479702   3.783603   2.989440   0.000000
    26  C    8.611168   6.380134   4.686301   4.385972   1.410153
    27  H    9.417415   7.288181   5.657558   4.699907   2.015157
    28  H    8.370586   6.142285   4.722237   4.962717   2.082292
    29  H    9.071360   6.726476   4.805306   4.929005   2.083295
                   26         27         28         29
    26  C    0.000000
    27  H    1.096889   0.000000
    28  H    1.100739   1.796453   0.000000
    29  H    1.100746   1.797897   1.781687   0.000000
 Stoichiometry    C11H14BrNO2
 Framework group  C1[X(C11H14BrNO2)]
 Deg. of freedom    81
 Full point group                 C1      NOp   1
 Largest Abelian subgroup         C1      NOp   1
 Largest concise Abelian subgroup C1      NOp   1
                         Standard orientation:                         
 ---------------------------------------------------------------------
 Center     Atomic      Atomic             Coordinates (Angstroms)
 Number     Number       Type             X           Y           Z
 ---------------------------------------------------------------------
      1          6           0       -0.813991   -0.046118   -0.127700
      2          6           0       -2.038431   -0.622618   -0.587920
      3          8           0       -2.210792   -1.823488   -0.793930
      4          6           0        0.291739   -0.913089    0.103400
      5          6           0       -0.965902   -1.851438    2.270560
      6          1           0       -0.896002   -2.203268    3.307940
      7          1           0       -1.608161   -0.963668    2.218790
      8          1           0       -1.399082   -2.623998    1.625070
      9          7           0        0.356608   -1.486709    1.754570
     10          1           0        0.776239   -0.748219    2.323330
     11          1           0        1.006758   -2.275319    1.779200
     12          6           0        1.716809   -0.510210   -0.162930
     13          6           0        2.388299    0.472280    0.576610
     14          6           0        3.708089    0.807719    0.279220
     15          6           0        4.376569    0.171739   -0.765980
     16          6           0        3.717909   -0.806401   -1.509900
     17          6           0        2.401669   -1.147350   -1.205270
     18          1           0        1.874370    1.001340    1.382320
     19          1           0        4.214130    1.578049    0.865130
     20          1           0        5.409319    0.438519   -1.000310
     21          1           0        4.231958   -1.310691   -2.330980
     22          1           0        1.890908   -1.914950   -1.792280
     23          1           0        0.056668   -1.872219   -0.374980
     24         35           0       -0.729650    1.805502    0.318070
     25          8           0       -3.036741    0.265293   -0.796310
     26          6           0       -4.250621   -0.263707   -1.281270
     27          1           0       -4.942771    0.582774   -1.368250
     28          1           0       -4.118691   -0.736947   -2.266290
     29          1           0       -4.666711   -1.016287   -0.594150
 ---------------------------------------------------------------------
 Rotational constants (GHZ):           0.6940359           0.2982724           0.2658493
 Standard basis: def2SVP (5D, 7F)
 There are   315 symmetry adapted cartesian basis functions of A   symmetry.
 There are   298 symmetry adapted basis functions of A   symmetry.
   298 basis functions,   528 primitive gaussians,   315 cartesian basis functions
    69 alpha electrons       69 beta electrons
       nuclear repulsion energy      1372.0192564108 Hartrees.
 NAtoms=   29 NActive=   29 NUniq=   29 SFac= 1.00D+00 NAtFMM=   60 NAOKFM=F Big=F
 Integral buffers will be    131072 words long.
 Raffenetti 2 integral format.
 Two-electron integral symmetry is turned on.
 Nuclear repulsion after empirical dispersion term =     1371.9982569390 Hartrees.
 Force inversion solution in PCM.
 ------------------------------------------------------------------------------
 Polarizable Continuum Model (PCM)
 =================================
 Model                : PCM.
 Atomic radii         : UFF (Universal Force Field).
 Polarization charges : Total charges.
 Charge compensation  : None.
 Solution method      : Matrix inversion.
 Cavity type          : Scaled VdW (van der Waals Surface) (Alpha=1.100).
 Cavity algorithm     : GePol (No added spheres)
                        Default sphere list used, NSphG=   29.
                        Lebedev-Laikov grids with approx.  5.0 points / Ang**2.
                        Smoothing algorithm: York/Karplus (Gamma=1.0000).
                        Polarization charges: spherical gaussians, with
                                              point-specific exponents (IZeta= 3).
                        Self-potential: point-specific (ISelfS= 7).
                        Self-field    : sphere-specific E.n sum rule (ISelfD= 2).
 1st derivatives      : Analytical E(r).r(x)/FMM algorithm (CHGder, D1EAlg=3).
                        Cavity 1st derivative terms included.
 2nd derivatives      : Analytical E(r).r(xy)/FMM algorithm (CHGder, D2EAlg=3).
                        Cavity 2nd derivative terms included.
 Solvent              : Toluene, Eps=   2.374100 Eps(inf)=   2.238315
 ------------------------------------------------------------------------------
 One-electron integrals computed using PRISM.
   1 Symmetry operations used in ECPInt.
 ECPInt:  NShTT=    9591 NPrTT=   36310 LenC2=    8989 LenP2D=   24326.
 LDataN:  DoStor=T MaxTD1= 4 Len=   56
 NBasis=   298 RedAO= T EigKep=  2.85D-04  NBF=   298
 NBsUse=   298 1.00D-06 EigRej= -1.00D+00 NBFU=   298
 ExpMin= 1.22D-01 ExpMax= 1.13D+05 ExpMxC= 1.70D+04 IAcc=3 IRadAn=         5 AccDes= 0.00D+00
 Harris functional with IExCor= 4639 and IRadAn=       5 diagonalized for initial guess.
 HarFok:  IExCor= 4639 AccDes= 0.00D+00 IRadAn=         5 IDoV= 1 UseB2=F ITyADJ=14
 ICtDFT=  3500011 ScaDFX=  1.000000  1.000000  1.000000  1.000000
 FoFCou: FMM=F IPFlag=           0 FMFlag=      100000 FMFlg1=           0
         NFxFlg=           0 DoJE=T BraDBF=F KetDBF=T FulRan=T
         wScrn=  0.000000 ICntrl=       500 IOpCl=  0 I1Cent=   200000004 NGrid=           0
         NMat0=    1 NMatS0=      1 NMatT0=    0 NMatD0=    1 NMtDS0=    0 NMtDT0=    0
 Petite list used in FoFCou.
 Requested convergence on RMS density matrix=1.00D-08 within 128 cycles.
 Requested convergence on MAX density matrix=1.00D-06.
 Requested convergence on             energy=1.00D-06.
 No special actions if energy rises.
 Inv3:  Mode=1 IEnd=    15458700.
 Iteration    1 A*A^-1 deviation from unit magnitude is 3.66D-15 for   1269.
 Iteration    1 A*A^-1 deviation from orthogonality  is 1.92D-15 for   1868    960.
 Iteration    1 A^-1*A deviation from unit magnitude is 3.22D-15 for   1996.
 Iteration    1 A^-1*A deviation from orthogonality  is 1.91D-15 for   1442    227.
 Error on total polarization charges =  0.00636
 SCF Done:  E(RwB97XD) =  -3206.00254599     A.U. after   14 cycles
            NFock= 14  Conv=0.85D-08     -V/T= 2.0029
 DoSCS=F DFT=T ScalE2(SS,OS)=  1.000000  1.000000
 Range of M.O.s used for correlation:     1   298
 NBasis=   298 NAE=    69 NBE=    69 NFC=     0 NFV=     0
 NROrb=    298 NOA=    69 NOB=    69 NVA=   229 NVB=   229

 **** Warning!!: The largest alpha MO coefficient is  0.11366278D+02

   1 Symmetry operations used in ECPInt.
 ECPInt:  NShTT=    9591 NPrTT=   36310 LenC2=    8989 LenP2D=   24326.
 LDataN:  DoStor=T MaxTD1= 5 Len=  102
 Symmetrizing basis deriv contribution to polar:
 IMax=3 JMax=2 DiffMx= 0.00D+00
 G2DrvN: will do    30 centers at a time, making    1 passes.
 Calling FoFCou, ICntrl=  3107 FMM=F I1Cent=   0 AccDes= 0.00D+00.
 NEqPCM:  Using equilibrium solvation (IEInf=0, Eps=   2.3741, EpsInf=   2.2383)
 G2PCM: DoFxE=T DoFxN=T DoGrad=T DoDP/DQ/DG/TGxP=FFFF NFrqRd=   0 IEInf=0 SqF1=F DoCFld=F IF1Alg=4.
 End of G2Drv F.D. properties file   721 does not exist.
 End of G2Drv F.D. properties file   722 does not exist.
 End of G2Drv F.D. properties file   788 does not exist.
          IDoAtm=11111111111111111111111111111
 NEqPCM:  Using equilibrium solvation (IEInf=0, Eps=   2.3741, EpsInf=   2.2383)
          Differentiating once with respect to electric field.
                with respect to dipole field.
          Differentiating once with respect to nuclear coordinates.
 Keep R1 ints in memory in canonical form, NReq=2013993496.
          There are    90 degrees of freedom in the 1st order CPHF.  IDoFFX=6 NUNeed=     3.
     87 vectors produced by pass  0 Test12= 1.76D-14 1.11D-09 XBig12= 8.44D+01 3.60D+00.
 AX will form    87 AO Fock derivatives at one time.
     87 vectors produced by pass  1 Test12= 1.76D-14 1.11D-09 XBig12= 7.42D+00 3.95D-01.
     87 vectors produced by pass  2 Test12= 1.76D-14 1.11D-09 XBig12= 1.73D-01 8.85D-02.
     87 vectors produced by pass  3 Test12= 1.76D-14 1.11D-09 XBig12= 3.07D-03 7.40D-03.
     87 vectors produced by pass  4 Test12= 1.76D-14 1.11D-09 XBig12= 3.75D-05 5.89D-04.
     87 vectors produced by pass  5 Test12= 1.76D-14 1.11D-09 XBig12= 2.66D-07 4.92D-05.
     80 vectors produced by pass  6 Test12= 1.76D-14 1.11D-09 XBig12= 1.51D-09 3.22D-06.
     25 vectors produced by pass  7 Test12= 1.76D-14 1.11D-09 XBig12= 6.59D-12 1.85D-07.
      3 vectors produced by pass  8 Test12= 1.76D-14 1.11D-09 XBig12= 2.98D-14 1.59D-08.
 InvSVY:  IOpt=1 It=  1 EMax= 5.33D-15
 Solved reduced A of dimension   630 with    90 vectors.
 Isotropic polarizability for W=    0.000000      169.18 Bohr**3.
 End of Minotr F.D. properties file   721 does not exist.
 End of Minotr F.D. properties file   722 does not exist.
 End of Minotr F.D. properties file   788 does not exist.

 **********************************************************************

            Population analysis using the SCF Density.

 **********************************************************************

 Orbital symmetries:
       Occupied  (A) (A) (A) (A) (A) (A) (A) (A) (A) (A) (A) (A)
                 (A) (A) (A) (A) (A) (A) (A) (A) (A) (A) (A) (A)
                 (A) (A) (A) (A) (A) (A) (A) (A) (A) (A) (A) (A)
                 (A) (A) (A) (A) (A) (A) (A) (A) (A) (A) (A) (A)
                 (A) (A) (A) (A) (A) (A) (A) (A) (A) (A) (A) (A)
                 (A) (A) (A) (A) (A) (A) (A) (A) (A)
       Virtual   (A) (A) (A) (A) (A) (A) (A) (A) (A) (A) (A) (A)
                 (A) (A) (A) (A) (A) (A) (A) (A) (A) (A) (A) (A)
                 (A) (A) (A) (A) (A) (A) (A) (A) (A) (A) (A) (A)
                 (A) (A) (A) (A) (A) (A) (A) (A) (A) (A) (A) (A)
                 (A) (A) (A) (A) (A) (A) (A) (A) (A) (A) (A) (A)
                 (A) (A) (A) (A) (A) (A) (A) (A) (A) (A) (A) (A)
                 (A) (A) (A) (A) (A) (A) (A) (A) (A) (A) (A) (A)
                 (A) (A) (A) (A) (A) (A) (A) (A) (A) (A) (A) (A)
                 (A) (A) (A) (A) (A) (A) (A) (A) (A) (A) (A) (A)
                 (A) (A) (A) (A) (A) (A) (A) (A) (A) (A) (A) (A)
                 (A) (A) (A) (A) (A) (A) (A) (A) (A) (A) (A) (A)
                 (A) (A) (A) (A) (A) (A) (A) (A) (A) (A) (A) (A)
                 (A) (A) (A) (A) (A) (A) (A) (A) (A) (A) (A) (A)
                 (A) (A) (A) (A) (A) (A) (A) (A) (A) (A) (A) (A)
                 (A) (A) (A) (A) (A) (A) (A) (A) (A) (A) (A) (A)
                 (A) (A) (A) (A) (A) (A) (A) (A) (A) (A) (A) (A)
                 (A) (A) (A) (A) (A) (A) (A) (A) (A) (A) (A) (A)
                 (A) (A) (A) (A) (A) (A) (A) (A) (A) (A) (A) (A)
                 (A) (A) (A) (A) (A) (A) (A) (A) (A) (A) (A) (A)
                 (A)
 The electronic state is 1-A.
 Alpha  occ. eigenvalues -- -483.03225 -62.61393 -56.42154 -56.41818 -56.41810
 Alpha  occ. eigenvalues --  -19.26725 -19.19687 -14.53768 -10.38978 -10.35937
 Alpha  occ. eigenvalues --  -10.34952 -10.33168 -10.32109 -10.31227 -10.31098
 Alpha  occ. eigenvalues --  -10.31070 -10.30989 -10.30944 -10.29029  -8.78326
 Alpha  occ. eigenvalues --   -6.60823  -6.59594  -6.59561  -2.71203  -2.70850
 Alpha  occ. eigenvalues --   -2.70823  -2.69844  -2.69844  -1.16490  -1.06821
 Alpha  occ. eigenvalues --   -1.06057  -0.96419  -0.90737  -0.86423  -0.84665
 Alpha  occ. eigenvalues --   -0.81066  -0.80358  -0.79534  -0.71734  -0.70528
 Alpha  occ. eigenvalues --   -0.67448  -0.66212  -0.62600  -0.61205  -0.58626
 Alpha  occ. eigenvalues --   -0.57593  -0.56961  -0.54845  -0.54607  -0.53054
 Alpha  occ. eigenvalues --   -0.52927  -0.51351  -0.50552  -0.49372  -0.48472
 Alpha  occ. eigenvalues --   -0.48241  -0.45865  -0.45593  -0.44247  -0.43461
 Alpha  occ. eigenvalues --   -0.42703  -0.41096  -0.37329  -0.35794  -0.35680
 Alpha  occ. eigenvalues --   -0.34031  -0.33577  -0.32072  -0.24685
 Alpha virt. eigenvalues --    0.04135   0.05173   0.09776   0.11587   0.12448
 Alpha virt. eigenvalues --    0.14179   0.15557   0.16296   0.17949   0.18385
 Alpha virt. eigenvalues --    0.19308   0.19496   0.20774   0.21697   0.22494
 Alpha virt. eigenvalues --    0.22678   0.22908   0.23870   0.24028   0.24842
 Alpha virt. eigenvalues --    0.26133   0.26731   0.30370   0.34350   0.35986
 Alpha virt. eigenvalues --    0.36287   0.37627   0.37940   0.39456   0.40091
 Alpha virt. eigenvalues --    0.42322   0.43443   0.45541   0.47463   0.48123
 Alpha virt. eigenvalues --    0.49416   0.50453   0.51027   0.52343   0.53852
 Alpha virt. eigenvalues --    0.54703   0.55302   0.55583   0.56055   0.57029
 Alpha virt. eigenvalues --    0.57628   0.57879   0.59641   0.60521   0.61812
 Alpha virt. eigenvalues --    0.62670   0.63004   0.64119   0.65117   0.65745
 Alpha virt. eigenvalues --    0.66543   0.67470   0.69071   0.70274   0.70390
 Alpha virt. eigenvalues --    0.71164   0.72234   0.72849   0.73382   0.73837
 Alpha virt. eigenvalues --    0.74130   0.74338   0.75095   0.75550   0.76124
 Alpha virt. eigenvalues --    0.76272   0.77412   0.77948   0.78494   0.79471
 Alpha virt. eigenvalues --    0.79537   0.81018   0.82269   0.82716   0.83351
 Alpha virt. eigenvalues --    0.84088   0.85000   0.86298   0.87612   0.88150
 Alpha virt. eigenvalues --    0.90179   0.91630   0.93169   0.94980   0.97048
 Alpha virt. eigenvalues --    0.99471   1.01162   1.02926   1.05868   1.08503
 Alpha virt. eigenvalues --    1.09225   1.11011   1.14458   1.15605   1.16553
 Alpha virt. eigenvalues --    1.20026   1.23587   1.23863   1.26261   1.27671
 Alpha virt. eigenvalues --    1.28962   1.32312   1.33563   1.34616   1.36016
 Alpha virt. eigenvalues --    1.36924   1.37752   1.38155   1.39751   1.41510
 Alpha virt. eigenvalues --    1.43198   1.47325   1.50180   1.56519   1.57273
 Alpha virt. eigenvalues --    1.58022   1.61064   1.61892   1.62462   1.62901
 Alpha virt. eigenvalues --    1.66603   1.68461   1.71530   1.72511   1.75626
 Alpha virt. eigenvalues --    1.77320   1.78205   1.81290   1.82397   1.83070
 Alpha virt. eigenvalues --    1.83500   1.83590   1.84091   1.84968   1.85675
 Alpha virt. eigenvalues --    1.86453   1.87827   1.88218   1.88763   1.91109
 Alpha virt. eigenvalues --    1.92339   1.93752   1.95647   1.96525   1.97250
 Alpha virt. eigenvalues --    1.99805   2.01107   2.02099   2.03754   2.04602
 Alpha virt. eigenvalues --    2.05941   2.06272   2.06854   2.07521   2.08818
 Alpha virt. eigenvalues --    2.10208   2.13608   2.14600   2.15740   2.17797
 Alpha virt. eigenvalues --    2.20071   2.20317   2.22131   2.24452   2.26167
 Alpha virt. eigenvalues --    2.28345   2.28936   2.33489   2.36097   2.37157
 Alpha virt. eigenvalues --    2.38384   2.39393   2.41495   2.41882   2.42448
 Alpha virt. eigenvalues --    2.43516   2.46515   2.48751   2.51627   2.52448
 Alpha virt. eigenvalues --    2.56171   2.62360   2.64569   2.68647   2.69950
 Alpha virt. eigenvalues --    2.71475   2.74133   2.75639   2.76172   2.76617
 Alpha virt. eigenvalues --    2.77513   2.79174   2.80187   2.80994   2.81602
 Alpha virt. eigenvalues --    2.86269   2.90739   2.95434   2.95809   2.96707
 Alpha virt. eigenvalues --    2.99853   3.01570   3.03598   3.04614   3.05346
 Alpha virt. eigenvalues --    3.08121   3.10898   3.15920   3.17631   3.21017
 Alpha virt. eigenvalues --    3.24892   3.29329   3.31784   3.33474   3.46880
 Alpha virt. eigenvalues --    3.55291   3.57307   3.60972   3.65712   3.71221
 Alpha virt. eigenvalues --    3.73630   3.76175   3.80207   3.97138
          Condensed to atoms (all electrons):
               1          2          3          4          5          6
     1  C    5.855899   0.278842  -0.147936   0.475518  -0.000560  -0.000493
     2  C    0.278842   4.439079   0.689611  -0.042262   0.005309   0.000082
     3  O   -0.147936   0.689611   7.844397   0.002330  -0.002758   0.000188
     4  C    0.475518  -0.042262   0.002330   4.918381  -0.027194   0.004802
     5  C   -0.000560   0.005309  -0.002758  -0.027194   4.535191   0.399624
     6  H   -0.000493   0.000082   0.000188   0.004802   0.399624   0.589021
     7  H    0.016942   0.000310  -0.001723  -0.016842   0.400929  -0.020675
     8  H   -0.011675   0.003225   0.013182   0.000125   0.401335  -0.017124
     9  N   -0.100215  -0.002650   0.000318   0.114935   0.300014  -0.018054
    10  H   -0.000953  -0.000638  -0.000074  -0.001086  -0.018670  -0.005454
    11  H    0.007821  -0.000041  -0.000184  -0.013860  -0.017194  -0.005006
    12  C   -0.053280   0.010145   0.001712   0.291242   0.006633  -0.000413
    13  C   -0.013394  -0.000341  -0.000006  -0.074196  -0.000015  -0.000027
    14  C   -0.000009   0.000014   0.000000   0.008208   0.000010  -0.000000
    15  C    0.000080   0.000001   0.000000  -0.000203  -0.000000   0.000000
    16  C   -0.000510  -0.000040  -0.000002   0.013669   0.000006  -0.000000
    17  C    0.003899  -0.000285  -0.000143  -0.059242  -0.000076  -0.000001
    18  H   -0.001955   0.000095  -0.000000  -0.010709  -0.000226   0.000008
    19  H    0.000001  -0.000000  -0.000000  -0.000227  -0.000000   0.000000
    20  H    0.000000   0.000000   0.000000   0.000020   0.000000  -0.000000
    21  H   -0.000001   0.000000   0.000000  -0.000297  -0.000000   0.000000
    22  H    0.001214  -0.000011  -0.000117  -0.016091  -0.000019  -0.000000
    23  H   -0.033455  -0.006301   0.032862   0.367678  -0.002303  -0.000146
    24  Br   0.173642  -0.031548   0.001935  -0.066598  -0.001771  -0.000003
    25  O   -0.145762   0.418386  -0.085077   0.003027  -0.000386  -0.000002
    26  C    0.012180  -0.038206   0.002314  -0.000279  -0.000020  -0.000000
    27  H    0.000363   0.004795   0.000933   0.000011  -0.000000  -0.000000
    28  H    0.000282  -0.004477   0.007130  -0.000060  -0.000008  -0.000000
    29  H    0.000627  -0.004954   0.009697   0.000077   0.000050   0.000003
               7          8          9         10         11         12
     1  C    0.016942  -0.011675  -0.100215  -0.000953   0.007821  -0.053280
     2  C    0.000310   0.003225  -0.002650  -0.000638  -0.000041   0.010145
     3  O   -0.001723   0.013182   0.000318  -0.000074  -0.000184   0.001712
     4  C   -0.016842   0.000125   0.114935  -0.001086  -0.013860   0.291242
     5  C    0.400929   0.401335   0.300014  -0.018670  -0.017194   0.006633
     6  H   -0.020675  -0.017124  -0.018054  -0.005454  -0.005006  -0.000413
     7  H    0.550313  -0.014135  -0.014846  -0.004472   0.005745   0.000774
     8  H   -0.014135   0.548358  -0.016052   0.005193  -0.006319   0.000560
     9  N   -0.014846  -0.016052   6.331524   0.341808   0.340599  -0.058208
    10  H   -0.004472   0.005193   0.341808   0.511902  -0.013612  -0.009553
    11  H    0.005745  -0.006319   0.340599  -0.013612   0.513476   0.009356
    12  C    0.000774   0.000560  -0.058208  -0.009553   0.009356   5.324877
    13  C   -0.000078   0.000056  -0.009707   0.009608  -0.001000   0.287807
    14  C    0.000000  -0.000000   0.000088  -0.000366  -0.000248   0.062906
    15  C    0.000000  -0.000000   0.000016  -0.000001   0.000013  -0.134066
    16  C   -0.000000   0.000001  -0.000366   0.000069  -0.000106   0.060292
    17  C    0.000000  -0.000054   0.001433  -0.000085   0.001390   0.354951
    18  H    0.000057   0.000001   0.000465   0.003603  -0.000157  -0.075099
    19  H    0.000000   0.000000   0.000002   0.000013  -0.000000   0.014357
    20  H   -0.000000   0.000000   0.000000  -0.000001  -0.000000  -0.001441
    21  H   -0.000000   0.000000   0.000002   0.000000  -0.000001   0.014210
    22  H    0.000001  -0.000003   0.000323  -0.000021   0.000061  -0.064196
    23  H   -0.000187   0.004405  -0.028268   0.003680  -0.003190  -0.017367
    24  Br   0.003653   0.000140   0.003470   0.002176  -0.000197  -0.013385
    25  O    0.000620   0.000103   0.000035  -0.000001  -0.000001   0.000044
    26  C   -0.000000  -0.000044   0.000001  -0.000000  -0.000000  -0.000001
    27  H   -0.000000  -0.000000  -0.000000   0.000000   0.000000  -0.000000
    28  H    0.000014  -0.000020   0.000002   0.000000  -0.000000  -0.000002
    29  H   -0.000078   0.000117  -0.000009   0.000000   0.000000   0.000001
              13         14         15         16         17         18
     1  C   -0.013394  -0.000009   0.000080  -0.000510   0.003899  -0.001955
     2  C   -0.000341   0.000014   0.000001  -0.000040  -0.000285   0.000095
     3  O   -0.000006   0.000000   0.000000  -0.000002  -0.000143  -0.000000
     4  C   -0.074196   0.008208  -0.000203   0.013669  -0.059242  -0.010709
     5  C   -0.000015   0.000010  -0.000000   0.000006  -0.000076  -0.000226
     6  H   -0.000027  -0.000000   0.000000  -0.000000  -0.000001   0.000008
     7  H   -0.000078   0.000000   0.000000  -0.000000   0.000000   0.000057
     8  H    0.000056  -0.000000  -0.000000   0.000001  -0.000054   0.000001
     9  N   -0.009707   0.000088   0.000016  -0.000366   0.001433   0.000465
    10  H    0.009608  -0.000366  -0.000001   0.000069  -0.000085   0.003603
    11  H   -0.001000  -0.000248   0.000013  -0.000106   0.001390  -0.000157
    12  C    0.287807   0.062906  -0.134066   0.060292   0.354951  -0.075099
    13  C    5.106972   0.363472   0.055048  -0.116389   0.029476   0.436184
    14  C    0.363472   4.965422   0.327151   0.059747  -0.112011  -0.045629
    15  C    0.055048   0.327151   5.056073   0.316826   0.060838   0.012198
    16  C   -0.116389   0.059747   0.316826   5.021346   0.332151  -0.001541
    17  C    0.029476  -0.112011   0.060838   0.332151   5.026807   0.011106
    18  H    0.436184  -0.045629   0.012198  -0.001541   0.011106   0.646820
    19  H   -0.061139   0.447017  -0.066512   0.012367  -0.001668  -0.012018
    20  H    0.012597  -0.062827   0.447006  -0.063103   0.012293  -0.000201
    21  H   -0.001604   0.012204  -0.066291   0.447860  -0.062125   0.000022
    22  H    0.013019  -0.001669   0.012379  -0.057966   0.449055  -0.000160
    23  H    0.007942  -0.000208  -0.000024   0.000599  -0.011498  -0.000064
    24  Br   0.001029  -0.000388  -0.000035   0.000016   0.000132   0.016908
    25  O    0.000002  -0.000000   0.000000  -0.000000  -0.000004   0.000002
    26  C   -0.000000   0.000000  -0.000000   0.000000   0.000000  -0.000000
    27  H    0.000000  -0.000000  -0.000000   0.000000  -0.000000  -0.000000
    28  H   -0.000000   0.000000   0.000000  -0.000000   0.000000   0.000000
    29  H    0.000000  -0.000000  -0.000000   0.000000  -0.000000   0.000000
              19         20         21         22         23         24
     1  C    0.000001   0.000000  -0.000001   0.001214  -0.033455   0.173642
     2  C   -0.000000   0.000000   0.000000  -0.000011  -0.006301  -0.031548
     3  O   -0.000000   0.000000   0.000000  -0.000117   0.032862   0.001935
     4  C   -0.000227   0.000020  -0.000297  -0.016091   0.367678  -0.066598
     5  C   -0.000000   0.000000  -0.000000  -0.000019  -0.002303  -0.001771
     6  H    0.000000  -0.000000   0.000000  -0.000000  -0.000146  -0.000003
     7  H    0.000000  -0.000000  -0.000000   0.000001  -0.000187   0.003653
     8  H    0.000000   0.000000   0.000000  -0.000003   0.004405   0.000140
     9  N    0.000002   0.000000   0.000002   0.000323  -0.028268   0.003470
    10  H    0.000013  -0.000001   0.000000  -0.000021   0.003680   0.002176
    11  H   -0.000000  -0.000000  -0.000001   0.000061  -0.003190  -0.000197
    12  C    0.014357  -0.001441   0.014210  -0.064196  -0.017367  -0.013385
    13  C   -0.061139   0.012597  -0.001604   0.013019   0.007942   0.001029
    14  C    0.447017  -0.062827   0.012204  -0.001669  -0.000208  -0.000388
    15  C   -0.066512   0.447006  -0.066291   0.012379  -0.000024  -0.000035
    16  C    0.012367  -0.063103   0.447860  -0.057966   0.000599   0.000016
    17  C   -0.001668   0.012293  -0.062125   0.449055  -0.011498   0.000132
    18  H   -0.012018  -0.000201   0.000022  -0.000160  -0.000064   0.016908
    19  H    0.647866  -0.010699  -0.000205   0.000020   0.000005  -0.000024
    20  H   -0.010699   0.644079  -0.010679  -0.000198  -0.000001   0.000000
    21  H   -0.000205  -0.010679   0.645333  -0.011100   0.000009   0.000000
    22  H    0.000020  -0.000198  -0.011100   0.643465   0.004134   0.000005
    23  H    0.000005  -0.000001   0.000009   0.004134   0.627068   0.004603
    24  Br  -0.000024   0.000000   0.000000   0.000005   0.004603  35.018608
    25  O   -0.000000   0.000000   0.000000  -0.000001   0.001535   0.007671
    26  C   -0.000000   0.000000  -0.000000   0.000000  -0.000097  -0.000130
    27  H    0.000000  -0.000000   0.000000   0.000000  -0.000003  -0.000066
    28  H    0.000000   0.000000  -0.000000  -0.000000   0.000023  -0.000014
    29  H   -0.000000  -0.000000  -0.000000   0.000000  -0.000058  -0.000040
              25         26         27         28         29
     1  C   -0.145762   0.012180   0.000363   0.000282   0.000627
     2  C    0.418386  -0.038206   0.004795  -0.004477  -0.004954
     3  O   -0.085077   0.002314   0.000933   0.007130   0.009697
     4  C    0.003027  -0.000279   0.000011  -0.000060   0.000077
     5  C   -0.000386  -0.000020  -0.000000  -0.000008   0.000050
     6  H   -0.000002  -0.000000  -0.000000  -0.000000   0.000003
     7  H    0.000620  -0.000000  -0.000000   0.000014  -0.000078
     8  H    0.000103  -0.000044  -0.000000  -0.000020   0.000117
     9  N    0.000035   0.000001  -0.000000   0.000002  -0.000009
    10  H   -0.000001  -0.000000   0.000000   0.000000   0.000000
    11  H   -0.000001  -0.000000   0.000000  -0.000000   0.000000
    12  C    0.000044  -0.000001  -0.000000  -0.000002   0.000001
    13  C    0.000002  -0.000000   0.000000  -0.000000   0.000000
    14  C   -0.000000   0.000000  -0.000000   0.000000  -0.000000
    15  C    0.000000  -0.000000  -0.000000   0.000000  -0.000000
    16  C   -0.000000   0.000000   0.000000  -0.000000   0.000000
    17  C   -0.000004   0.000000  -0.000000   0.000000  -0.000000
    18  H    0.000002  -0.000000  -0.000000   0.000000   0.000000
    19  H   -0.000000  -0.000000   0.000000   0.000000  -0.000000
    20  H    0.000000   0.000000  -0.000000   0.000000  -0.000000
    21  H    0.000000  -0.000000   0.000000  -0.000000  -0.000000
    22  H   -0.000001   0.000000   0.000000  -0.000000   0.000000
    23  H    0.001535  -0.000097  -0.000003   0.000023  -0.000058
    24  Br   0.007671  -0.000130  -0.000066  -0.000014  -0.000040
    25  O    7.947422   0.281230  -0.024193  -0.028859  -0.029953
    26  C    0.281230   4.395393   0.397797   0.404836   0.400707
    27  H   -0.024193   0.397797   0.626717  -0.025448  -0.025514
    28  H   -0.028859   0.404836  -0.025448   0.643646  -0.034764
    29  H   -0.029953   0.400707  -0.025514  -0.034764   0.652049
 Mulliken charges:
               1
     1  C   -0.317115
     2  C    0.281862
     3  O   -0.368588
     4  C    0.129124
     5  C    0.022101
     6  H    0.073670
     7  H    0.093680
     8  H    0.088627
     9  N   -0.186660
    10  H    0.176934
    11  H    0.182655
    12  C   -0.012854
    13  C   -0.045317
    14  C   -0.022884
    15  C   -0.020494
    16  C   -0.024925
    17  C   -0.036337
    18  H    0.020291
    19  H    0.030846
    20  H    0.033154
    21  H    0.032664
    22  H    0.027878
    23  H    0.048627
    24  Br  -0.119789
    25  O   -0.345837
    26  C    0.144320
    27  H    0.044610
    28  H    0.037717
    29  H    0.032042
 Sum of Mulliken charges =  -0.00000
 Mulliken charges with hydrogens summed into heavy atoms:
               1
     1  C   -0.317115
     2  C    0.281862
     3  O   -0.368588
     4  C    0.177750
     5  C    0.278078
     9  N    0.172929
    12  C   -0.012854
    13  C   -0.025026
    14  C    0.007962
    15  C    0.012660
    16  C    0.007738
    17  C   -0.008459
    24  Br  -0.119789
    25  O   -0.345837
    26  C    0.258688
 APT charges:
               1
     1  C   -0.791166
     2  C    1.669589
     3  O   -1.024337
     4  C    1.032509
     5  C    0.146451
     6  H    0.012539
     7  H    0.068109
     8  H    0.068338
     9  N   -0.726549
    10  H    0.208567
    11  H    0.183638
    12  C    0.011041
    13  C   -0.089611
    14  C   -0.028371
    15  C   -0.053524
    16  C   -0.011310
    17  C   -0.081041
    18  H    0.057949
    19  H    0.034847
    20  H    0.038941
    21  H    0.036654
    22  H    0.049478
    23  H    0.015175
    24  Br  -0.235103
    25  O   -1.107676
    26  C    0.625989
    27  H   -0.020845
    28  H   -0.045222
    29  H   -0.045056
 Sum of APT charges =   0.00000
 APT charges with hydrogens summed into heavy atoms:
               1
     1  C   -0.791166
     2  C    1.669589
     3  O   -1.024337
     4  C    1.047684
     5  C    0.295436
     9  N   -0.334344
    12  C    0.011041
    13  C   -0.031662
    14  C    0.006476
    15  C   -0.014583
    16  C    0.025343
    17  C   -0.031564
    24  Br  -0.235103
    25  O   -1.107676
    26  C    0.514866
 Electronic spatial extent (au):  <R**2>=           4406.5547
 Charge=             -0.0000 electrons
 Dipole moment (field-independent basis, Debye):
    X=              4.1790    Y=             -3.4160    Z=              5.3093  Tot=              7.5712
 Quadrupole moment (field-independent basis, Debye-Ang):
   XX=            -92.8049   YY=           -100.9260   ZZ=            -88.3235
   XY=             -3.0036   XZ=             -0.8824   YZ=             -6.9749
 Traceless Quadrupole moment (field-independent basis, Debye-Ang):
   XX=              1.2133   YY=             -6.9079   ZZ=              5.6946
   XY=             -3.0036   XZ=             -0.8824   YZ=             -6.9749
 Octapole moment (field-independent basis, Debye-Ang**2):
  XXX=            -42.6748  YYY=             39.6301  ZZZ=             38.1894  XYY=              6.2913
  XXY=             29.7425  XXZ=            -13.5661  XZZ=            -11.3963  YZZ=             -6.6866
  YYZ=             26.7994  XYZ=             14.6934
 Hexadecapole moment (field-independent basis, Debye-Ang**3):
 XXXX=          -3411.8534 YYYY=           -978.1022 ZZZZ=           -718.4734 XXXY=             17.1922
 XXXZ=             -4.5459 YYYX=            -68.8335 YYYZ=            -28.5761 ZZZX=             14.4724
 ZZZY=            -21.5007 XXYY=           -834.4395 XXZZ=           -714.8854 YYZZ=           -264.4080
 XXYZ=             17.7713 YYXZ=             -8.4186 ZZXY=            -25.5246
 N-N= 1.371998256939D+03 E-N=-1.036836642969D+04  KE= 3.196657877227D+03
  Exact polarizability:     217.049       9.707     151.799       0.050      15.627     138.683
 Approx polarizability:     183.971       9.757     166.105      -0.116      22.322     144.647
   1 Symmetry operations used in ECPInt.
 ECPInt:  NShTT=    9591 NPrTT=   36310 LenC2=    8989 LenP2D=   24326.
 LDataN:  DoStor=T MaxTD1= 6 Len=  172
 D2PCM: PCM CHGder 2nd derivatives, FixD1E=F FixD2E=F DoIter=F DoCFld=F I1PDM=0
 Calling FoFJK, ICntrl=    100127 FMM=F ISym2X=0 I1Cent= 0 IOpClX= 0 NMat=1 NMatS=1 NMatT=0.
 Full mass-weighted force constant matrix:
 Low frequencies --- -230.8185  -12.6695   -7.5227   -0.0093   -0.0026   -0.0019
 Low frequencies ---   15.1629   42.1377   49.4518
 ******    1 imaginary frequencies (negative Signs) ****** 
 Diagonal vibrational polarizability:
      186.0135647      83.7945544     165.1667564
 Harmonic frequencies (cm**-1), IR intensities (KM/Mole), Raman scattering
 activities (A**4/AMU), depolarization ratios for plane and unpolarized
 incident light, reduced masses (AMU), force constants (mDyne/A),
 and normal coordinates:
                      1                      2                      3
                      A                      A                      A
 Frequencies --   -230.8173                41.7336                49.2857
 Red. masses --      5.4043                 5.7199                 4.4481
 Frc consts  --      0.1696                 0.0059                 0.0064
 IR Inten    --    405.1645                 0.4639                 2.4573
  Atom  AN      X      Y      Z        X      Y      Z        X      Y      Z
     1   6     0.03   0.03  -0.07     0.01   0.05  -0.09     0.00   0.01  -0.07
     2   6    -0.05  -0.00  -0.02     0.02   0.02  -0.07    -0.02   0.01   0.01
     3   8    -0.02   0.02  -0.02     0.07   0.02  -0.15    -0.02   0.01   0.00
     4   6    -0.02   0.15  -0.36     0.02   0.06  -0.08     0.01   0.00  -0.06
     5   6    -0.01  -0.03   0.13     0.01   0.10  -0.06    -0.03  -0.07  -0.13
     6   1    -0.34   0.10   0.21     0.01   0.13  -0.06    -0.02  -0.11  -0.15
     7   1     0.06   0.02  -0.10     0.01   0.10  -0.08    -0.04  -0.07  -0.09
     8   1     0.01  -0.07   0.17     0.02   0.09  -0.05    -0.02  -0.04  -0.17
     9   7     0.07  -0.23   0.33     0.01   0.10  -0.07    -0.03  -0.03  -0.12
    10   1     0.17  -0.30   0.33     0.01   0.12  -0.09    -0.05  -0.04  -0.09
    11   1    -0.05  -0.32   0.21     0.02   0.10  -0.04    -0.02  -0.02  -0.12
    12   6    -0.00   0.05  -0.07     0.04   0.02  -0.07     0.01   0.01  -0.02
    13   6    -0.01   0.03  -0.03     0.02   0.11  -0.16    -0.01  -0.02   0.04
    14   6     0.01  -0.00   0.01     0.05   0.03  -0.12     0.01  -0.02   0.13
    15   6     0.03  -0.00   0.02     0.10  -0.14   0.02     0.06  -0.00   0.15
    16   6     0.05  -0.01   0.01     0.13  -0.23   0.12     0.08   0.03   0.08
    17   6     0.04   0.01  -0.02     0.09  -0.15   0.07     0.06   0.04  -0.00
    18   1    -0.03   0.00  -0.03    -0.02   0.22  -0.26    -0.05  -0.03   0.03
    19   1     0.01  -0.02   0.03     0.03   0.10  -0.19    -0.02  -0.05   0.18
    20   1     0.03  -0.00   0.05     0.13  -0.20   0.05     0.07  -0.01   0.21
    21   1     0.07  -0.01   0.03     0.17  -0.36   0.23     0.12   0.05   0.09
    22   1     0.04   0.02  -0.04     0.12  -0.22   0.15     0.08   0.06  -0.05
    23   1    -0.01   0.03  -0.10     0.02   0.06  -0.07     0.02   0.02  -0.10
    24  35    -0.01   0.01  -0.01    -0.09   0.01   0.09     0.02   0.02  -0.08
    25   8    -0.01  -0.00   0.02    -0.04  -0.02   0.04    -0.06  -0.01   0.13
    26   6    -0.03   0.02   0.01    -0.03  -0.05   0.07    -0.12  -0.03   0.31
    27   1    -0.01   0.03   0.01    -0.09  -0.08   0.18    -0.15  -0.05   0.43
    28   1    -0.02   0.02   0.01    -0.06   0.04   0.02    -0.26  -0.02   0.29
    29   1    -0.03   0.02   0.01     0.05  -0.13   0.03     0.00  -0.05   0.37
                      4                      5                      6
                      A                      A                      A
 Frequencies --     66.6688                84.6497                97.4811
 Red. masses --      3.6129                 4.5099                 2.9906
 Frc consts  --      0.0095                 0.0190                 0.0167
 IR Inten    --      3.8194                 0.8940                11.8724
  Atom  AN      X      Y      Z        X      Y      Z        X      Y      Z
     1   6     0.03  -0.02  -0.09     0.02  -0.06  -0.03    -0.02  -0.01  -0.00
     2   6     0.02  -0.02  -0.06    -0.00  -0.00  -0.02    -0.03  -0.00   0.05
     3   8     0.03  -0.02  -0.09    -0.07   0.01  -0.02    -0.10  -0.02   0.19
     4   6     0.01  -0.02  -0.03     0.00  -0.08   0.00     0.00  -0.02  -0.06
     5   6    -0.12   0.32   0.05    -0.09   0.05  -0.01     0.07   0.13   0.01
     6   1    -0.18   0.36   0.06    -0.11   0.02  -0.02     0.17   0.01  -0.04
     7   1     0.03   0.43   0.01    -0.00   0.11   0.01     0.24   0.26   0.20
     8   1    -0.26   0.36   0.09    -0.16   0.10  -0.02    -0.17   0.28  -0.01
     9   7    -0.06   0.06   0.01    -0.05  -0.07  -0.01     0.07  -0.08  -0.14
    10   1     0.07   0.01  -0.03     0.01  -0.10  -0.02     0.28  -0.19  -0.15
    11   1    -0.20  -0.05   0.05    -0.12  -0.12  -0.00    -0.06  -0.19  -0.26
    12   6     0.02  -0.02  -0.00     0.00  -0.06   0.03    -0.00   0.01  -0.07
    13   6     0.04  -0.08   0.06    -0.10   0.08  -0.06    -0.03   0.00  -0.03
    14   6     0.03  -0.06   0.05    -0.15   0.22  -0.11    -0.01  -0.01   0.05
    15   6     0.00   0.03  -0.02    -0.08   0.19  -0.05     0.04  -0.02   0.08
    16   6    -0.02   0.09  -0.08     0.05   0.00   0.08     0.07   0.00   0.03
    17   6    -0.01   0.07  -0.07     0.08  -0.11   0.12     0.04   0.02  -0.04
    18   1     0.06  -0.13   0.10    -0.15   0.10  -0.11    -0.06  -0.00  -0.05
    19   1     0.05  -0.10   0.10    -0.24   0.34  -0.20    -0.03  -0.02   0.08
    20   1    -0.00   0.05  -0.02    -0.12   0.29  -0.09     0.06  -0.04   0.15
    21   1    -0.04   0.16  -0.14     0.11  -0.03   0.14     0.11  -0.00   0.06
    22   1    -0.03   0.12  -0.12     0.17  -0.23   0.20     0.07   0.03  -0.08
    23   1     0.02  -0.03  -0.00     0.01  -0.08  -0.01     0.00   0.01  -0.11
    24  35     0.01  -0.05   0.03     0.06  -0.07   0.00    -0.03  -0.01   0.01
    25   8    -0.00  -0.04   0.01     0.04   0.06   0.01     0.02   0.03  -0.09
    26   6    -0.02  -0.05   0.07    -0.01   0.14   0.06    -0.00   0.03  -0.05
    27   1    -0.05  -0.06   0.14     0.05   0.19   0.07     0.09   0.08  -0.29
    28   1    -0.07  -0.02   0.05    -0.08   0.11   0.07     0.02  -0.21   0.07
    29   1     0.04  -0.08   0.07    -0.04   0.18   0.09    -0.12   0.23   0.10
                      7                      8                      9
                      A                      A                      A
 Frequencies --    116.7772               122.4935               144.1383
 Red. masses --      1.6004                 3.3724                 2.5739
 Frc consts  --      0.0129                 0.0298                 0.0315
 IR Inten    --      6.6674                 7.8499                12.5093
  Atom  AN      X      Y      Z        X      Y      Z        X      Y      Z
     1   6    -0.02  -0.01   0.05    -0.01  -0.06  -0.04     0.01   0.02  -0.10
     2   6    -0.01  -0.00   0.04    -0.04  -0.02  -0.03    -0.04  -0.01   0.03
     3   8     0.01   0.00  -0.03    -0.10  -0.00  -0.07    -0.07  -0.03   0.20
     4   6    -0.01  -0.02   0.01     0.01  -0.02  -0.00    -0.00   0.03  -0.07
     5   6     0.04   0.05   0.04     0.15  -0.00   0.09    -0.07  -0.02  -0.09
     6   1     0.09  -0.03   0.01     0.20   0.18   0.14    -0.15   0.10  -0.04
     7   1     0.12   0.12   0.14    -0.02  -0.13  -0.07    -0.17  -0.10  -0.25
     8   1    -0.09   0.14   0.02     0.31  -0.19   0.21     0.08  -0.14  -0.05
     9   7     0.03  -0.06  -0.05     0.09   0.17   0.05    -0.06   0.08   0.01
    10   1     0.15  -0.12  -0.04    -0.06   0.32  -0.05    -0.20   0.17   0.00
    11   1    -0.04  -0.12  -0.12     0.23   0.29   0.16     0.02   0.15   0.12
    12   6    -0.01  -0.00  -0.01     0.00   0.01  -0.03     0.01   0.02  -0.03
    13   6    -0.02  -0.00  -0.00    -0.00  -0.01   0.00     0.00   0.02  -0.03
    14   6    -0.02   0.00   0.01     0.01  -0.02   0.06     0.01   0.01  -0.01
    15   6    -0.01  -0.00   0.02     0.03  -0.01   0.06     0.03   0.01   0.00
    16   6     0.00  -0.00   0.02     0.03   0.03   0.01     0.03   0.01  -0.00
    17   6    -0.00  -0.01   0.00     0.02   0.04  -0.04     0.02   0.02  -0.02
    18   1    -0.03  -0.00  -0.01    -0.02  -0.01  -0.00     0.00   0.02  -0.04
    19   1    -0.03   0.01   0.02     0.00  -0.05   0.09     0.00   0.01  -0.00
    20   1    -0.01  -0.00   0.04     0.05  -0.03   0.11     0.03   0.00   0.02
    21   1     0.01  -0.01   0.03     0.05   0.05   0.01     0.04   0.00   0.01
    22   1     0.01  -0.01  -0.00     0.02   0.06  -0.07     0.03   0.02  -0.03
    23   1    -0.02   0.00  -0.02     0.03  -0.07   0.07     0.01  -0.00  -0.02
    24  35     0.00   0.01  -0.02    -0.03  -0.08  -0.02     0.04  -0.02   0.03
    25   8    -0.04  -0.02   0.12     0.01   0.06   0.02    -0.02  -0.01  -0.06
    26   6     0.03   0.01  -0.08    -0.04   0.20   0.00    -0.01  -0.04  -0.06
    27   1    -0.11  -0.05   0.32     0.02   0.26   0.13    -0.16  -0.13   0.34
    28   1     0.07   0.49  -0.30    -0.11   0.31  -0.06    -0.08   0.35  -0.26
    29   1     0.17  -0.37  -0.42    -0.07   0.15  -0.07     0.23  -0.37  -0.28
                     10                     11                     12
                      A                      A                      A
 Frequencies --    153.4422               164.5680               206.7421
 Red. masses --      3.9813                 2.9252                 1.8218
 Frc consts  --      0.0552                 0.0467                 0.0459
 IR Inten    --      0.4811                 5.0929                 1.6219
  Atom  AN      X      Y      Z        X      Y      Z        X      Y      Z
     1   6    -0.07   0.02  -0.01     0.03  -0.01  -0.03     0.04   0.02  -0.01
     2   6    -0.07   0.01  -0.01    -0.01  -0.03   0.09     0.03   0.02   0.01
     3   8    -0.00   0.01  -0.09    -0.02  -0.02   0.05     0.04   0.02   0.03
     4   6    -0.07   0.01  -0.06     0.03   0.01  -0.02     0.00  -0.05  -0.02
     5   6     0.08   0.02   0.05    -0.10   0.01  -0.10     0.01   0.01   0.03
     6   1     0.14   0.20   0.11    -0.18  -0.00  -0.10     0.00   0.53   0.20
     7   1    -0.02  -0.06  -0.08    -0.10   0.01  -0.13    -0.10  -0.10  -0.44
     8   1     0.14  -0.14   0.20    -0.04   0.02  -0.15     0.17  -0.36   0.38
     9   7     0.02   0.07  -0.04    -0.05   0.03   0.01    -0.01  -0.03  -0.06
    10   1    -0.01   0.14  -0.11    -0.12   0.05   0.04     0.00   0.01  -0.11
    11   1     0.08   0.13  -0.02    -0.04   0.04   0.08    -0.01  -0.02  -0.03
    12   6    -0.08   0.03  -0.07     0.04   0.01   0.00     0.01  -0.10  -0.02
    13   6    -0.11   0.03  -0.05     0.05   0.00  -0.00    -0.03  -0.10   0.01
    14   6    -0.09   0.02   0.03     0.06   0.00  -0.02    -0.06  -0.02   0.02
    15   6    -0.04  -0.02   0.08     0.05   0.01  -0.02    -0.03   0.05  -0.01
    16   6    -0.01  -0.01   0.05     0.04   0.01  -0.02     0.03   0.01  -0.01
    17   6    -0.04   0.02  -0.03     0.04   0.01  -0.01     0.05  -0.07  -0.02
    18   1    -0.14   0.04  -0.07     0.06   0.00  -0.00    -0.07  -0.13   0.01
    19   1    -0.12   0.01   0.05     0.06   0.00  -0.02    -0.10  -0.00   0.04
    20   1    -0.02  -0.04   0.15     0.04   0.01  -0.03    -0.05   0.13  -0.02
    21   1     0.03  -0.03   0.09     0.03   0.02  -0.03     0.06   0.06  -0.02
    22   1    -0.02   0.02  -0.05     0.04   0.01  -0.01     0.09  -0.09  -0.03
    23   1    -0.07   0.00  -0.04     0.05  -0.00  -0.00    -0.06  -0.02  -0.05
    24  35     0.11   0.00   0.03    -0.02  -0.02  -0.01    -0.03   0.04   0.00
    25   8    -0.15  -0.06   0.07    -0.05  -0.02   0.25     0.03   0.01   0.02
    26   6    -0.05  -0.15  -0.09     0.06   0.07  -0.11     0.04  -0.00   0.01
    27   1    -0.01  -0.15  -0.48     0.22   0.16  -0.54     0.03  -0.01  -0.01
    28   1     0.18  -0.42   0.07     0.37  -0.14   0.04     0.07  -0.01   0.01
    29   1    -0.24   0.05   0.01    -0.33   0.27  -0.13     0.04  -0.01   0.00
                     13                     14                     15
                      A                      A                      A
 Frequencies --    244.1289               265.0911               319.7002
 Red. masses --      2.0683                 4.6747                 4.6072
 Frc consts  --      0.0726                 0.1935                 0.2774
 IR Inten    --      5.6267                14.5952                19.7465
  Atom  AN      X      Y      Z        X      Y      Z        X      Y      Z
     1   6     0.03   0.03  -0.09    -0.07   0.00  -0.05    -0.03  -0.04   0.22
     2   6    -0.01   0.03  -0.01    -0.12   0.04  -0.04    -0.03   0.15   0.06
     3   8    -0.02   0.03   0.01    -0.15   0.04  -0.04    -0.14   0.19  -0.06
     4   6    -0.01  -0.01  -0.05    -0.01   0.03   0.01     0.01  -0.05   0.09
     5   6     0.04  -0.03   0.04     0.05  -0.02   0.08    -0.04   0.03  -0.07
     6   1     0.12  -0.50  -0.12     0.16   0.16   0.14    -0.19   0.07  -0.05
     7   1     0.08   0.03   0.51     0.01  -0.05  -0.01    -0.01   0.05  -0.19
     8   1    -0.09   0.28  -0.26     0.02  -0.15   0.26     0.03   0.02  -0.11
     9   7     0.01   0.09   0.06    -0.01  -0.05  -0.08     0.04  -0.01   0.09
    10   1    -0.08   0.16   0.03     0.09  -0.11  -0.08    -0.02   0.02   0.10
    11   1     0.09   0.15   0.10    -0.04  -0.09  -0.19     0.03  -0.01   0.18
    12   6     0.02  -0.11  -0.03     0.08   0.01   0.13     0.02  -0.04  -0.05
    13   6    -0.02  -0.13   0.02     0.20  -0.04   0.13     0.00  -0.01  -0.07
    14   6    -0.05  -0.03   0.03     0.17   0.00  -0.02     0.01   0.01  -0.02
    15   6    -0.03   0.07  -0.02     0.07   0.10  -0.14     0.07   0.00   0.03
    16   6     0.05   0.02  -0.01     0.05   0.01   0.01     0.08   0.03  -0.02
    17   6     0.07  -0.09  -0.01     0.09  -0.04   0.16     0.06   0.02  -0.07
    18   1    -0.06  -0.17   0.02     0.28  -0.03   0.18    -0.02  -0.01  -0.09
    19   1    -0.10  -0.01   0.05     0.20   0.01  -0.05    -0.04   0.02   0.01
    20   1    -0.06   0.17  -0.04     0.01   0.20  -0.30     0.09  -0.02   0.09
    21   1     0.08   0.07  -0.02    -0.03  -0.00  -0.03     0.10   0.05  -0.01
    22   1     0.12  -0.12  -0.03     0.09  -0.08   0.22     0.10   0.02  -0.12
    23   1    -0.07  -0.04   0.03     0.06   0.05  -0.07    -0.04  -0.05   0.10
    24  35    -0.01   0.03   0.01     0.01  -0.00  -0.00    -0.02  -0.05  -0.02
    25   8    -0.02   0.01   0.01    -0.17   0.01  -0.04    -0.02   0.17  -0.01
    26   6     0.00  -0.04  -0.02    -0.14  -0.06  -0.06     0.11  -0.19   0.02
    27   1    -0.02  -0.06  -0.04    -0.18  -0.10  -0.09    -0.14  -0.40  -0.04
    28   1     0.05  -0.04  -0.01    -0.10  -0.07  -0.05     0.25  -0.25   0.07
    29   1     0.01  -0.05  -0.02    -0.12  -0.08  -0.06     0.34  -0.27   0.08
                     16                     17                     18
                      A                      A                      A
 Frequencies --    323.9270               327.3963               415.6482
 Red. masses --      4.0795                 4.2066                 8.5306
 Frc consts  --      0.2522                 0.2657                 0.8683
 IR Inten    --     11.8280                19.5979                20.1693
  Atom  AN      X      Y      Z        X      Y      Z        X      Y      Z
     1   6    -0.10  -0.07   0.21    -0.06  -0.04   0.11    -0.10   0.14   0.25
     2   6    -0.06  -0.11   0.02    -0.02  -0.06   0.01     0.01   0.17   0.10
     3   8    -0.02  -0.10  -0.05     0.01  -0.06  -0.04     0.43   0.12   0.12
     4   6     0.00  -0.00   0.04    -0.02  -0.07   0.08    -0.07   0.13  -0.08
     5   6     0.02   0.09  -0.20    -0.13  -0.08   0.21    -0.02   0.00   0.01
     6   1    -0.29   0.11  -0.18     0.13  -0.11   0.19     0.04  -0.04  -0.01
     7   1     0.08   0.13  -0.41    -0.17  -0.11   0.37    -0.05  -0.01   0.09
     8   1     0.13   0.11  -0.31    -0.21  -0.10   0.28    -0.04   0.02  -0.00
     9   7     0.13   0.02   0.10    -0.18  -0.03  -0.01    -0.05   0.05  -0.03
    10   1     0.08   0.01   0.15    -0.21   0.03  -0.06    -0.08   0.08  -0.05
    11   1     0.10  -0.01   0.14    -0.14   0.01   0.09    -0.02   0.08  -0.03
    12   6     0.01  -0.05  -0.04     0.02  -0.05  -0.07    -0.04   0.04  -0.09
    13   6     0.01  -0.08  -0.00     0.02   0.01  -0.14    -0.01  -0.02  -0.04
    14   6    -0.01  -0.02   0.02     0.05   0.03  -0.06     0.04  -0.10   0.08
    15   6     0.01   0.05  -0.02     0.16  -0.01   0.04    -0.01   0.08  -0.06
    16   6     0.05   0.00  -0.00     0.14   0.06  -0.04     0.03   0.03  -0.02
    17   6     0.06  -0.06  -0.01     0.10   0.06  -0.13     0.07  -0.10   0.06
    18   1    -0.01  -0.12   0.01    -0.00   0.05  -0.18    -0.01  -0.02  -0.05
    19   1    -0.04  -0.02   0.05    -0.03   0.05  -0.03     0.07  -0.21   0.20
    20   1    -0.01   0.12  -0.04     0.20  -0.07   0.16    -0.04   0.18  -0.12
    21   1     0.08   0.02   0.01     0.16   0.08  -0.04     0.04   0.05  -0.03
    22   1     0.11  -0.09  -0.01     0.16   0.09  -0.21     0.16  -0.23   0.15
    23   1    -0.03  -0.03   0.11    -0.05  -0.04   0.02    -0.15   0.17  -0.11
    24  35     0.02   0.06   0.01     0.01   0.04   0.01    -0.01  -0.12  -0.03
    25   8    -0.04  -0.10  -0.07    -0.01  -0.05  -0.03    -0.11   0.04  -0.06
    26   6    -0.14   0.07  -0.02    -0.06   0.05  -0.01    -0.16   0.09  -0.04
    27   1    -0.02   0.18   0.05     0.00   0.11   0.03    -0.12   0.13  -0.02
    28   1    -0.27   0.10  -0.06    -0.14   0.06  -0.03    -0.23   0.09  -0.05
    29   1    -0.21   0.11  -0.02    -0.11   0.07  -0.01    -0.19   0.12  -0.01
                     19                     20                     21
                      A                      A                      A
 Frequencies --    425.3238               457.9475               570.8238
 Red. masses --      3.0261                 4.5944                 2.7438
 Frc consts  --      0.3225                 0.5677                 0.5267
 IR Inten    --      2.1308                26.9811               126.4463
  Atom  AN      X      Y      Z        X      Y      Z        X      Y      Z
     1   6    -0.00  -0.03   0.00     0.13   0.02  -0.18     0.02   0.03  -0.12
     2   6    -0.00  -0.04  -0.00     0.01   0.10  -0.06     0.02   0.00  -0.05
     3   8    -0.07  -0.03  -0.03     0.09   0.08   0.06    -0.02  -0.01   0.01
     4   6     0.01  -0.01  -0.01     0.06  -0.10   0.19    -0.02   0.04   0.22
     5   6    -0.01  -0.00   0.00     0.03  -0.00  -0.03    -0.02  -0.03   0.01
     6   1     0.01  -0.00   0.00    -0.11   0.03  -0.02    -0.03   0.01   0.02
     7   1    -0.01  -0.00   0.01     0.08   0.03  -0.16    -0.06  -0.05  -0.06
     8   1    -0.01  -0.00   0.01     0.08   0.00  -0.07     0.06  -0.07   0.01
     9   7    -0.01  -0.00  -0.01     0.09  -0.06   0.09     0.01   0.01   0.05
    10   1    -0.02   0.02  -0.04     0.17  -0.18   0.19     0.23  -0.31   0.31
    11   1     0.00   0.01   0.02     0.00  -0.14  -0.04    -0.16  -0.15  -0.32
    12   6    -0.01   0.02  -0.01     0.07  -0.14   0.11    -0.08   0.10  -0.14
    13   6    -0.07   0.16  -0.13    -0.04   0.06  -0.08    -0.01  -0.02  -0.09
    14   6     0.06  -0.14   0.13    -0.03   0.04  -0.03     0.03  -0.07   0.05
    15   6    -0.01  -0.00  -0.00     0.05  -0.10   0.10    -0.01   0.11  -0.07
    16   6    -0.07   0.13  -0.12    -0.04   0.09  -0.08     0.04  -0.04   0.07
    17   6     0.06  -0.14   0.14     0.00  -0.01  -0.02    -0.01   0.00  -0.06
    18   1    -0.14   0.31  -0.28    -0.12   0.18  -0.21     0.04  -0.17   0.05
    19   1     0.15  -0.32   0.29    -0.07   0.11  -0.09     0.06  -0.25   0.27
    20   1    -0.01  -0.01  -0.00     0.10  -0.21   0.21    -0.01   0.13  -0.08
    21   1    -0.15   0.29  -0.27    -0.09   0.24  -0.21     0.15  -0.21   0.24
    22   1     0.15  -0.33   0.31    -0.03   0.06  -0.08     0.10  -0.15   0.04
    23   1     0.03  -0.01  -0.02     0.02  -0.11   0.22    -0.03   0.02   0.27
    24  35     0.00   0.02   0.00    -0.01  -0.00   0.00     0.00  -0.00   0.00
    25   8     0.04  -0.00   0.01    -0.15   0.00  -0.01    -0.00  -0.00   0.02
    26   6     0.05  -0.01   0.01    -0.18   0.01  -0.06     0.01   0.00   0.00
    27   1     0.03  -0.02   0.01    -0.14   0.04  -0.07     0.01  -0.00  -0.00
    28   1     0.05  -0.02   0.02    -0.18   0.03  -0.07     0.02   0.00   0.00
    29   1     0.06  -0.02   0.01    -0.24   0.03  -0.08    -0.00  -0.00  -0.01
                     22                     23                     24
                      A                      A                      A
 Frequencies --    605.1014               628.3574               638.6184
 Red. masses --      2.8779                 5.7979                 5.2350
 Frc consts  --      0.6209                 1.3488                 1.2579
 IR Inten    --     22.8689                28.7872                 1.2154
  Atom  AN      X      Y      Z        X      Y      Z        X      Y      Z
     1   6    -0.10   0.12   0.00    -0.07  -0.01  -0.09     0.03  -0.05  -0.00
     2   6    -0.02  -0.04  -0.00    -0.03   0.00  -0.04     0.00   0.01   0.00
     3   8    -0.03  -0.04  -0.02     0.09  -0.02   0.03     0.02   0.01   0.01
     4   6    -0.10   0.21   0.02    -0.24  -0.18  -0.04     0.00  -0.10  -0.06
     5   6     0.02  -0.00  -0.01     0.05   0.02  -0.05    -0.00   0.01  -0.00
     6   1     0.01  -0.01  -0.01    -0.11  -0.01  -0.05    -0.02   0.01  -0.00
     7   1    -0.06  -0.06  -0.04     0.13   0.08  -0.10     0.07   0.05   0.01
     8   1     0.11  -0.04  -0.03     0.04   0.09  -0.12    -0.07   0.04   0.00
     9   7    -0.02   0.07   0.00     0.05  -0.03   0.03     0.01  -0.05  -0.01
    10   1     0.24  -0.26   0.23    -0.02   0.14  -0.15    -0.16   0.19  -0.20
    11   1    -0.17  -0.07  -0.47     0.15   0.05   0.12     0.13   0.06   0.29
    12   6     0.01  -0.12   0.05    -0.26  -0.05   0.09    -0.02  -0.06  -0.09
    13   6     0.05  -0.08  -0.05    -0.03  -0.08  -0.08     0.19  -0.05  -0.18
    14   6     0.01   0.07  -0.03     0.01  -0.12  -0.15     0.22   0.18   0.11
    15   6     0.07  -0.04   0.08     0.27   0.05  -0.08    -0.00   0.09   0.07
    16   6    -0.04   0.09   0.00     0.01   0.12   0.11    -0.22   0.08   0.22
    17   6    -0.01  -0.08   0.01    -0.01   0.16   0.19    -0.21  -0.14  -0.08
    18   1    -0.04   0.01  -0.16     0.21   0.07  -0.01     0.10  -0.13  -0.19
    19   1    -0.13   0.24  -0.14    -0.16  -0.10  -0.03     0.13   0.16   0.22
    20   1     0.06  -0.06   0.03     0.27   0.05  -0.06     0.00  -0.17  -0.21
    21   1    -0.10   0.28  -0.15    -0.24  -0.05   0.05    -0.10   0.10   0.28
    22   1    -0.01   0.03  -0.14     0.14   0.13   0.09    -0.08  -0.18  -0.13
    23   1    -0.21   0.21   0.08    -0.27  -0.19   0.00     0.01  -0.09  -0.07
    24  35     0.01  -0.02  -0.00    -0.00   0.01   0.00    -0.00   0.01   0.00
    25   8     0.05  -0.02   0.01     0.03   0.04   0.02    -0.01   0.01  -0.00
    26   6     0.07   0.01   0.02     0.07   0.01   0.03    -0.01  -0.00  -0.00
    27   1     0.07   0.01   0.03     0.02  -0.03  -0.00    -0.02  -0.00  -0.01
    28   1     0.07   0.01   0.02     0.12  -0.00   0.04    -0.01  -0.00  -0.00
    29   1     0.07   0.00   0.02     0.11  -0.00   0.03    -0.01  -0.00  -0.00
                     25                     26                     27
                      A                      A                      A
 Frequencies --    729.9094               756.8293               777.7601
 Red. masses --      1.5667                 5.0465                 6.9213
 Frc consts  --      0.4918                 1.7031                 2.4668
 IR Inten    --     55.9317                12.9557                31.8770
  Atom  AN      X      Y      Z        X      Y      Z        X      Y      Z
     1   6     0.00   0.01   0.00    -0.17  -0.18  -0.10     0.12  -0.02  -0.15
     2   6     0.00  -0.00   0.00    -0.18  -0.07  -0.02    -0.16  -0.06   0.61
     3   8    -0.00   0.00  -0.00     0.18  -0.17   0.02     0.04   0.06  -0.17
     4   6    -0.01   0.01   0.00    -0.03  -0.08  -0.01     0.04  -0.07  -0.05
     5   6     0.00   0.00  -0.00    -0.00  -0.00   0.00     0.00   0.01  -0.01
     6   1    -0.01  -0.00  -0.00    -0.03  -0.04  -0.01     0.05  -0.03  -0.03
     7   1     0.01   0.00  -0.01    -0.06  -0.05  -0.02    -0.16  -0.11   0.03
     8   1     0.00   0.00  -0.01     0.09  -0.02  -0.04     0.15  -0.07  -0.02
     9   7     0.00  -0.00   0.00     0.00   0.04   0.03    -0.03   0.08   0.00
    10   1     0.01   0.01  -0.02     0.18  -0.15   0.14     0.25  -0.20   0.16
    11   1     0.01   0.00   0.00    -0.13  -0.07  -0.19    -0.24  -0.11  -0.31
    12   6     0.03  -0.06   0.06     0.04   0.03  -0.03     0.00  -0.03   0.03
    13   6    -0.02   0.05  -0.04     0.04   0.04   0.06    -0.02   0.01  -0.03
    14   6     0.04  -0.09   0.08     0.04   0.06   0.05    -0.00  -0.02  -0.02
    15   6    -0.01   0.04  -0.03    -0.06  -0.04   0.03     0.02   0.03  -0.03
    16   6     0.04  -0.09   0.08     0.03  -0.04  -0.06    -0.03   0.01   0.04
    17   6    -0.02   0.04  -0.03     0.03  -0.05  -0.04    -0.02   0.04   0.02
    18   1    -0.17   0.34  -0.32    -0.04   0.06  -0.00     0.02  -0.02   0.01
    19   1    -0.06   0.13  -0.13     0.09   0.15  -0.10     0.02  -0.11   0.09
    20   1    -0.19   0.42  -0.38    -0.11   0.05  -0.06     0.06  -0.08   0.04
    21   1    -0.07   0.15  -0.14     0.08   0.10  -0.12    -0.03  -0.10   0.11
    22   1    -0.17   0.36  -0.32    -0.03  -0.01  -0.05    -0.01   0.02   0.03
    23   1    -0.02   0.01   0.00     0.12  -0.17   0.09     0.03  -0.13   0.06
    24  35     0.00  -0.00   0.00     0.00   0.02   0.01    -0.00   0.00  -0.00
    25   8     0.00  -0.01  -0.00    -0.06   0.28   0.00     0.05  -0.01  -0.13
    26   6     0.00  -0.00  -0.00     0.06   0.04   0.02    -0.02  -0.01  -0.02
    27   1     0.01   0.00   0.00    -0.28  -0.26  -0.13     0.01   0.03   0.07
    28   1    -0.00   0.00  -0.00     0.29  -0.08   0.11    -0.17  -0.03  -0.03
    29   1    -0.00   0.00  -0.00     0.34  -0.06   0.09     0.02   0.03   0.05
                     28                     29                     30
                      A                      A                      A
 Frequencies --    800.2361               820.1012               864.2129
 Red. masses --      2.1580                 2.0819                 4.1242
 Frc consts  --      0.8142                 0.8250                 1.8148
 IR Inten    --      4.1484                27.0597                15.5896
  Atom  AN      X      Y      Z        X      Y      Z        X      Y      Z
     1   6     0.04  -0.02  -0.03     0.04  -0.11   0.10     0.06  -0.06   0.04
     2   6     0.01   0.00   0.05     0.07   0.04  -0.08     0.00  -0.07  -0.01
     3   8    -0.00   0.02  -0.01    -0.01   0.04   0.03     0.01  -0.10  -0.01
     4   6     0.03  -0.00   0.05     0.05  -0.10  -0.12     0.25   0.19   0.01
     5   6    -0.02  -0.01   0.01    -0.01   0.01   0.01    -0.03  -0.01   0.00
     6   1     0.01   0.02   0.02     0.08  -0.12  -0.04     0.13   0.05   0.01
     7   1     0.02   0.02   0.01    -0.29  -0.19   0.06    -0.00   0.01   0.09
     8   1    -0.06  -0.01   0.04     0.26  -0.08  -0.06    -0.12  -0.04   0.11
     9   7     0.01  -0.02  -0.00    -0.03   0.13   0.02     0.00  -0.01  -0.04
    10   1    -0.07   0.03  -0.01     0.40  -0.28   0.22    -0.15   0.00   0.06
    11   1     0.05   0.01   0.10    -0.38  -0.17  -0.39     0.04   0.02   0.16
    12   6    -0.08   0.16  -0.15    -0.01   0.01  -0.02     0.06  -0.02   0.03
    13   6     0.02  -0.09   0.05    -0.00  -0.01  -0.00    -0.05  -0.10  -0.10
    14   6    -0.01  -0.01  -0.02     0.00  -0.02  -0.01    -0.11  -0.14  -0.10
    15   6     0.06  -0.09   0.08     0.03  -0.01  -0.00     0.08   0.05  -0.03
    16   6    -0.01   0.02   0.01    -0.03   0.02   0.04    -0.09   0.07   0.13
    17   6     0.02  -0.06   0.06    -0.02   0.01   0.04    -0.05   0.03   0.06
    18   1    -0.01  -0.01  -0.02     0.01  -0.02   0.01    -0.07  -0.09  -0.13
    19   1    -0.23   0.39  -0.36    -0.04   0.03  -0.04    -0.29  -0.18   0.09
    20   1    -0.14   0.34  -0.30    -0.00   0.03  -0.09     0.12  -0.02   0.08
    21   1    -0.20   0.38  -0.33    -0.11   0.04  -0.02    -0.21  -0.06   0.14
    22   1     0.02  -0.03   0.02    -0.01   0.03   0.01    -0.04   0.09  -0.02
    23   1     0.10  -0.01   0.04     0.10  -0.16  -0.03     0.44   0.21  -0.10
    24  35    -0.00   0.00   0.00    -0.00   0.01   0.00     0.00   0.00   0.00
    25   8     0.00  -0.01  -0.01    -0.01  -0.02   0.02    -0.05   0.15   0.01
    26   6    -0.01  -0.00  -0.01    -0.03  -0.01  -0.01    -0.06   0.00  -0.02
    27   1     0.01   0.01   0.01     0.02   0.03  -0.00    -0.25  -0.15  -0.10
    28   1    -0.04   0.00  -0.01    -0.04   0.01  -0.02     0.06  -0.06   0.03
    29   1    -0.02   0.00  -0.00    -0.08  -0.00  -0.03     0.08  -0.05   0.01
                     31                     32                     33
                      A                      A                      A
 Frequencies --    877.3474               958.9498              1006.6772
 Red. masses --      1.2437                 1.4453                 3.4274
 Frc consts  --      0.5640                 0.7831                 2.0464
 IR Inten    --      0.6735                 1.4355                 3.5518
  Atom  AN      X      Y      Z        X      Y      Z        X      Y      Z
     1   6    -0.00   0.00  -0.00     0.01   0.03   0.01     0.16   0.20   0.06
     2   6    -0.00   0.00   0.00     0.01  -0.01   0.00     0.16  -0.10   0.04
     3   8     0.00   0.00  -0.00    -0.00  -0.02  -0.00    -0.05  -0.14  -0.03
     4   6    -0.00  -0.00   0.00     0.00   0.01  -0.02    -0.05  -0.06  -0.00
     5   6     0.00   0.00  -0.00     0.01   0.00  -0.01    -0.00   0.04   0.01
     6   1     0.01   0.01   0.00     0.02   0.00  -0.01    -0.05  -0.15  -0.05
     7   1     0.01   0.01   0.00     0.01   0.00   0.00    -0.23  -0.13   0.01
     8   1    -0.01   0.00   0.01     0.01   0.00  -0.00     0.28  -0.02  -0.11
     9   7     0.00  -0.00  -0.00    -0.01   0.00  -0.00     0.01  -0.01   0.01
    10   1    -0.03   0.00   0.01    -0.02  -0.00   0.01     0.21   0.09  -0.28
    11   1     0.01   0.01   0.01    -0.00   0.01   0.00    -0.15  -0.13   0.16
    12   6    -0.00   0.01  -0.00     0.02  -0.06   0.05    -0.07   0.01  -0.03
    13   6    -0.02   0.05  -0.05    -0.03   0.07  -0.07     0.01  -0.00   0.04
    14   6    -0.02   0.05  -0.04     0.00  -0.01   0.01     0.03   0.05   0.03
    15   6    -0.00  -0.00   0.00     0.02  -0.07   0.06    -0.01   0.00  -0.02
    16   6     0.02  -0.05   0.04     0.00  -0.01   0.01     0.02  -0.02  -0.03
    17   6     0.03  -0.06   0.05    -0.03   0.08  -0.06     0.01  -0.00   0.02
    18   1     0.19  -0.34   0.34     0.22  -0.38   0.38    -0.01   0.12  -0.05
    19   1     0.16  -0.33   0.30    -0.02   0.04  -0.04     0.08   0.03   0.01
    20   1    -0.01   0.01   0.00    -0.19   0.39  -0.35     0.03  -0.10   0.03
    21   1    -0.15   0.34  -0.31    -0.01   0.03  -0.03    -0.01   0.02  -0.08
    22   1    -0.17   0.35  -0.32     0.19  -0.38   0.35    -0.01   0.05  -0.03
    23   1     0.00  -0.01   0.01    -0.05   0.02  -0.02    -0.38   0.06  -0.09
    24  35    -0.00   0.00  -0.00    -0.00  -0.00  -0.00    -0.00  -0.01  -0.00
    25   8    -0.00  -0.00  -0.00    -0.00   0.02   0.00     0.02   0.15   0.03
    26   6     0.00   0.00   0.00    -0.01   0.00  -0.00    -0.16  -0.02  -0.06
    27   1     0.00   0.00   0.00    -0.04  -0.02  -0.02    -0.36  -0.19  -0.15
    28   1    -0.00   0.00   0.00     0.01  -0.01   0.00    -0.02  -0.10   0.00
    29   1     0.00   0.00   0.00     0.01  -0.01   0.00     0.00  -0.08  -0.03
                     34                     35                     36
                      A                      A                      A
 Frequencies --   1016.7372              1020.4423              1034.3541
 Red. masses --      1.5373                 3.8140                 1.2564
 Frc consts  --      0.9363                 2.3400                 0.7920
 IR Inten    --      0.5301                 1.6485                13.7173
  Atom  AN      X      Y      Z        X      Y      Z        X      Y      Z
     1   6     0.01   0.00   0.00    -0.02  -0.01  -0.01    -0.04   0.02  -0.03
     2   6     0.01  -0.00   0.00    -0.02   0.01  -0.00    -0.05   0.01  -0.01
     3   8    -0.00  -0.00  -0.00     0.00   0.01   0.00     0.01   0.01   0.00
     4   6    -0.00  -0.00  -0.00     0.01   0.02   0.01     0.01   0.02   0.04
     5   6     0.00  -0.00  -0.01    -0.01   0.01   0.01    -0.00   0.07  -0.01
     6   1     0.03   0.02   0.00     0.01  -0.05  -0.02     0.16  -0.17  -0.10
     7   1     0.02   0.01   0.01    -0.10  -0.06   0.02    -0.37  -0.20   0.11
     8   1    -0.03  -0.00   0.02     0.10  -0.02  -0.03     0.37  -0.09  -0.07
     9   7    -0.00   0.00  -0.00     0.01  -0.01  -0.00     0.01  -0.04  -0.00
    10   1    -0.04  -0.02   0.05     0.08   0.03  -0.09     0.19   0.07  -0.27
    11   1     0.01   0.01  -0.01    -0.07  -0.07   0.10    -0.27  -0.26   0.51
    12   6    -0.01   0.00   0.00    -0.02  -0.01   0.01     0.01   0.00   0.01
    13   6     0.01   0.02  -0.11     0.13  -0.19  -0.20    -0.00   0.01   0.00
[...]
 ,-0.00032705,0.00001499,-0.00002523,0.00001744,-0.00004704,-0.00005707
 ,0.00006856,-0.00001935,0.00001544,-0.00024089,-0.00049162,-0.00102187
 ,0.06828318,-0.00084620,-0.01885144,-0.00636154,0.00149362,-0.00447609
 ,0.00048059,0.00327102,0.00248406,-0.00032085,0.05201000,-0.26800068,-
 0.11068755,-0.00113963,0.00063559,-0.00021471,0.00003815,-0.00012336,-
 0.00003291,0.00010793,0.00000920,0.00002617,-0.00002889,-0.00036222,-0
 .00018497,-0.00180774,0.00681868,0.00877733,0.00034401,-0.00044585,0.0
 0233583,-0.00011702,0.00036579,-0.00029399,0.00051142,-0.00356941,-0.0
 0213092,0.00070036,0.00041402,0.00026483,-0.00039765,-0.00007602,-0.00
 043799,-0.00008879,0.00029263,0.00025456,0.00031735,0.00022945,0.00001
 181,-0.00198550,0.00063424,-0.00068514,-0.00009816,-0.00003567,0.00006
 930,0.00004199,-0.00004303,0.00005984,-0.00002908,-0.00000997,0.000062
 21,0.00001249,-0.00003895,0.00000637,0.00015535,0.00020498,0.00058059,
 -0.05027023,0.28530222,0.00290631,0.00318016,0.00404427,-0.00145002,0.
 00329639,-0.00064595,0.00095813,-0.00155899,-0.00201397,0.01905629,-0.
 10907799,-0.08994569,0.00189894,-0.00094665,0.00030356,-0.00044460,0.0
 0037144,0.00015301,-0.00009828,-0.00004179,-0.00004227,-0.00067435,0.0
 0048237,-0.00021798,0.00618066,-0.01543051,-0.02592772,-0.00049364,0.0
 0253957,-0.00387274,0.00026823,-0.00051685,0.00010139,0.00012784,0.004
 55290,0.00386021,-0.00176577,-0.00012398,0.00028901,-0.00005064,0.0001
 7881,0.00037471,-0.00008325,0.00004537,0.00001991,0.00021698,0.0000896
 5,-0.00033700,-0.00214826,0.00165923,0.00016595,0.00005157,0.00016246,
 -0.00004729,-0.00009232,0.00006030,-0.00004758,-0.00002483,-0.00005207
 ,0.00003047,-0.00001149,-0.00000895,-0.00001286,-0.00029782,-0.0002635
 1,0.00005845,-0.02591136,0.11028867,0.11102661,-0.02837909,0.00287826,
 0.00843408,0.00325386,0.01666814,0.00123580,-0.00310394,0.00273661,0.0
 0260720,0.00184784,-0.01610721,-0.00399532,-0.00016060,-0.00007059,0.0
 0017866,-0.00001215,-0.00001233,-0.00001545,0.00000489,0.00009242,-0.0
 0003542,-0.00006241,-0.00008400,0.00002998,0.00071251,0.00135270,-0.00
 125001,-0.00000477,0.00009842,0.00005835,0.00003913,0.00017243,-0.0004
 0597,-0.00000775,-0.00152164,-0.00052228,-0.00398976,-0.00114121,0.001
 71833,-0.00004269,-0.00066614,-0.00004803,0.00016691,0.00006260,-0.000
 30205,-0.00036886,0.00001225,-0.00014660,0.00037469,0.00025393,0.00017
 669,-0.00267769,-0.00181893,-0.00034204,-0.00001963,-0.00005596,0.0000
 8470,-0.00004394,0.00001316,-0.00008171,-0.00000155,-0.00000954,-0.000
 00708,0.00001314,-0.00002197,0.00003808,-0.00227125,-0.00207642,0.0012
 4215,0.03795316,0.00769279,-0.13895021,-0.03104813,-0.01224740,-0.0246
 6525,-0.00200561,0.00671295,-0.00411446,-0.00301005,0.00680149,-0.0273
 2610,-0.01338215,-0.00031459,0.00021877,-0.00053745,0.00015749,0.00002
 223,0.00015019,0.00031773,-0.00053197,0.00018640,0.00010813,0.00034346
 ,-0.00017625,-0.00027574,0.00074209,0.00325415,-0.00014903,-0.00061236
 ,0.00041723,0.00011446,0.00046859,-0.00030398,0.00229025,0.00008622,0.
 00149726,-0.00165075,0.00037921,-0.00002515,-0.00072798,0.00004394,-0.
 00029127,-0.00009533,0.00049641,0.00040853,0.00049653,-0.00033164,-0.0
 0012093,-0.00067721,0.00018154,-0.00052611,-0.00081052,-0.00067691,0.0
 0025113,-0.00012778,0.00002525,0.00001755,-0.00004480,0.00001866,-0.00
 000128,-0.00005001,-0.00002997,-0.00000794,0.00015329,0.00003389,0.000
 18886,-0.00339793,-0.00177533,0.00108377,-0.00614453,0.19403100,0.0083
 2085,-0.02932687,-0.01346468,-0.00590267,-0.00904312,-0.00442020,0.003
 38581,-0.00254496,0.00292250,0.00099462,-0.00030099,-0.00496532,-0.000
 55460,-0.00021569,0.00028278,0.00005141,-0.00000991,0.00002179,0.00007
 962,0.00009179,-0.00029761,-0.00001186,-0.00003388,-0.00006488,-0.0001
 7164,0.00038153,0.00209445,-0.00008109,-0.00051331,0.00063898,0.000069
 33,-0.00019312,-0.00006528,0.00112377,-0.00054630,-0.00057205,0.000883
 57,0.00002326,-0.00076675,-0.00001177,0.00015247,0.00038862,0.00008418
 ,-0.00007288,0.00007692,0.00001830,0.00000789,-0.00001308,-0.00008772,
 0.00010121,-0.00009200,0.00096216,0.00075360,0.00024490,-0.00000396,0.
 00002464,-0.00003762,0.00001908,0.00002088,0.00002893,-0.00000469,0.00
 000572,0.00000322,0.00001012,0.00004123,0.00006282,-0.00029629,-0.0015
 8971,0.00252013,-0.01036292,0.04404048,0.01770034,-0.06566319,-0.03305
 865,0.01784174,-0.19248721,-0.07955237,0.03102602,0.00767834,-0.041065
 76,0.00085846,0.00675557,0.01624706,-0.00972488,-0.00255578,-0.0000219
 0,-0.00010463,0.00032883,-0.00008276,0.00041389,-0.00022374,0.00020581
 ,-0.00056442,0.00015302,0.00038836,-0.00063111,-0.00336574,-0.00597420
 ,0.01069791,0.00043845,-0.00042297,-0.00013960,0.00047507,-0.00007366,
 0.00134988,0.00126980,-0.00180446,0.00205217,-0.00074326,-0.00023070,-
 0.00024332,-0.00009704,0.00003534,-0.00034939,-0.00057696,0.00032064,0
 .00009798,0.00032642,-0.00004071,-0.00012947,-0.00115832,0.00052016,0.
 00006771,0.00024280,-0.00020731,-0.00005409,-0.00018351,0.00012674,0.0
 0003477,-0.00013924,0.00001488,-0.00001801,-0.00018873,-0.00003862,-0.
 00011786,0.00019330,-0.00003962,0.00015455,0.00167596,-0.00005199,0.00
 067001,-0.00374376,0.00225130,0.00192052,0.51264869,-0.01226990,0.0079
 5722,0.00144417,-0.04395243,-0.17491399,-0.00019797,-0.05217793,-0.083
 76913,0.00345204,0.00681555,0.00449513,-0.00586582,-0.00075254,-0.0005
 6391,-0.00005068,0.00005951,0.00014508,0.00026585,-0.00008649,0.000030
 38,-0.00018636,0.00018165,0.00051286,-0.00062876,-0.00113467,-0.001883
 45,0.00410906,0.00009097,-0.00033402,0.00006471,0.00022361,-0.00004031
 ,0.00040158,0.00076692,0.00036425,0.00090905,-0.00016496,-0.00012148,-
 0.00030228,-0.00014955,0.00010261,-0.00010861,-0.00018729,0.00016789,0
 .00011028,0.00020810,-0.00000750,0.00003487,-0.00027180,-0.00000547,-0
 .00007599,-0.00001583,-0.00008629,0.00015697,-0.00007740,0.00004444,0.
 00000905,-0.00004540,0.00000483,0.00001022,-0.00004540,-0.00002726,-0.
 00002563,0.00008696,0.00001448,0.00009349,0.00169777,0.00036350,-0.000
 00529,0.00510897,0.00160152,-0.00125159,0.03527739,0.36538807,0.021891
 41,0.01034494,0.00610228,0.03797839,0.01178795,-0.07619673,-0.00108038
 ,-0.00034347,0.02671741,0.00064226,-0.00480812,0.00455903,0.00009382,-
 0.00041968,0.00027746,-0.00018750,0.00009966,-0.00004906,-0.00009901,-
 0.00020790,0.00030532,0.00001623,0.00006470,-0.00012249,0.00053353,0.0
 0082904,-0.00217953,-0.00013591,0.00010452,-0.00002274,-0.00005046,-0.
 00005958,-0.00022551,-0.00008368,0.00128260,-0.00078393,0.00016508,0.0
 0004022,0.00004747,0.00004494,-0.00001087,0.00017807,0.00020753,-0.000
 12543,-0.00003839,-0.00013327,-0.00001934,0.00009990,0.00044653,-0.000
 20931,-0.00003438,-0.00005101,0.00008503,0.00000285,0.00005406,-0.0000
 3560,-0.00001448,0.00004625,0.00000291,-0.00000034,0.00007271,0.000020
 05,0.00003514,-0.00005234,0.00005369,-0.00004052,-0.00022140,-0.000221
 84,-0.00002529,0.00190841,-0.00032208,-0.00192367,-0.14199325,0.027747
 93,0.12722904,0.00889362,-0.00042826,-0.00072437,-0.06620045,-0.012832
 04,0.01994187,0.00184084,0.01550661,-0.00044500,-0.00344286,-0.0041211
 4,0.00469146,0.00059307,-0.00005514,0.00004150,-0.00004588,0.00004190,
 -0.00016980,0.00002328,-0.00012201,0.00033527,-0.00003563,-0.00022655,
 0.00029235,0.00088318,0.00181350,-0.00362587,-0.00017608,0.00010840,0.
 00004511,-0.00013630,-0.00002383,-0.00036221,-0.00049081,0.00032807,-0
 .00079538,0.00028139,0.00005450,-0.00000666,0.00004231,0.00003049,0.00
 014415,0.00019731,-0.00012346,-0.00003998,-0.00012948,0.00001872,0.000
 00987,0.00033272,-0.00012357,0.00000174,-0.00011838,0.00007078,0.00008
 079,0.00005693,-0.00004742,-0.00001285,0.00005274,-0.00000825,0.000012
 52,0.00005807,0.00001857,0.00004211,-0.00007652,-0.00000434,-0.0000489
 2,-0.00043475,-0.00001109,-0.00015352,0.00033795,-0.00008437,-0.000336
 04,-0.19084380,0.04368350,0.04829751,0.53196641,-0.00412230,-0.0047681
 0,-0.00003673,-0.02014003,0.02139476,0.00983281,-0.00338793,-0.0055229
 2,0.00100144,-0.00025081,0.00169730,-0.00094757,-0.00021770,0.00002429
 ,0.00000311,0.00001139,-0.00001759,0.00005524,-0.00003173,0.00006440,-
 0.00010224,-0.00002981,0.00004403,-0.00009274,-0.00022462,-0.00044173,
 0.00090609,0.00005717,-0.00003889,-0.00000098,0.00004840,0.00001404,0.
 00011365,0.00007821,-0.00036606,0.00030902,-0.00006912,-0.00000921,-0.
 00003806,-0.00002203,0.00001260,-0.00004560,-0.00006567,0.00003951,0.0
 0002044,0.00004840,-0.00000965,-0.00002702,-0.00015544,0.00009375,-0.0
 0000029,0.00002254,-0.00002294,0.00000705,-0.00001909,0.00001586,0.000
 00079,-0.00001508,0.00000221,-0.00000143,-0.00002758,-0.00000376,-0.00
 001472,0.00002623,-0.00001040,0.00001922,0.00017907,0.00001880,0.00007
 821,0.00031556,0.00030108,-0.00000301,0.06787431,-0.12032609,-0.030254
 58,0.05317191,0.60567154,-0.00272240,-0.00092178,0.00351108,0.01848816
 ,0.00702756,-0.00669486,-0.00307428,-0.00529959,-0.00438378,0.00176012
 ,0.00132922,-0.00020574,-0.00020016,0.00005363,-0.00007139,0.00001365,
 -0.00001883,0.00005149,0.00006541,-0.00003654,-0.00009721,0.00007501,0
 .00012660,-0.00009991,-0.00084382,-0.00104491,0.00151905,0.00007633,-0
 .00004502,-0.00003002,0.00005558,-0.00002396,0.00025687,0.00040918,0.0
 0015584,0.00003439,-0.00005814,0.00000204,0.00001443,-0.00004425,-0.00
 001129,-0.00005593,-0.00004513,0.00005299,0.00002658,0.00003471,-0.000
 05004,-0.00001246,-0.00012883,0.00007603,0.00001214,0.00003582,-0.0000
 4831,-0.00003727,-0.00001794,0.00001326,0.00000358,-0.00002008,0.00000
 070,-0.00000332,-0.00002858,-0.00000685,-0.00001390,0.00002851,-0.0000
 0152,0.00002253,0.00024974,-0.00008343,0.00021147,-0.00013045,0.000218
 14,-0.00028931,0.05257510,-0.02225408,-0.08704204,0.02707531,-0.015152
 51,0.57954643,-0.00154788,-0.00158697,0.00022032,-0.00048562,0.0062838
 8,0.00098954,0.00121931,-0.00105892,-0.00032668,0.00011441,0.00084691,
 -0.00044660,-0.00010349,0.00001129,0.00000300,0.00001088,-0.00001041,0
 .00002118,-0.00000238,0.00000770,-0.00004982,0.00000774,0.00002412,-0.
 00003037,-0.00015761,-0.00028264,0.00052017,0.00002323,-0.00002195,-0.
 00000721,0.00002224,-0.00000229,0.00006118,0.00007535,-0.00011762,0.00
 011207,-0.00003780,-0.00000323,-0.00001241,-0.00000710,0.00000463,-0.0
 0002090,-0.00003169,0.00001932,0.00000650,0.00001970,-0.00000339,-0.00
 000878,-0.00006900,0.00002898,-0.00000169,0.00001179,-0.00001317,-0.00
 000034,-0.00001069,0.00000679,0.00000245,-0.00000825,0.00000037,-0.000
 00043,-0.00001074,-0.00000272,-0.00000612,0.00001171,-0.00000169,0.000
 00911,0.00007030,0.00000492,0.00003591,0.00003994,0.00010886,0.0000083
 1,-0.03403911,-0.02225039,0.00804841,-0.14748254,-0.13077255,0.0095183
 8,0.17424565,-0.00018524,0.00051625,0.00001234,0.00360817,-0.00312144,
 -0.00161153,-0.00259953,0.00135399,0.00095160,0.00021110,0.00010273,-0
 .00022766,-0.00000783,-0.00002411,-0.00000247,-0.00000345,0.00000307,0
 .00001351,0.00000221,-0.00000871,-0.00002189,0.00001780,0.00003144,-0.
 00001838,-0.00004234,-0.00006968,0.00015345,0.00000533,-0.00000860,-0.
 00000527,0.00000904,0.00000032,0.00000823,0.00004600,0.00003423,0.0000
 4483,-0.00002302,-0.00000242,-0.00000346,-0.00000347,-0.00000091,-0.00
 000432,-0.00000918,0.00000656,0.00000193,0.00000573,0.00000024,0.00000
 427,-0.00000964,-0.00000417,-0.00000314,0.00000606,-0.00000415,-0.0000
 0422,-0.00000386,0.00000299,0.00000103,-0.00000350,0.00000080,-0.00000
 068,-0.00000147,-0.00000154,-0.00000214,0.00000563,0.00000299,0.000004
 20,0.00004327,0.00004138,0.00000437,-0.00010193,0.00010275,0.00007267,
 0.01590638,0.01410574,-0.00299976,-0.14193047,-0.22910304,0.01733395,0
 .14273477,0.23512485,0.00050224,0.00061801,0.00007645,0.00097799,-0.00
 239386,-0.00029553,-0.00040927,0.00038572,0.00089091,0.00003835,-0.000
 27054,0.00014521,0.00003063,-0.00000311,-0.00000029,0.00000003,0.00000
 584,-0.00000570,0.00000017,0.00000719,0.00002300,-0.00001386,-0.000011
 48,0.00000887,0.00003596,0.00006688,-0.00013761,-0.00000177,0.00000636
 ,0.00000547,-0.00000570,-0.00000088,-0.00001432,-0.00001234,0.00004893
 ,-0.00005567,0.00001330,0.00000178,0.00000630,0.00000211,-0.00000257,0
 .00000794,0.00000995,-0.00000619,-0.00000404,-0.00000851,0.00000245,0.
 00000360,0.00002317,-0.00001247,-0.00000087,-0.00000276,0.00000406,-0.
 00000099,0.00000331,-0.00000245,0.00000016,0.00000171,-0.00000019,0.00
 000042,0.00000323,0.00000002,0.00000193,-0.00000237,0.00000159,-0.0000
 0228,-0.00002462,-0.00000822,-0.00000017,-0.00004083,-0.00002399,-0.00
 003269,0.01390897,0.00957733,-0.00242982,0.00764874,0.01359573,-0.0526
 3731,-0.01868466,-0.01544659,0.04912307,-0.00189245,-0.00022961,-0.000
 36486,0.00527579,0.00584525,0.00116343,-0.00069238,-0.00200787,-0.0004
 3227,0.00040496,0.00072520,-0.00083995,-0.00010041,0.00003785,-0.00001
 517,0.00002344,-0.00001431,0.00001195,-0.00001067,0.00003066,-0.000044
 65,-0.00000217,-0.00001326,-0.00000772,-0.00009905,-0.00023548,0.00056
 439,0.00002214,-0.00001784,-0.00000038,0.00001589,0.00000366,0.0000452
 2,0.00004621,-0.00012174,0.00012785,-0.00004422,-0.00000771,0.00000149
 ,0.00000417,-0.00000621,-0.00002124,-0.00003487,0.00001548,0.00000049,
 0.00001906,0.00000326,-0.00001019,-0.00005517,0.00002708,0.00000517,0.
 00001628,-0.00000903,-0.00001034,-0.00000747,0.00000520,0.00000182,-0.
 00000560,-0.00000010,-0.00000140,-0.00000967,-0.00000298,-0.00000468,0
 .00000531,-0.00001017,0.00000603,0.00000271,-0.00000011,0.00002353,0.0
 0007421,-0.00017650,0.00002693,-0.00802637,0.01617566,0.03673814,-0.05
 712436,-0.02085801,-0.04615889,-0.00103616,-0.00547087,-0.01702479,0.0
 6332906,0.00084435,0.00021173,-0.00014793,-0.00361130,-0.00146600,0.00
 146421,0.00055002,0.00081470,-0.00001007,-0.00024848,-0.00042285,0.000
 41528,0.00004026,0.00001596,-0.00000128,0.00000496,0.00000059,-0.00002
 044,0.00000920,-0.00001579,0.00003674,-0.00000357,-0.00003777,0.000046
 39,0.00007307,0.00015315,-0.00027794,-0.00001919,0.00000875,0.00000917
 ,-0.00001730,0.00000100,-0.00003453,-0.00004054,0.00004003,-0.00010150
 ,0.00003766,0.00000553,0.00000590,0.00000352,0.00000021,0.00001297,0.0
 0002218,-0.00001233,-0.00000077,-0.00000845,-0.00000113,0.00000696,0.0
 0003322,-0.00002196,-0.00000059,-0.00001409,0.00000772,0.00000949,0.00
 000717,-0.00000470,-0.00000193,0.00000658,0.00000002,0.00000064,0.0000
 0886,0.00000361,0.00000399,-0.00000842,0.00000670,-0.00000878,-0.00008
 700,0.00000258,-0.00000853,0.00002871,-0.00005749,-0.00007379,0.008215
 25,-0.00542642,-0.01369884,-0.01801226,-0.09657545,-0.10027267,-0.0029
 1363,-0.00703553,-0.02129567,0.01212891,0.10016218,0.00098812,0.000580
 53,-0.00028234,-0.00398490,-0.00634318,0.00087617,-0.00119958,0.002642
 64,0.00159648,-0.00036729,-0.00051442,0.00042090,0.00006072,-0.0000487
 1,0.00001186,-0.00000149,0.00001147,-0.00000539,-0.00001938,0.00000622
 ,0.00003267,-0.00002091,-0.00001547,0.00001375,0.00011933,0.00020593,-
 0.00036696,-0.00002285,0.00000782,0.00001105,-0.00000936,-0.00000738,-
 0.00004416,-0.00003711,0.00006375,-0.00007909,0.00002760,0.00000866,-0
 .00000228,0.00000011,0.00000431,0.00001753,0.00002137,-0.00001039,-0.0
 0000141,-0.00000871,0.00000266,0.00000796,0.00003900,-0.00003006,-0.00
 000977,-0.00001387,0.00000920,0.00001084,0.00000493,-0.00000426,-0.000
 00126,0.00000528,-0.00000006,0.00000142,0.00000883,0.00000196,0.000004
 52,-0.00000491,0.00000641,-0.00000448,-0.00001004,0.00002939,-0.000017
 25,-0.00002678,0.00015283,0.00000844,0.01281194,-0.00514656,-0.0083296
 6,-0.03964377,-0.09965096,-0.26569159,0.00036042,0.00324664,0.00517262
 ,0.03486321,0.11413134,0.28220325,-0.00166792,-0.00066584,0.00084792,0
 .00544346,0.00895150,-0.00194630,0.00063705,-0.00349489,0.00000476,0.0
 0071464,0.00082249,-0.00062503,-0.00014804,0.00003274,-0.00002639,0.00
 003754,-0.00001379,0.00001191,-0.00001915,0.00004786,-0.00001679,-0.00
 003284,-0.00001680,-0.00002516,-0.00020342,-0.00042107,0.00070450,0.00
 003063,-0.00001311,-0.00000932,0.00002234,-0.00001291,0.00009670,0.000
 10142,-0.00003820,0.00008128,-0.00003075,-0.00000768,0.00001059,-0.000
 00929,-0.00000493,-0.00002329,-0.00002312,0.00001843,0.00000816,0.0000
 1701,-0.00001102,-0.00000361,-0.00005318,0.00002112,0.00000592,0.00001
 567,-0.00001412,-0.00001499,-0.00000673,0.00000608,0.00000101,-0.00000
 653,0.00000076,-0.00000184,-0.00000758,-0.00000114,-0.00000582,0.00000
 863,0.00000218,0.00000193,0.00000006,-0.00006012,0.00006361,0.00007159
 ,-0.00023080,-0.00013334,-0.02815048,0.02320540,-0.01309697,-0.0788219
 7,0.05857633,-0.05698807,0.00915779,-0.01220567,0.01303162,-0.00009822
 ,0.00297029,-0.00393993,0.09302137,0.00105822,0.00028686,-0.00004329,-
 0.00464985,-0.00243308,0.00057456,-0.00046892,0.00146345,-0.00000970,-
 0.00037897,-0.00049666,0.00044653,0.00009654,0.00001845,0.00001991,-0.
 00001401,0.00000214,-0.00002505,0.00002923,-0.00002961,0.00003710,-0.0
 0000630,-0.00001910,0.00003620,0.00012196,0.00020647,-0.00046674,-0.00
 001813,0.00001655,0.00000064,-0.00002562,0.00000277,-0.00004608,-0.000
 07498,0.00005598,-0.00006572,0.00002928,0.00000443,-0.00000433,0.00000
 745,0.00000677,0.00001651,0.00002234,-0.00001525,-0.00000579,-0.000015
 58,0.00000258,0.00000083,0.00004309,-0.00001336,0.00000174,-0.00001530
 ,0.00000801,0.00001258,0.00000693,-0.00000608,-0.00000133,0.00000646,-
 0.00000151,0.00000178,0.00000637,0.00000172,0.00000537,-0.00001124,-0.
 00000229,-0.00000731,-0.00007600,-0.00000907,-0.00003856,0.00003824,-0
 .00002491,0.00000174,0.01528205,-0.00779266,0.00127315,0.06330725,-0.1
 7217836,0.11888139,0.00895901,-0.01204603,0.01515633,-0.00581641,0.009
 64295,-0.00934031,-0.07744310,0.18334883,0.00040425,-0.00012118,-0.000
 59830,-0.00021452,0.00088522,0.00147576,0.00164397,-0.00066542,-0.0004
 4715,-0.00015787,-0.00017973,0.00005937,0.00004519,0.00003130,-0.00000
 640,-0.00000246,-0.00000359,-0.00000489,0.00000629,-0.00000354,0.00000
 224,-0.00000618,-0.00000662,0.00001160,0.00003931,0.00012197,-0.000163
 96,-0.00000326,0.00000488,0.00000644,-0.00001230,0.00001072,-0.0000197
 5,-0.00004463,-0.00003210,-0.00001982,0.00001376,-0.00000232,0.0000029
 0,0.00000413,-0.00000264,0.00000371,0.00000529,-0.00000579,-0.00000180
 ,-0.00000285,0.00000345,0.00000409,0.00001215,-0.00000576,0.00000144,-
 0.00000224,0.00000515,0.00000182,0.00000272,-0.00000074,-0.00000058,0.
 00000186,0.00000083,-0.00000048,0.00000321,0.00000169,0.00000023,-0.00
 000117,0.00000489,-0.00000447,-0.00005047,0.00000627,-0.00000537,0.000
 00047,-0.00008416,0.00001034,0.00758841,-0.01228700,0.01390462,-0.0622
 9593,0.12042565,-0.16784400,-0.00032094,-0.00150149,0.00015130,-0.0086
 4315,0.01981218,-0.01555382,0.06198695,-0.12641214,0.16903493\\0.00000
 830,-0.00000196,-0.00000225,-0.00000469,-0.00000758,0.00001065,0.00000
 119,-0.00000614,0.00000597,-0.00000609,-0.00000882,0.00002167,-0.00000
 012,0.00001591,-0.00000204,-0.00000954,0.00001560,0.00000781,-0.000007
 50,0.00000136,0.00000618,-0.00000649,0.00000539,0.00001211,-0.00000401
 ,0.00000805,-0.00001079,-0.00000429,0.00001444,0.00000257,-0.00000931,
 0.00001199,0.00000780,0.00000305,-0.00000133,-0.00000087,0.00000269,0.
 00000113,-0.00001258,0.00000397,0.00001201,-0.00000717,0.00000636,-0.0
 0000608,-0.00001650,-0.00000192,0.00000235,-0.00000362,0.00000050,0.00
 000317,0.00000362,0.00000040,0.00000987,-0.00000951,0.00000184,0.00001
 021,-0.00001737,0.00000112,0.00000470,-0.00001334,0.00000232,-0.000004
 25,-0.00000216,0.00000327,-0.00000949,0.00000151,0.00000038,-0.0000030
 7,0.00000553,0.00000452,0.00000156,-0.00001243,0.00000403,-0.00000979,
 -0.00000061,0.00000085,-0.00001710,0.00000916,0.00000537,-0.00001561,0
 .00000199,0.00000352,-0.00001781,0.00000716,0.00000031,-0.00000868,0.0
 0000750\\\@
 The archive entry for this job was punched.


 ON A TOMBSTONE, "HERE LIES LESTER MOORE,
 FOUR SLUGS FROM A 44, NO LES, NO MORE".
 Job cpu time:       0 days  0 hours 45 minutes 19.1 seconds.
 Elapsed time:       0 days  0 hours  3 minutes 49.0 seconds.
 File lengths (MBytes):  RWF=    416 Int=      0 D2E=      0 Chk=     14 Scr=      1
 Normal termination of Gaussian 16 at Mon Jan  1 14:57:46 2024.
