Unloading slurm/anatra/current
  ERROR: No such file or directory on
    '/cm/local/modulefiles/slurm/anatra/current'
environment: line 0: unalias: gv: not found
environment: line 0: unalias: sl: not found
 Entering Gaussian System, Link 0=g16
 Initial command:
 /apps/gaussian/g16/C.01/g16/l1.exe "/local/jobs/1153286/Gau-1716699.inp" -scrdir="/local/jobs/1153286/"
 Entering Link 1 = /apps/gaussian/g16/C.01/g16/l1.exe PID=   1716700.
  
 Copyright (c) 1988-2019, Gaussian, Inc.  All Rights Reserved.
  
 This is part of the Gaussian(R) 16 program.  It is based on
 the Gaussian(R) 09 system (copyright 2009, Gaussian, Inc.),
 the Gaussian(R) 03 system (copyright 2003, Gaussian, Inc.),
 the Gaussian(R) 98 system (copyright 1998, Gaussian, Inc.),
 the Gaussian(R) 94 system (copyright 1995, Gaussian, Inc.),
 the Gaussian 92(TM) system (copyright 1992, Gaussian, Inc.),
 the Gaussian 90(TM) system (copyright 1990, Gaussian, Inc.),
 the Gaussian 88(TM) system (copyright 1988, Gaussian, Inc.),
 the Gaussian 86(TM) system (copyright 1986, Carnegie Mellon
 University), and the Gaussian 82(TM) system (copyright 1983,
 Carnegie Mellon University). Gaussian is a federally registered
 trademark of Gaussian, Inc.
  
 This software contains proprietary and confidential information,
 including trade secrets, belonging to Gaussian, Inc.
  
 This software is provided under written license and may be
 used, copied, transmitted, or stored only in accord with that
 written license.
  
 The following legend is applicable only to US Government
 contracts under FAR:
  
                    RESTRICTED RIGHTS LEGEND
  
 Use, reproduction and disclosure by the US Government is
 subject to restrictions as set forth in subparagraphs (a)
 and (c) of the Commercial Computer Software - Restricted
 Rights clause in FAR 52.227-19.
  
 Gaussian, Inc.
 340 Quinnipiac St., Bldg. 40, Wallingford CT 06492
  
  
 ---------------------------------------------------------------
 Warning -- This program may not be used in any manner that
 competes with the business of Gaussian, Inc. or will provide
 assistance to any competitor of Gaussian, Inc.  The licensee
 of this program is prohibited from giving any competitor of
 Gaussian, Inc. access to this program.  By using this program,
 the user acknowledges that Gaussian, Inc. is engaged in the
 business of creating and licensing software in the field of
 computational chemistry and represents and warrants to the
 licensee that it is not a competitor of Gaussian, Inc. and that
 it will not use this program in any manner prohibited above.
 ---------------------------------------------------------------
  

 Cite this work as:
 Gaussian 16, Revision C.01,
 M. J. Frisch, G. W. Trucks, H. B. Schlegel, G. E. Scuseria, 
 M. A. Robb, J. R. Cheeseman, G. Scalmani, V. Barone, 
 G. A. Petersson, H. Nakatsuji, X. Li, M. Caricato, A. V. Marenich, 
 J. Bloino, B. G. Janesko, R. Gomperts, B. Mennucci, H. P. Hratchian, 
 J. V. Ortiz, A. F. Izmaylov, J. L. Sonnenberg, D. Williams-Young, 
 F. Ding, F. Lipparini, F. Egidi, J. Goings, B. Peng, A. Petrone, 
 T. Henderson, D. Ranasinghe, V. G. Zakrzewski, J. Gao, N. Rega, 
 G. Zheng, W. Liang, M. Hada, M. Ehara, K. Toyota, R. Fukuda, 
 J. Hasegawa, M. Ishida, T. Nakajima, Y. Honda, O. Kitao, H. Nakai, 
 T. Vreven, K. Throssell, J. A. Montgomery, Jr., J. E. Peralta, 
 F. Ogliaro, M. J. Bearpark, J. J. Heyd, E. N. Brothers, K. N. Kudin, 
 V. N. Staroverov, T. A. Keith, R. Kobayashi, J. Normand, 
 K. Raghavachari, A. P. Rendell, J. C. Burant, S. S. Iyengar, 
 J. Tomasi, M. Cossi, J. M. Millam, M. Klene, C. Adamo, R. Cammi, 
 J. W. Ochterski, R. L. Martin, K. Morokuma, O. Farkas, 
 J. B. Foresman, and D. J. Fox, Gaussian, Inc., Wallingford CT, 2019.
 
 ******************************************
 Gaussian 16:  ES64L-G16RevC.01  3-Jul-2019
                 1-Jan-2024 
 ******************************************
 %chk=TS-68_opt_dft_freq.chk
 %nprocshared=12
 Will use up to   12 processors via shared memory.
 %mem=48GB
 -----------------------------------------------------------
 # wb97xd def2svp scrf=(iefpcm,solvent=toluene) freq=noraman
 -----------------------------------------------------------
 1/10=4,30=1,38=1/1,3;
 2/12=2,17=6,18=5,40=1/2;
 3/5=43,7=101,11=2,25=1,30=1,70=2201,71=2,72=13,74=-58,140=1/1,2,3;
 4//1;
 5/5=2,38=5,53=13,98=1/2;
 8/6=4,10=90,11=11/1;
 11/6=1,8=1,9=11,15=111,16=1/1,2,10;
 10/6=1/2;
 6/7=2,8=2,9=2,10=2,28=1/1;
 7/8=1,10=1,25=1/1,2,3,16;
 1/10=4,30=1/3;
 99//99;
 -----------------
 TS-68_opt_dft.out
 -----------------
 Symbolic Z-matrix:
 Charge =  0 Multiplicity = 1
 C                    -0.81398   0.04609   0.12774 
 C                    -2.03849   0.62251   0.58802 
 O                    -2.2108    1.82328   0.79449 
 C                     0.29176   0.91301  -0.10294 
 C                    -0.96572   1.85239  -2.27006 
 H                    -0.89601   2.20417  -3.30747 
 H                    -1.60823   0.96481  -2.21816 
 H                    -1.39856   2.62508  -1.6245 
 N                     0.35676   1.48727  -1.75437 
 H                     0.77614   0.74879  -2.32332 
 H                     1.00712   2.27571  -1.77881 
 C                     1.71682   0.51006   0.16313 
 C                     2.38822  -0.47231  -0.57664 
 C                     3.70804  -0.8078   -0.27946 
 C                     4.37666  -0.17197   0.76575 
 C                     3.7181    0.80605   1.50989 
 C                     2.40182   1.14705   1.20548 
 H                     1.8742   -1.00122  -1.38239 
 H                     4.21402  -1.57804  -0.86555 
 H                     5.40944  -0.4388    0.99991 
 H                     4.23226   1.31022   2.33098 
 H                     1.89113   1.91457   1.79266 
 H                     0.05673   1.87209   0.37556 
 Br                   -0.72973  -1.80547  -0.31831 
 O                    -3.03685  -0.26543   0.79593 
 C                    -4.25077   0.26341   1.28097 
 H                    -4.94292  -0.5831    1.36763 
 H                    -4.1189    0.73633   2.26614 
 H                    -4.66681   1.01619   0.59405 
 

 GradGradGradGradGradGradGradGradGradGradGradGradGradGradGradGradGradGrad
 Berny optimization.
 Initialization pass.
 Trust Radius=3.00D-01 FncErr=1.00D-07 GrdErr=1.00D-07 EigMax=2.50D+02 EigMin=1.00D-04
 Number of steps in this run=      2 maximum allowed number of steps=      2.
 GradGradGradGradGradGradGradGradGradGradGradGradGradGradGradGradGradGrad

                          Input orientation:                          
 ---------------------------------------------------------------------
 Center     Atomic      Atomic             Coordinates (Angstroms)
 Number     Number       Type             X           Y           Z
 ---------------------------------------------------------------------
      1          6           0       -0.813980    0.046090    0.127740
      2          6           0       -2.038490    0.622510    0.588020
      3          8           0       -2.210800    1.823280    0.794490
      4          6           0        0.291760    0.913010   -0.102940
      5          6           0       -0.965720    1.852390   -2.270060
      6          1           0       -0.896010    2.204170   -3.307470
      7          1           0       -1.608230    0.964810   -2.218160
      8          1           0       -1.398560    2.625080   -1.624500
      9          7           0        0.356760    1.487270   -1.754370
     10          1           0        0.776140    0.748790   -2.323320
     11          1           0        1.007120    2.275710   -1.778810
     12          6           0        1.716820    0.510060    0.163130
     13          6           0        2.388220   -0.472310   -0.576640
     14          6           0        3.708040   -0.807800   -0.279460
     15          6           0        4.376660   -0.171970    0.765750
     16          6           0        3.718100    0.806050    1.509890
     17          6           0        2.401820    1.147050    1.205480
     18          1           0        1.874200   -1.001220   -1.382390
     19          1           0        4.214020   -1.578040   -0.865550
     20          1           0        5.409440   -0.438800    0.999910
     21          1           0        4.232260    1.310220    2.330980
     22          1           0        1.891130    1.914570    1.792660
     23          1           0        0.056730    1.872090    0.375560
     24         35           0       -0.729730   -1.805470   -0.318310
     25          8           0       -3.036850   -0.265430    0.795930
     26          6           0       -4.250770    0.263410    1.280970
     27          1           0       -4.942920   -0.583100    1.367630
     28          1           0       -4.118900    0.736330    2.266140
     29          1           0       -4.666810    1.016190    0.594050
 ---------------------------------------------------------------------
                    Distance matrix (angstroms):
                    1          2          3          4          5
     1  C    0.000000
     2  C    1.429525   0.000000
     3  O    2.356707   1.230516   0.000000
     4  C    1.423877   2.447832   2.810121   0.000000
     5  C    3.005859   3.291210   3.307951   2.675836   0.000000
     6  H    4.057672   4.356805   4.324330   3.653342   1.097647
     7  H    2.641614   2.859535   3.190003   2.843730   1.096955
     8  H    3.172265   3.052055   2.674720   2.846667   1.095969
     9  N    2.643855   3.460032   3.633449   1.749634   1.465675
    10  H    3.004990   4.051418   4.449391   2.278526   2.062728
    11  H    3.452904   4.196510   4.145066   2.275353   2.076686
    12  C    2.573222   3.780943   4.189196   1.504645   3.862419
    13  C    3.319484   4.706466   5.319842   2.557078   4.418237
    14  C    4.619914   5.985058   6.565715   3.829271   5.734382
    15  C    5.234248   6.466602   6.883057   4.314883   6.469559
    16  C    4.798711   5.832826   6.057921   3.788465   6.109093
    17  C    3.565811   4.513618   4.680007   2.493811   4.890522
    18  H    3.256327   4.672061   5.422530   2.793812   4.122644
    19  H    5.376356   6.785954   7.456743   4.708612   6.369474
    20  H    6.302916   7.534434   7.951557   5.406877   7.522295
    21  H    5.649498   6.544705   6.643572   4.648579   6.962939
    22  H    3.685213   4.308421   4.222618   2.674772   4.967006
    23  H    2.038094   2.448783   2.306421   1.097286   2.836388
    24  Br   1.906393   2.903338   4.074275   2.912037   4.152705
    25  O    2.341938   1.352179   2.246123   3.643670   4.263219
    26  C    3.631624   2.345915   2.613682   4.792887   5.091780
    27  H    4.356759   3.239908   3.685598   5.639397   5.914602
    28  H    3.996459   2.675285   2.643494   5.009758   5.636066
    29  H    4.000355   2.657647   2.592982   5.008379   4.753990
                    6          7          8          9         10
     6  H    0.000000
     7  H    1.797183   0.000000
     8  H    1.806131   1.775638   0.000000
     9  N    2.120259   2.085486   2.095859   0.000000
    10  H    2.425442   2.396444   2.956033   1.022221   0.000000
    11  H    2.442094   2.958301   2.435809   1.022352   1.637476
    12  C    4.662827   4.115009   4.168276   2.545881   2.669139
    13  C    5.040550   4.553187   5.003153   3.058403   2.672223
    14  C    6.279975   5.929876   6.298505   4.321317   3.898253
    15  C    7.073769   6.783428   6.847624   5.026299   4.832587
    16  C    6.815549   6.503334   6.270046   4.734771   4.832381
    17  C    5.688577   5.275891   4.963491   3.613687   3.905621
    18  H    4.653442   4.085475   4.890770   2.938295   2.270159
    19  H    6.810322   6.495709   7.052891   5.006454   4.399801
    20  H    8.080688   7.846897   7.913517   6.068392   5.824234
    21  H    7.674009   7.411161   7.005770   5.633909   5.824301
    22  H    5.819222   5.406870   4.796235   3.888226   4.420807
    23  H    3.818730   3.212885   2.585557   2.185110   3.010533
    24  Br   5.003992   3.472124   4.667252   3.752981   3.579379
    25  O    5.245952   3.555163   4.110660   4.592665   5.029638
    26  C    6.006226   4.440596   4.706840   5.651589   6.204541
    27  H    6.782545   5.135569   5.639836   6.489986   6.935754
    28  H    6.603537   5.144377   5.109276   6.062998   6.710046
    29  H    5.554466   4.155247   4.265202   5.565361   6.181283
                   11         12         13         14         15
    11  H    0.000000
    12  C    2.718883   0.000000
    13  C    3.302160   1.401103   0.000000
    14  C    4.364751   2.428497   1.393842   0.000000
    15  C    4.880545   2.811239   2.417873   1.394201   0.000000
    16  C    4.508310   2.430328   2.785030   2.409644   1.394263
    17  C    3.482104   1.400527   2.408000   2.780773   2.415195
    18  H    3.412806   2.167341   1.092335   2.148682   3.400657
    19  H    5.096042   3.413847   2.153985   1.092148   2.159774
    20  H    5.871139   3.903329   3.407991   2.160488   1.092091
    21  H    5.312633   3.415738   3.877132   3.402236   2.160482
    22  H    3.696930   2.158333   3.399688   3.873776   3.403829
    23  H    2.389029   2.157812   3.440747   4.576344   4.795021
    24  Br   4.669661   3.402803   3.400833   4.548698   5.469801
    25  O    5.425898   4.857901   5.599833   6.851582   7.414161
    26  C    6.407575   6.076391   6.933122   8.180776   8.653760
    27  H    7.312719   6.855506   7.585386   8.809228   9.348040
    28  H    6.708755   6.207212   7.203112   8.374091   8.674717
    29  H    6.277765   6.418145   7.304765   8.615571   9.122804
                   16         17         18         19         20
    16  C    0.000000
    17  C    1.393391   0.000000
    18  H    3.877045   3.404485   0.000000
    19  H    3.401843   3.872899   2.464671   0.000000
    20  H    2.161102   3.406311   4.299952   2.491353   0.000000
    21  H    1.092125   2.154968   4.969137   4.308153   2.493305
    22  H    2.155596   1.093010   4.310807   4.965906   4.306426
    23  H    3.978539   2.591119   3.827466   5.543177   5.863577
    24  Br   5.472252   4.565733   2.925668   4.979143   6.426111
    25  O    6.876566   5.634001   5.422626   7.553713   8.450531
    26  C    7.990604   6.711443   6.797649   8.924750   9.689776
    27  H    8.772870   7.547511   7.362782   9.477687  10.359894
    28  H    7.873712   6.619175   7.228285   9.197899   9.683673
    29  H    8.437395   7.096231   7.124680   9.366408  10.188844
                   21         22         23         24         25
    21  H    0.000000
    22  H    2.477078   0.000000
    23  H    4.644827   2.318405   0.000000
    24  Br   6.430210   5.016353   3.824189   0.000000
    25  O    7.594670   5.480042   3.783641   2.989324   0.000000
    26  C    8.611628   6.380524   4.686382   4.385850   1.410155
    27  H    9.417889   7.288569   5.657620   4.699740   2.015157
    28  H    8.371107   6.142711   4.722301   4.962520   2.082276
    29  H    9.071760   6.726837   4.805427   4.928972   2.083285
                   26         27         28         29
    26  C    0.000000
    27  H    1.096887   0.000000
    28  H    1.100728   1.796448   0.000000
    29  H    1.100739   1.797885   1.781688   0.000000
 Stoichiometry    C11H14BrNO2
 Framework group  C1[X(C11H14BrNO2)]
 Deg. of freedom    81
 Full point group                 C1      NOp   1
 Largest Abelian subgroup         C1      NOp   1
 Largest concise Abelian subgroup C1      NOp   1
                         Standard orientation:                         
 ---------------------------------------------------------------------
 Center     Atomic      Atomic             Coordinates (Angstroms)
 Number     Number       Type             X           Y           Z
 ---------------------------------------------------------------------
      1          6           0       -0.813980   -0.046090   -0.127741
      2          6           0       -2.038489   -0.622511   -0.588021
      3          8           0       -2.210799   -1.823281   -0.794491
      4          6           0        0.291761   -0.913010    0.102939
      5          6           0       -0.965719   -1.852391    2.270059
      6          1           0       -0.896009   -2.204170    3.307469
      7          1           0       -1.608229   -0.964811    2.218159
      8          1           0       -1.398559   -2.625081    1.624499
      9          7           0        0.356761   -1.487270    1.754369
     10          1           0        0.776141   -0.748790    2.323319
     11          1           0        1.007121   -2.275710    1.778809
     12          6           0        1.716821   -0.510059   -0.163131
     13          6           0        2.388220    0.472311    0.576639
     14          6           0        3.708040    0.807801    0.279459
     15          6           0        4.376660    0.171972   -0.765751
     16          6           0        3.718101   -0.806049   -1.509891
     17          6           0        2.401821   -1.147049   -1.205481
     18          1           0        1.874200    1.001221    1.382389
     19          1           0        4.214020    1.578042    0.865549
     20          1           0        5.409440    0.438802   -0.999911
     21          1           0        4.232261   -1.310218   -2.330981
     22          1           0        1.891131   -1.914569   -1.792661
     23          1           0        0.056731   -1.872090   -0.375561
     24         35           0       -0.729730    1.805470    0.318309
     25          8           0       -3.036850    0.265429   -0.795931
     26          6           0       -4.250769   -0.263412   -1.280971
     27          1           0       -4.942920    0.583098   -1.367631
     28          1           0       -4.118899   -0.736332   -2.266141
     29          1           0       -4.666809   -1.016192   -0.594051
 ---------------------------------------------------------------------
 Rotational constants (GHZ):           0.6940341           0.2982665           0.2658344
 Standard basis: def2SVP (5D, 7F)
 There are   315 symmetry adapted cartesian basis functions of A   symmetry.
 There are   298 symmetry adapted basis functions of A   symmetry.
   298 basis functions,   528 primitive gaussians,   315 cartesian basis functions
    69 alpha electrons       69 beta electrons
       nuclear repulsion energy      1372.0028512503 Hartrees.
 NAtoms=   29 NActive=   29 NUniq=   29 SFac= 1.00D+00 NAtFMM=   60 NAOKFM=F Big=F
 Integral buffers will be    131072 words long.
 Raffenetti 2 integral format.
 Two-electron integral symmetry is turned on.
 Nuclear repulsion after empirical dispersion term =     1371.9818521768 Hartrees.
 Force inversion solution in PCM.
 ------------------------------------------------------------------------------
 Polarizable Continuum Model (PCM)
 =================================
 Model                : PCM.
 Atomic radii         : UFF (Universal Force Field).
 Polarization charges : Total charges.
 Charge compensation  : None.
 Solution method      : Matrix inversion.
 Cavity type          : Scaled VdW (van der Waals Surface) (Alpha=1.100).
 Cavity algorithm     : GePol (No added spheres)
                        Default sphere list used, NSphG=   29.
                        Lebedev-Laikov grids with approx.  5.0 points / Ang**2.
                        Smoothing algorithm: York/Karplus (Gamma=1.0000).
                        Polarization charges: spherical gaussians, with
                                              point-specific exponents (IZeta= 3).
                        Self-potential: point-specific (ISelfS= 7).
                        Self-field    : sphere-specific E.n sum rule (ISelfD= 2).
 1st derivatives      : Analytical E(r).r(x)/FMM algorithm (CHGder, D1EAlg=3).
                        Cavity 1st derivative terms included.
 2nd derivatives      : Analytical E(r).r(xy)/FMM algorithm (CHGder, D2EAlg=3).
                        Cavity 2nd derivative terms included.
 Solvent              : Toluene, Eps=   2.374100 Eps(inf)=   2.238315
 ------------------------------------------------------------------------------
 One-electron integrals computed using PRISM.
   1 Symmetry operations used in ECPInt.
 ECPInt:  NShTT=    9591 NPrTT=   36310 LenC2=    8989 LenP2D=   24327.
 LDataN:  DoStor=T MaxTD1= 4 Len=   56
 NBasis=   298 RedAO= T EigKep=  2.85D-04  NBF=   298
 NBsUse=   298 1.00D-06 EigRej= -1.00D+00 NBFU=   298
 ExpMin= 1.22D-01 ExpMax= 1.13D+05 ExpMxC= 1.70D+04 IAcc=3 IRadAn=         5 AccDes= 0.00D+00
 Harris functional with IExCor= 4639 and IRadAn=       5 diagonalized for initial guess.
 HarFok:  IExCor= 4639 AccDes= 0.00D+00 IRadAn=         5 IDoV= 1 UseB2=F ITyADJ=14
 ICtDFT=  3500011 ScaDFX=  1.000000  1.000000  1.000000  1.000000
 FoFCou: FMM=F IPFlag=           0 FMFlag=      100000 FMFlg1=           0
         NFxFlg=           0 DoJE=T BraDBF=F KetDBF=T FulRan=T
         wScrn=  0.000000 ICntrl=       500 IOpCl=  0 I1Cent=   200000004 NGrid=           0
         NMat0=    1 NMatS0=      1 NMatT0=    0 NMatD0=    1 NMtDS0=    0 NMtDT0=    0
 Petite list used in FoFCou.
 Requested convergence on RMS density matrix=1.00D-08 within 128 cycles.
 Requested convergence on MAX density matrix=1.00D-06.
 Requested convergence on             energy=1.00D-06.
 No special actions if energy rises.
 Inv3:  Mode=1 IEnd=    15472323.
 Iteration    1 A*A^-1 deviation from unit magnitude is 3.00D-15 for   1816.
 Iteration    1 A*A^-1 deviation from orthogonality  is 2.22D-15 for   1838   1279.
 Iteration    1 A^-1*A deviation from unit magnitude is 2.78D-15 for   1816.
 Iteration    1 A^-1*A deviation from orthogonality  is 1.96D-15 for   1455   1401.
 Error on total polarization charges =  0.00636
 SCF Done:  E(RwB97XD) =  -3206.00254575     A.U. after   14 cycles
            NFock= 14  Conv=0.85D-08     -V/T= 2.0029
 DoSCS=F DFT=T ScalE2(SS,OS)=  1.000000  1.000000
 Range of M.O.s used for correlation:     1   298
 NBasis=   298 NAE=    69 NBE=    69 NFC=     0 NFV=     0
 NROrb=    298 NOA=    69 NOB=    69 NVA=   229 NVB=   229

 **** Warning!!: The largest alpha MO coefficient is  0.11344427D+02

   1 Symmetry operations used in ECPInt.
 ECPInt:  NShTT=    9591 NPrTT=   36310 LenC2=    8989 LenP2D=   24327.
 LDataN:  DoStor=T MaxTD1= 5 Len=  102
 Symmetrizing basis deriv contribution to polar:
 IMax=3 JMax=2 DiffMx= 0.00D+00
 G2DrvN: will do    30 centers at a time, making    1 passes.
 Calling FoFCou, ICntrl=  3107 FMM=F I1Cent=   0 AccDes= 0.00D+00.
 NEqPCM:  Using equilibrium solvation (IEInf=0, Eps=   2.3741, EpsInf=   2.2383)
 G2PCM: DoFxE=T DoFxN=T DoGrad=T DoDP/DQ/DG/TGxP=FFFF NFrqRd=   0 IEInf=0 SqF1=F DoCFld=F IF1Alg=4.
 End of G2Drv F.D. properties file   721 does not exist.
 End of G2Drv F.D. properties file   722 does not exist.
 End of G2Drv F.D. properties file   788 does not exist.
          IDoAtm=11111111111111111111111111111
 NEqPCM:  Using equilibrium solvation (IEInf=0, Eps=   2.3741, EpsInf=   2.2383)
          Differentiating once with respect to electric field.
                with respect to dipole field.
          Differentiating once with respect to nuclear coordinates.
 Keep R1 ints in memory in canonical form, NReq=2013993496.
          There are    90 degrees of freedom in the 1st order CPHF.  IDoFFX=6 NUNeed=     3.
     87 vectors produced by pass  0 Test12= 1.76D-14 1.11D-09 XBig12= 8.44D+01 3.60D+00.
 AX will form    87 AO Fock derivatives at one time.
     87 vectors produced by pass  1 Test12= 1.76D-14 1.11D-09 XBig12= 7.42D+00 3.95D-01.
     87 vectors produced by pass  2 Test12= 1.76D-14 1.11D-09 XBig12= 1.73D-01 8.85D-02.
     87 vectors produced by pass  3 Test12= 1.76D-14 1.11D-09 XBig12= 3.07D-03 7.40D-03.
     87 vectors produced by pass  4 Test12= 1.76D-14 1.11D-09 XBig12= 3.75D-05 5.89D-04.
     87 vectors produced by pass  5 Test12= 1.76D-14 1.11D-09 XBig12= 2.66D-07 4.92D-05.
     80 vectors produced by pass  6 Test12= 1.76D-14 1.11D-09 XBig12= 1.51D-09 3.23D-06.
     25 vectors produced by pass  7 Test12= 1.76D-14 1.11D-09 XBig12= 6.60D-12 1.85D-07.
      3 vectors produced by pass  8 Test12= 1.76D-14 1.11D-09 XBig12= 2.99D-14 1.59D-08.
 InvSVY:  IOpt=1 It=  1 EMax= 3.55D-15
 Solved reduced A of dimension   630 with    90 vectors.
 Isotropic polarizability for W=    0.000000      169.19 Bohr**3.
 End of Minotr F.D. properties file   721 does not exist.
 End of Minotr F.D. properties file   722 does not exist.
 End of Minotr F.D. properties file   788 does not exist.

 **********************************************************************

            Population analysis using the SCF Density.

 **********************************************************************

 Orbital symmetries:
       Occupied  (A) (A) (A) (A) (A) (A) (A) (A) (A) (A) (A) (A)
                 (A) (A) (A) (A) (A) (A) (A) (A) (A) (A) (A) (A)
                 (A) (A) (A) (A) (A) (A) (A) (A) (A) (A) (A) (A)
                 (A) (A) (A) (A) (A) (A) (A) (A) (A) (A) (A) (A)
                 (A) (A) (A) (A) (A) (A) (A) (A) (A) (A) (A) (A)
                 (A) (A) (A) (A) (A) (A) (A) (A) (A)
       Virtual   (A) (A) (A) (A) (A) (A) (A) (A) (A) (A) (A) (A)
                 (A) (A) (A) (A) (A) (A) (A) (A) (A) (A) (A) (A)
                 (A) (A) (A) (A) (A) (A) (A) (A) (A) (A) (A) (A)
                 (A) (A) (A) (A) (A) (A) (A) (A) (A) (A) (A) (A)
                 (A) (A) (A) (A) (A) (A) (A) (A) (A) (A) (A) (A)
                 (A) (A) (A) (A) (A) (A) (A) (A) (A) (A) (A) (A)
                 (A) (A) (A) (A) (A) (A) (A) (A) (A) (A) (A) (A)
                 (A) (A) (A) (A) (A) (A) (A) (A) (A) (A) (A) (A)
                 (A) (A) (A) (A) (A) (A) (A) (A) (A) (A) (A) (A)
                 (A) (A) (A) (A) (A) (A) (A) (A) (A) (A) (A) (A)
                 (A) (A) (A) (A) (A) (A) (A) (A) (A) (A) (A) (A)
                 (A) (A) (A) (A) (A) (A) (A) (A) (A) (A) (A) (A)
                 (A) (A) (A) (A) (A) (A) (A) (A) (A) (A) (A) (A)
                 (A) (A) (A) (A) (A) (A) (A) (A) (A) (A) (A) (A)
                 (A) (A) (A) (A) (A) (A) (A) (A) (A) (A) (A) (A)
                 (A) (A) (A) (A) (A) (A) (A) (A) (A) (A) (A) (A)
                 (A) (A) (A) (A) (A) (A) (A) (A) (A) (A) (A) (A)
                 (A) (A) (A) (A) (A) (A) (A) (A) (A) (A) (A) (A)
                 (A) (A) (A) (A) (A) (A) (A) (A) (A) (A) (A) (A)
                 (A)
 The electronic state is 1-A.
 Alpha  occ. eigenvalues -- -483.03226 -62.61394 -56.42156 -56.41819 -56.41811
 Alpha  occ. eigenvalues --  -19.26728 -19.19691 -14.53758 -10.38981 -10.35936
 Alpha  occ. eigenvalues --  -10.34949 -10.33169 -10.32108 -10.31226 -10.31098
 Alpha  occ. eigenvalues --  -10.31069 -10.30989 -10.30944 -10.29032  -8.78328
 Alpha  occ. eigenvalues --   -6.60824  -6.59595  -6.59562  -2.71204  -2.70852
 Alpha  occ. eigenvalues --   -2.70824  -2.69845  -2.69845  -1.16494  -1.06814
 Alpha  occ. eigenvalues --   -1.06058  -0.96419  -0.90738  -0.86423  -0.84665
 Alpha  occ. eigenvalues --   -0.81066  -0.80355  -0.79534  -0.71735  -0.70527
 Alpha  occ. eigenvalues --   -0.67446  -0.66206  -0.62601  -0.61201  -0.58625
 Alpha  occ. eigenvalues --   -0.57592  -0.56960  -0.54846  -0.54609  -0.53056
 Alpha  occ. eigenvalues --   -0.52927  -0.51351  -0.50553  -0.49369  -0.48474
 Alpha  occ. eigenvalues --   -0.48238  -0.45863  -0.45594  -0.44248  -0.43460
 Alpha  occ. eigenvalues --   -0.42702  -0.41098  -0.37330  -0.35795  -0.35682
 Alpha  occ. eigenvalues --   -0.34031  -0.33577  -0.32074  -0.24688
 Alpha virt. eigenvalues --    0.04134   0.05173   0.09776   0.11585   0.12445
 Alpha virt. eigenvalues --    0.14180   0.15559   0.16296   0.17950   0.18385
 Alpha virt. eigenvalues --    0.19305   0.19496   0.20774   0.21698   0.22494
 Alpha virt. eigenvalues --    0.22677   0.22908   0.23869   0.24029   0.24842
 Alpha virt. eigenvalues --    0.26134   0.26734   0.30372   0.34352   0.35986
 Alpha virt. eigenvalues --    0.36288   0.37626   0.37941   0.39455   0.40090
 Alpha virt. eigenvalues --    0.42321   0.43443   0.45541   0.47465   0.48124
 Alpha virt. eigenvalues --    0.49417   0.50455   0.51027   0.52342   0.53853
 Alpha virt. eigenvalues --    0.54702   0.55302   0.55583   0.56054   0.57030
 Alpha virt. eigenvalues --    0.57628   0.57878   0.59640   0.60520   0.61811
 Alpha virt. eigenvalues --    0.62671   0.63003   0.64119   0.65118   0.65744
 Alpha virt. eigenvalues --    0.66545   0.67469   0.69073   0.70275   0.70391
 Alpha virt. eigenvalues --    0.71167   0.72234   0.72848   0.73382   0.73838
 Alpha virt. eigenvalues --    0.74131   0.74338   0.75095   0.75549   0.76124
 Alpha virt. eigenvalues --    0.76273   0.77412   0.77947   0.78495   0.79471
 Alpha virt. eigenvalues --    0.79539   0.81017   0.82269   0.82716   0.83350
 Alpha virt. eigenvalues --    0.84088   0.84999   0.86298   0.87614   0.88151
 Alpha virt. eigenvalues --    0.90180   0.91632   0.93170   0.94980   0.97050
 Alpha virt. eigenvalues --    0.99471   1.01157   1.02927   1.05871   1.08504
 Alpha virt. eigenvalues --    1.09225   1.11006   1.14457   1.15605   1.16552
 Alpha virt. eigenvalues --    1.20021   1.23588   1.23864   1.26261   1.27670
 Alpha virt. eigenvalues --    1.28961   1.32313   1.33562   1.34615   1.36016
 Alpha virt. eigenvalues --    1.36922   1.37751   1.38155   1.39749   1.41505
 Alpha virt. eigenvalues --    1.43194   1.47324   1.50177   1.56519   1.57273
 Alpha virt. eigenvalues --    1.58022   1.61062   1.61890   1.62463   1.62896
 Alpha virt. eigenvalues --    1.66601   1.68459   1.71529   1.72508   1.75625
 Alpha virt. eigenvalues --    1.77320   1.78204   1.81290   1.82397   1.83072
 Alpha virt. eigenvalues --    1.83500   1.83589   1.84093   1.84968   1.85679
 Alpha virt. eigenvalues --    1.86452   1.87825   1.88217   1.88761   1.91109
 Alpha virt. eigenvalues --    1.92341   1.93753   1.95643   1.96524   1.97249
 Alpha virt. eigenvalues --    1.99805   2.01108   2.02097   2.03755   2.04602
 Alpha virt. eigenvalues --    2.05941   2.06272   2.06853   2.07520   2.08817
 Alpha virt. eigenvalues --    2.10214   2.13613   2.14600   2.15744   2.17794
 Alpha virt. eigenvalues --    2.20073   2.20318   2.22132   2.24454   2.26166
 Alpha virt. eigenvalues --    2.28343   2.28933   2.33490   2.36102   2.37157
 Alpha virt. eigenvalues --    2.38385   2.39392   2.41496   2.41881   2.42445
 Alpha virt. eigenvalues --    2.43517   2.46516   2.48751   2.51628   2.52447
 Alpha virt. eigenvalues --    2.56170   2.62361   2.64574   2.68648   2.69952
 Alpha virt. eigenvalues --    2.71473   2.74131   2.75638   2.76172   2.76618
 Alpha virt. eigenvalues --    2.77513   2.79175   2.80183   2.80994   2.81602
 Alpha virt. eigenvalues --    2.86267   2.90739   2.95433   2.95810   2.96706
 Alpha virt. eigenvalues --    2.99853   3.01567   3.03595   3.04621   3.05350
 Alpha virt. eigenvalues --    3.08119   3.10896   3.15917   3.17632   3.21018
 Alpha virt. eigenvalues --    3.24889   3.29329   3.31784   3.33477   3.46884
 Alpha virt. eigenvalues --    3.55290   3.57305   3.60971   3.65710   3.71221
 Alpha virt. eigenvalues --    3.73629   3.76175   3.80207   3.97137
          Condensed to atoms (all electrons):
               1          2          3          4          5          6
     1  C    5.855613   0.278790  -0.147911   0.475644  -0.000583  -0.000494
     2  C    0.278790   4.439096   0.689661  -0.042265   0.005309   0.000082
     3  O   -0.147911   0.689661   7.844265   0.002330  -0.002746   0.000188
     4  C    0.475644  -0.042265   0.002330   4.918321  -0.027180   0.004797
     5  C   -0.000583   0.005309  -0.002746  -0.027180   4.535121   0.399629
     6  H   -0.000494   0.000082   0.000188   0.004797   0.399629   0.589063
     7  H    0.016955   0.000315  -0.001726  -0.016840   0.400931  -0.020681
     8  H   -0.011657   0.003224   0.013154   0.000128   0.401355  -0.017130
     9  N   -0.100185  -0.002654   0.000318   0.114803   0.300050  -0.018054
    10  H   -0.000953  -0.000637  -0.000074  -0.001072  -0.018671  -0.005459
    11  H    0.007816  -0.000040  -0.000184  -0.013845  -0.017199  -0.005005
    12  C   -0.053260   0.010148   0.001711   0.291280   0.006629  -0.000412
    13  C   -0.013394  -0.000341  -0.000006  -0.074197  -0.000015  -0.000027
    14  C   -0.000009   0.000014   0.000000   0.008210   0.000010  -0.000000
    15  C    0.000080   0.000001   0.000000  -0.000203  -0.000000   0.000000
    16  C   -0.000510  -0.000040  -0.000002   0.013670   0.000006  -0.000000
    17  C    0.003899  -0.000285  -0.000143  -0.059258  -0.000076  -0.000001
    18  H   -0.001954   0.000095  -0.000000  -0.010716  -0.000226   0.000008
    19  H    0.000001  -0.000000  -0.000000  -0.000227  -0.000000   0.000000
    20  H    0.000000   0.000000   0.000000   0.000020   0.000000  -0.000000
    21  H   -0.000001   0.000000   0.000000  -0.000297  -0.000000   0.000000
    22  H    0.001214  -0.000011  -0.000117  -0.016091  -0.000019  -0.000000
    23  H   -0.033453  -0.006306   0.032850   0.367701  -0.002299  -0.000146
    24  Br   0.173696  -0.031570   0.001935  -0.066604  -0.001767  -0.000003
    25  O   -0.145758   0.418395  -0.085084   0.003027  -0.000386  -0.000002
    26  C    0.012179  -0.038203   0.002317  -0.000279  -0.000020  -0.000000
    27  H    0.000363   0.004794   0.000933   0.000011  -0.000000  -0.000000
    28  H    0.000283  -0.004479   0.007133  -0.000060  -0.000008  -0.000000
    29  H    0.000626  -0.004953   0.009692   0.000077   0.000050   0.000003
               7          8          9         10         11         12
     1  C    0.016955  -0.011657  -0.100185  -0.000953   0.007816  -0.053260
     2  C    0.000315   0.003224  -0.002654  -0.000637  -0.000040   0.010148
     3  O   -0.001726   0.013154   0.000318  -0.000074  -0.000184   0.001711
     4  C   -0.016840   0.000128   0.114803  -0.001072  -0.013845   0.291280
     5  C    0.400931   0.401355   0.300050  -0.018671  -0.017199   0.006629
     6  H   -0.020681  -0.017130  -0.018054  -0.005459  -0.005005  -0.000412
     7  H    0.550359  -0.014141  -0.014864  -0.004470   0.005748   0.000775
     8  H   -0.014141   0.548411  -0.016067   0.005195  -0.006321   0.000560
     9  N   -0.014864  -0.016067   6.331704   0.341807   0.340602  -0.058185
    10  H   -0.004470   0.005195   0.341807   0.511937  -0.013618  -0.009546
    11  H    0.005748  -0.006321   0.340602  -0.013618   0.513510   0.009351
    12  C    0.000775   0.000560  -0.058185  -0.009546   0.009351   5.324764
    13  C   -0.000078   0.000056  -0.009699   0.009602  -0.001000   0.287807
    14  C    0.000000  -0.000000   0.000088  -0.000365  -0.000248   0.062917
    15  C    0.000000  -0.000000   0.000016  -0.000001   0.000013  -0.134067
    16  C   -0.000000   0.000001  -0.000366   0.000069  -0.000106   0.060293
    17  C    0.000000  -0.000054   0.001426  -0.000085   0.001390   0.354951
    18  H    0.000057   0.000001   0.000467   0.003598  -0.000157  -0.075094
    19  H    0.000000   0.000000   0.000002   0.000013  -0.000000   0.014357
    20  H   -0.000000   0.000000   0.000000  -0.000001  -0.000000  -0.001441
    21  H   -0.000000   0.000000   0.000002   0.000000  -0.000001   0.014209
    22  H    0.000001  -0.000003   0.000323  -0.000021   0.000061  -0.064197
    23  H   -0.000187   0.004403  -0.028254   0.003676  -0.003184  -0.017389
    24  Br   0.003644   0.000139   0.003467   0.002174  -0.000196  -0.013375
    25  O    0.000620   0.000102   0.000035  -0.000001  -0.000001   0.000044
    26  C   -0.000000  -0.000044   0.000001  -0.000000  -0.000000  -0.000001
    27  H   -0.000000  -0.000000  -0.000000   0.000000   0.000000  -0.000000
    28  H    0.000014  -0.000020   0.000002   0.000000  -0.000000  -0.000002
    29  H   -0.000078   0.000116  -0.000009   0.000000   0.000000   0.000001
              13         14         15         16         17         18
     1  C   -0.013394  -0.000009   0.000080  -0.000510   0.003899  -0.001954
     2  C   -0.000341   0.000014   0.000001  -0.000040  -0.000285   0.000095
     3  O   -0.000006   0.000000   0.000000  -0.000002  -0.000143  -0.000000
     4  C   -0.074197   0.008210  -0.000203   0.013670  -0.059258  -0.010716
     5  C   -0.000015   0.000010  -0.000000   0.000006  -0.000076  -0.000226
     6  H   -0.000027  -0.000000   0.000000  -0.000000  -0.000001   0.000008
     7  H   -0.000078   0.000000   0.000000  -0.000000   0.000000   0.000057
     8  H    0.000056  -0.000000  -0.000000   0.000001  -0.000054   0.000001
     9  N   -0.009699   0.000088   0.000016  -0.000366   0.001426   0.000467
    10  H    0.009602  -0.000365  -0.000001   0.000069  -0.000085   0.003598
    11  H   -0.001000  -0.000248   0.000013  -0.000106   0.001390  -0.000157
    12  C    0.287807   0.062917  -0.134067   0.060293   0.354951  -0.075094
    13  C    5.106964   0.363450   0.055055  -0.116393   0.029483   0.436196
    14  C    0.363450   4.965468   0.327135   0.059751  -0.112018  -0.045640
    15  C    0.055055   0.327135   5.056087   0.316824   0.060840   0.012198
    16  C   -0.116393   0.059751   0.316824   5.021357   0.332141  -0.001542
    17  C    0.029483  -0.112018   0.060840   0.332141   5.026840   0.011107
    18  H    0.436196  -0.045640   0.012198  -0.001542   0.011107   0.646821
    19  H   -0.061141   0.447017  -0.066513   0.012368  -0.001668  -0.012018
    20  H    0.012597  -0.062826   0.447005  -0.063104   0.012293  -0.000201
    21  H   -0.001604   0.012204  -0.066292   0.447860  -0.062126   0.000022
    22  H    0.013020  -0.001669   0.012379  -0.057968   0.449053  -0.000160
    23  H    0.007941  -0.000209  -0.000024   0.000599  -0.011493  -0.000063
    24  Br   0.001023  -0.000388  -0.000035   0.000016   0.000132   0.016908
    25  O    0.000002  -0.000000   0.000000  -0.000000  -0.000004   0.000002
    26  C   -0.000000   0.000000  -0.000000   0.000000   0.000000  -0.000000
    27  H    0.000000  -0.000000  -0.000000   0.000000  -0.000000  -0.000000
    28  H   -0.000000   0.000000   0.000000  -0.000000   0.000000   0.000000
    29  H    0.000000  -0.000000  -0.000000   0.000000  -0.000000   0.000000
              19         20         21         22         23         24
     1  C    0.000001   0.000000  -0.000001   0.001214  -0.033453   0.173696
     2  C   -0.000000   0.000000   0.000000  -0.000011  -0.006306  -0.031570
     3  O   -0.000000   0.000000   0.000000  -0.000117   0.032850   0.001935
     4  C   -0.000227   0.000020  -0.000297  -0.016091   0.367701  -0.066604
     5  C   -0.000000   0.000000  -0.000000  -0.000019  -0.002299  -0.001767
     6  H    0.000000  -0.000000   0.000000  -0.000000  -0.000146  -0.000003
     7  H    0.000000  -0.000000  -0.000000   0.000001  -0.000187   0.003644
     8  H    0.000000   0.000000   0.000000  -0.000003   0.004403   0.000139
     9  N    0.000002   0.000000   0.000002   0.000323  -0.028254   0.003467
    10  H    0.000013  -0.000001   0.000000  -0.000021   0.003676   0.002174
    11  H   -0.000000  -0.000000  -0.000001   0.000061  -0.003184  -0.000196
    12  C    0.014357  -0.001441   0.014209  -0.064197  -0.017389  -0.013375
    13  C   -0.061141   0.012597  -0.001604   0.013020   0.007941   0.001023
    14  C    0.447017  -0.062826   0.012204  -0.001669  -0.000209  -0.000388
    15  C   -0.066513   0.447005  -0.066292   0.012379  -0.000024  -0.000035
    16  C    0.012368  -0.063104   0.447860  -0.057968   0.000599   0.000016
    17  C   -0.001668   0.012293  -0.062126   0.449053  -0.011493   0.000132
    18  H   -0.012018  -0.000201   0.000022  -0.000160  -0.000063   0.016908
    19  H    0.647867  -0.010699  -0.000205   0.000020   0.000005  -0.000024
    20  H   -0.010699   0.644081  -0.010679  -0.000198  -0.000001   0.000000
    21  H   -0.000205  -0.010679   0.645336  -0.011100   0.000009   0.000000
    22  H    0.000020  -0.000198  -0.011100   0.643471   0.004134   0.000005
    23  H    0.000005  -0.000001   0.000009   0.004134   0.627063   0.004603
    24  Br  -0.000024   0.000000   0.000000   0.000005   0.004603  35.018538
    25  O   -0.000000   0.000000   0.000000  -0.000001   0.001534   0.007670
    26  C   -0.000000   0.000000  -0.000000   0.000000  -0.000097  -0.000130
    27  H    0.000000  -0.000000   0.000000   0.000000  -0.000003  -0.000066
    28  H    0.000000   0.000000  -0.000000  -0.000000   0.000023  -0.000014
    29  H   -0.000000  -0.000000  -0.000000   0.000000  -0.000058  -0.000040
              25         26         27         28         29
     1  C   -0.145758   0.012179   0.000363   0.000283   0.000626
     2  C    0.418395  -0.038203   0.004794  -0.004479  -0.004953
     3  O   -0.085084   0.002317   0.000933   0.007133   0.009692
     4  C    0.003027  -0.000279   0.000011  -0.000060   0.000077
     5  C   -0.000386  -0.000020  -0.000000  -0.000008   0.000050
     6  H   -0.000002  -0.000000  -0.000000  -0.000000   0.000003
     7  H    0.000620  -0.000000  -0.000000   0.000014  -0.000078
     8  H    0.000102  -0.000044  -0.000000  -0.000020   0.000116
     9  N    0.000035   0.000001  -0.000000   0.000002  -0.000009
    10  H   -0.000001  -0.000000   0.000000   0.000000   0.000000
    11  H   -0.000001  -0.000000   0.000000  -0.000000   0.000000
    12  C    0.000044  -0.000001  -0.000000  -0.000002   0.000001
    13  C    0.000002  -0.000000   0.000000  -0.000000   0.000000
    14  C   -0.000000   0.000000  -0.000000   0.000000  -0.000000
    15  C    0.000000  -0.000000  -0.000000   0.000000  -0.000000
    16  C   -0.000000   0.000000   0.000000  -0.000000   0.000000
    17  C   -0.000004   0.000000  -0.000000   0.000000  -0.000000
    18  H    0.000002  -0.000000  -0.000000   0.000000   0.000000
    19  H   -0.000000  -0.000000   0.000000   0.000000  -0.000000
    20  H    0.000000   0.000000  -0.000000   0.000000  -0.000000
    21  H    0.000000  -0.000000   0.000000  -0.000000  -0.000000
    22  H   -0.000001   0.000000   0.000000  -0.000000   0.000000
    23  H    0.001534  -0.000097  -0.000003   0.000023  -0.000058
    24  Br   0.007670  -0.000130  -0.000066  -0.000014  -0.000040
    25  O    7.947401   0.281217  -0.024191  -0.028858  -0.029951
    26  C    0.281217   4.395393   0.397800   0.404838   0.400714
    27  H   -0.024191   0.397800   0.626695  -0.025444  -0.025513
    28  H   -0.028858   0.404838  -0.025444   0.643620  -0.034759
    29  H   -0.029951   0.400714  -0.025513  -0.034759   0.652025
 Mulliken charges:
               1
     1  C   -0.317038
     2  C    0.281860
     3  O   -0.368494
     4  C    0.129116
     5  C    0.022106
     6  H    0.073644
     7  H    0.093648
     8  H    0.088591
     9  N   -0.186777
    10  H    0.176902
    11  H    0.182616
    12  C   -0.012826
    13  C   -0.045304
    14  C   -0.022892
    15  C   -0.020498
    16  C   -0.024926
    17  C   -0.036344
    18  H    0.020290
    19  H    0.030846
    20  H    0.033154
    21  H    0.032662
    22  H    0.027874
    23  H    0.048623
    24  Br  -0.119738
    25  O   -0.345815
    26  C    0.144313
    27  H    0.044622
    28  H    0.037729
    29  H    0.032056
 Sum of Mulliken charges =  -0.00000
 Mulliken charges with hydrogens summed into heavy atoms:
               1
     1  C   -0.317038
     2  C    0.281860
     3  O   -0.368494
     4  C    0.177739
     5  C    0.277989
     9  N    0.172742
    12  C   -0.012826
    13  C   -0.025015
    14  C    0.007954
    15  C    0.012656
    16  C    0.007737
    17  C   -0.008470
    24  Br  -0.119738
    25  O   -0.345815
    26  C    0.258720
 APT charges:
               1
     1  C   -0.791191
     2  C    1.669634
     3  O   -1.024222
     4  C    1.032935
     5  C    0.146427
     6  H    0.012495
     7  H    0.068057
     8  H    0.068285
     9  N   -0.726890
    10  H    0.208490
    11  H    0.183606
    12  C    0.011047
    13  C   -0.089585
    14  C   -0.028379
    15  C   -0.053521
    16  C   -0.011324
    17  C   -0.081045
    18  H    0.057953
    19  H    0.034842
    20  H    0.038938
    21  H    0.036649
    22  H    0.049475
    23  H    0.015172
    24  Br  -0.235039
    25  O   -1.107706
    26  C    0.625962
    27  H   -0.020830
    28  H   -0.045180
    29  H   -0.045054
 Sum of APT charges =   0.00000
 APT charges with hydrogens summed into heavy atoms:
               1
     1  C   -0.791191
     2  C    1.669634
     3  O   -1.024222
     4  C    1.048107
     5  C    0.295263
     9  N   -0.334794
    12  C    0.011047
    13  C   -0.031633
    14  C    0.006463
    15  C   -0.014583
    16  C    0.025325
    17  C   -0.031570
    24  Br  -0.235039
    25  O   -1.107706
    26  C    0.514898
 Electronic spatial extent (au):  <R**2>=           4406.6917
 Charge=              0.0000 electrons
 Dipole moment (field-independent basis, Debye):
    X=              4.1768    Y=             -3.4158    Z=              5.3060  Tot=              7.5675
 Quadrupole moment (field-independent basis, Debye-Ang):
   XX=            -92.7979   YY=           -100.9223   ZZ=            -88.3325
   XY=             -3.0029   XZ=             -0.8808   YZ=             -6.9742
 Traceless Quadrupole moment (field-independent basis, Debye-Ang):
   XX=              1.2196   YY=             -6.9047   ZZ=              5.6851
   XY=             -3.0029   XZ=             -0.8808   YZ=             -6.9742
 Octapole moment (field-independent basis, Debye-Ang**2):
  XXX=            -42.7033  YYY=             39.6159  ZZZ=             38.1703  XYY=              6.2806
  XXY=             29.7383  XXZ=            -13.5637  XZZ=            -11.3929  YZZ=             -6.6728
  YYZ=             26.8040  XYZ=             14.6980
 Hexadecapole moment (field-independent basis, Debye-Ang**3):
 XXXX=          -3411.8597 YYYY=           -978.1679 ZZZZ=           -718.4301 XXXY=             17.1784
 XXXZ=             -4.5133 YYYX=            -68.8300 YYYZ=            -28.5635 ZZZX=             14.4747
 ZZZY=            -21.4619 XXYY=           -834.4712 XXZZ=           -714.9092 YYZZ=           -264.4293
 XXYZ=             17.7612 YYXZ=             -8.4203 ZZXY=            -25.5388
 N-N= 1.371981852177D+03 E-N=-1.036833344433D+04  KE= 3.196658013219D+03
  Exact polarizability:     217.069       9.692     151.802       0.057      15.623     138.690
 Approx polarizability:     183.985       9.742     166.103      -0.110      22.323     144.656
   1 Symmetry operations used in ECPInt.
 ECPInt:  NShTT=    9591 NPrTT=   36310 LenC2=    8989 LenP2D=   24327.
 LDataN:  DoStor=T MaxTD1= 6 Len=  172
 D2PCM: PCM CHGder 2nd derivatives, FixD1E=F FixD2E=F DoIter=F DoCFld=F I1PDM=0
 Calling FoFJK, ICntrl=    100127 FMM=F ISym2X=0 I1Cent= 0 IOpClX= 0 NMat=1 NMatS=1 NMatT=0.
 Full mass-weighted force constant matrix:
 Low frequencies --- -231.4659  -12.6544   -7.4937   -0.0099   -0.0091   -0.0086
 Low frequencies ---   15.1001   42.1346   49.3827
 ******    1 imaginary frequencies (negative Signs) ****** 
 Diagonal vibrational polarizability:
      185.3952628      83.6514841     164.8654332
 Harmonic frequencies (cm**-1), IR intensities (KM/Mole), Raman scattering
 activities (A**4/AMU), depolarization ratios for plane and unpolarized
 incident light, reduced masses (AMU), force constants (mDyne/A),
 and normal coordinates:
                      1                      2                      3
                      A                      A                      A
 Frequencies --   -231.4648                41.7291                49.2148
 Red. masses --      5.4110                 5.7178                 4.4477
 Frc consts  --      0.1708                 0.0059                 0.0063
 IR Inten    --    406.2080                 0.4672                 2.4399
  Atom  AN      X      Y      Z        X      Y      Z        X      Y      Z
     1   6     0.04   0.03  -0.07     0.01   0.05  -0.09     0.00   0.01  -0.07
     2   6    -0.05  -0.00  -0.02     0.02   0.02  -0.07    -0.02   0.01   0.01
     3   8    -0.02   0.02  -0.02     0.07   0.02  -0.15    -0.02   0.01   0.00
     4   6    -0.02   0.15  -0.36     0.02   0.06  -0.08     0.01   0.00  -0.06
     5   6    -0.01  -0.03   0.13     0.01   0.10  -0.06    -0.03  -0.07  -0.13
     6   1    -0.34   0.10   0.21     0.01   0.13  -0.06    -0.02  -0.11  -0.15
     7   1     0.06   0.02  -0.10     0.01   0.10  -0.08    -0.04  -0.07  -0.09
     8   1     0.01  -0.07   0.17     0.02   0.09  -0.05    -0.02  -0.04  -0.17
     9   7     0.07  -0.23   0.33     0.01   0.10  -0.07    -0.03  -0.03  -0.12
    10   1     0.17  -0.30   0.33     0.01   0.12  -0.09    -0.05  -0.04  -0.09
    11   1    -0.05  -0.32   0.21     0.02   0.10  -0.04    -0.02  -0.02  -0.12
    12   6    -0.00   0.05  -0.07     0.04   0.02  -0.07     0.01   0.01  -0.02
    13   6    -0.01   0.03  -0.03     0.02   0.11  -0.16    -0.01  -0.02   0.04
    14   6     0.01  -0.00   0.01     0.05   0.03  -0.12     0.01  -0.02   0.13
    15   6     0.03  -0.00   0.02     0.10  -0.14   0.02     0.06  -0.00   0.15
    16   6     0.05  -0.01   0.01     0.13  -0.23   0.12     0.08   0.03   0.08
    17   6     0.04   0.01  -0.02     0.09  -0.15   0.07     0.06   0.04  -0.00
    18   1    -0.03   0.00  -0.03    -0.02   0.22  -0.26    -0.05  -0.03   0.03
    19   1     0.01  -0.02   0.03     0.03   0.10  -0.19    -0.02  -0.05   0.18
    20   1     0.03  -0.00   0.05     0.13  -0.20   0.05     0.07  -0.01   0.21
    21   1     0.07  -0.01   0.03     0.17  -0.36   0.23     0.12   0.05   0.09
    22   1     0.04   0.02  -0.04     0.12  -0.22   0.15     0.08   0.06  -0.05
    23   1    -0.01   0.03  -0.10     0.02   0.06  -0.07     0.02   0.02  -0.10
    24  35    -0.01   0.01  -0.01    -0.09   0.01   0.09     0.02   0.02  -0.08
    25   8    -0.01  -0.00   0.02    -0.04  -0.02   0.04    -0.06  -0.01   0.13
    26   6    -0.03   0.02   0.01    -0.03  -0.05   0.07    -0.12  -0.03   0.31
    27   1    -0.01   0.03   0.01    -0.09  -0.08   0.18    -0.15  -0.05   0.42
    28   1    -0.02   0.02   0.01    -0.06   0.04   0.02    -0.26  -0.02   0.29
    29   1    -0.03   0.02   0.01     0.05  -0.13   0.03     0.00  -0.05   0.37
                      4                      5                      6
                      A                      A                      A
 Frequencies --     66.6928                84.6427                97.3999
 Red. masses --      3.6121                 4.5061                 2.9867
 Frc consts  --      0.0095                 0.0190                 0.0167
 IR Inten    --      3.8133                 0.8836                11.7598
  Atom  AN      X      Y      Z        X      Y      Z        X      Y      Z
     1   6     0.03  -0.02  -0.09     0.02  -0.06  -0.03    -0.02  -0.01  -0.00
     2   6     0.02  -0.02  -0.06    -0.00  -0.00  -0.02    -0.03  -0.00   0.05
     3   8     0.03  -0.02  -0.09    -0.07   0.01  -0.02    -0.09  -0.02   0.19
     4   6     0.01  -0.02  -0.03     0.00  -0.08   0.00     0.00  -0.02  -0.06
     5   6    -0.12   0.32   0.05    -0.09   0.05  -0.01     0.07   0.13   0.01
     6   1    -0.18   0.36   0.06    -0.11   0.02  -0.02     0.17   0.00  -0.04
     7   1     0.03   0.43   0.01    -0.00   0.11   0.01     0.24   0.26   0.20
     8   1    -0.26   0.36   0.09    -0.16   0.10  -0.02    -0.17   0.28  -0.01
     9   7    -0.06   0.06   0.01    -0.05  -0.07  -0.01     0.07  -0.08  -0.14
    10   1     0.07   0.01  -0.03     0.01  -0.10  -0.02     0.28  -0.19  -0.15
    11   1    -0.20  -0.05   0.05    -0.12  -0.12  -0.00    -0.06  -0.19  -0.26
    12   6     0.02  -0.02  -0.00     0.00  -0.06   0.03    -0.00   0.01  -0.07
    13   6     0.04  -0.08   0.06    -0.10   0.08  -0.06    -0.03   0.00  -0.03
    14   6     0.03  -0.06   0.05    -0.15   0.22  -0.11    -0.01  -0.01   0.05
    15   6     0.00   0.03  -0.02    -0.08   0.19  -0.05     0.04  -0.02   0.08
    16   6    -0.02   0.09  -0.08     0.05   0.00   0.08     0.07   0.00   0.03
    17   6    -0.01   0.07  -0.07     0.08  -0.11   0.12     0.04   0.02  -0.04
    18   1     0.06  -0.13   0.10    -0.15   0.10  -0.11    -0.06  -0.00  -0.05
    19   1     0.05  -0.10   0.10    -0.24   0.34  -0.20    -0.03  -0.02   0.08
    20   1    -0.00   0.05  -0.02    -0.12   0.29  -0.09     0.06  -0.04   0.15
    21   1    -0.04   0.16  -0.14     0.11  -0.03   0.14     0.11  -0.00   0.06
    22   1    -0.03   0.12  -0.12     0.17  -0.23   0.20     0.07   0.03  -0.08
    23   1     0.02  -0.03  -0.00     0.01  -0.08  -0.01     0.00   0.01  -0.11
    24  35     0.01  -0.05   0.03     0.06  -0.07   0.00    -0.03  -0.01   0.01
    25   8    -0.00  -0.04   0.01     0.04   0.06   0.01     0.02   0.03  -0.09
    26   6    -0.02  -0.05   0.07    -0.01   0.14   0.06    -0.00   0.03  -0.05
    27   1    -0.05  -0.06   0.14     0.05   0.19   0.07     0.09   0.08  -0.29
    28   1    -0.07  -0.02   0.05    -0.08   0.11   0.07     0.02  -0.21   0.07
    29   1     0.04  -0.08   0.07    -0.04   0.18   0.09    -0.12   0.23   0.10
                      7                      8                      9
                      A                      A                      A
 Frequencies --    116.6429               122.4231               144.0480
 Red. masses --      1.5960                 3.3739                 2.5704
 Frc consts  --      0.0128                 0.0298                 0.0314
 IR Inten    --      6.6003                 7.9039                12.4524
  Atom  AN      X      Y      Z        X      Y      Z        X      Y      Z
     1   6    -0.02  -0.01   0.05    -0.01  -0.06  -0.04     0.01   0.02  -0.10
     2   6    -0.01  -0.00   0.04    -0.04  -0.02  -0.03    -0.04  -0.01   0.03
     3   8     0.01   0.00  -0.03    -0.10  -0.00  -0.07    -0.07  -0.03   0.20
     4   6    -0.01  -0.02   0.01     0.01  -0.02  -0.00    -0.00   0.03  -0.07
     5   6     0.04   0.05   0.04     0.15  -0.00   0.09    -0.07  -0.02  -0.09
     6   1     0.09  -0.03   0.01     0.20   0.18   0.14    -0.15   0.10  -0.04
     7   1     0.12   0.12   0.14    -0.01  -0.13  -0.07    -0.17  -0.10  -0.25
     8   1    -0.09   0.14   0.02     0.31  -0.19   0.21     0.08  -0.14  -0.05
     9   7     0.03  -0.06  -0.05     0.09   0.16   0.05    -0.06   0.08   0.01
    10   1     0.15  -0.12  -0.04    -0.06   0.32  -0.05    -0.20   0.17   0.00
    11   1    -0.04  -0.12  -0.12     0.23   0.29   0.16     0.02   0.15   0.12
    12   6    -0.01  -0.00  -0.01     0.00   0.01  -0.03     0.01   0.02  -0.03
    13   6    -0.02  -0.00  -0.00    -0.01  -0.01   0.00     0.00   0.02  -0.03
    14   6    -0.02   0.00   0.01     0.01  -0.02   0.06     0.01   0.01  -0.01
    15   6    -0.01  -0.00   0.02     0.03  -0.01   0.06     0.03   0.01   0.00
    16   6     0.00  -0.00   0.02     0.03   0.03   0.01     0.03   0.01  -0.00
    17   6    -0.00  -0.01   0.00     0.02   0.04  -0.04     0.02   0.02  -0.02
    18   1    -0.03  -0.00  -0.01    -0.02  -0.01  -0.00     0.00   0.02  -0.03
    19   1    -0.03   0.01   0.02     0.00  -0.05   0.09     0.01   0.01  -0.00
    20   1    -0.01  -0.00   0.04     0.05  -0.03   0.11     0.03   0.00   0.02
    21   1     0.01  -0.01   0.03     0.05   0.05   0.01     0.04   0.00   0.01
    22   1     0.01  -0.01  -0.00     0.03   0.06  -0.07     0.03   0.02  -0.03
    23   1    -0.02   0.00  -0.02     0.03  -0.07   0.07     0.02  -0.00  -0.02
    24  35     0.00   0.01  -0.02    -0.03  -0.08  -0.02     0.04  -0.02   0.03
    25   8    -0.04  -0.02   0.12     0.01   0.06   0.02    -0.02  -0.01  -0.06
    26   6     0.03   0.01  -0.08    -0.04   0.20   0.00    -0.01  -0.04  -0.06
    27   1    -0.11  -0.05   0.32     0.02   0.26   0.13    -0.16  -0.13   0.34
    28   1     0.07   0.49  -0.30    -0.11   0.31  -0.06    -0.08   0.35  -0.26
    29   1     0.17  -0.37  -0.42    -0.07   0.15  -0.07     0.23  -0.37  -0.28
                     10                     11                     12
                      A                      A                      A
 Frequencies --    153.4028               164.5335               206.6024
 Red. masses --      4.0006                 2.9282                 1.8224
 Frc consts  --      0.0555                 0.0467                 0.0458
 IR Inten    --      0.4825                 5.1259                 1.6505
  Atom  AN      X      Y      Z        X      Y      Z        X      Y      Z
     1   6    -0.07   0.02  -0.01     0.03  -0.01  -0.03     0.04   0.02  -0.01
     2   6    -0.07   0.01  -0.01    -0.01  -0.03   0.09     0.03   0.02   0.01
     3   8    -0.00   0.01  -0.09    -0.02  -0.02   0.05     0.04   0.02   0.03
     4   6    -0.07   0.01  -0.06     0.03   0.01  -0.02     0.00  -0.05  -0.02
     5   6     0.08   0.02   0.05    -0.10   0.01  -0.10     0.01   0.01   0.03
     6   1     0.14   0.20   0.11    -0.18  -0.00  -0.10     0.00   0.53   0.20
     7   1    -0.02  -0.06  -0.08    -0.10   0.01  -0.13    -0.10  -0.10  -0.44
     8   1     0.15  -0.14   0.20    -0.04   0.02  -0.15     0.17  -0.36   0.38
     9   7     0.02   0.08  -0.04    -0.05   0.03   0.01    -0.01  -0.03  -0.06
    10   1    -0.01   0.14  -0.11    -0.12   0.05   0.04     0.00   0.00  -0.11
    11   1     0.08   0.13  -0.02    -0.04   0.04   0.08    -0.01  -0.02  -0.03
    12   6    -0.08   0.03  -0.07     0.04   0.01  -0.00     0.01  -0.10  -0.02
    13   6    -0.11   0.03  -0.05     0.05   0.00  -0.00    -0.03  -0.10   0.01
    14   6    -0.09   0.02   0.03     0.06   0.00  -0.02    -0.05  -0.02   0.02
    15   6    -0.04  -0.02   0.08     0.05   0.01  -0.02    -0.03   0.05  -0.01
    16   6    -0.01  -0.01   0.05     0.04   0.01  -0.02     0.03   0.01  -0.01
    17   6    -0.04   0.02  -0.03     0.04   0.01  -0.01     0.05  -0.07  -0.02
    18   1    -0.14   0.04  -0.07     0.06   0.00  -0.00    -0.07  -0.13   0.01
    19   1    -0.12   0.01   0.05     0.06   0.00  -0.02    -0.10  -0.00   0.04
    20   1    -0.02  -0.04   0.15     0.04   0.01  -0.03    -0.05   0.13  -0.02
    21   1     0.03  -0.03   0.09     0.03   0.02  -0.03     0.06   0.06  -0.02
    22   1    -0.02   0.02  -0.05     0.04   0.01  -0.01     0.09  -0.09  -0.03
    23   1    -0.07   0.00  -0.04     0.05  -0.00  -0.00    -0.06  -0.02  -0.05
    24  35     0.11   0.00   0.03    -0.02  -0.02  -0.01    -0.03   0.04   0.00
    25   8    -0.15  -0.06   0.07    -0.05  -0.03   0.25     0.03   0.01   0.02
    26   6    -0.05  -0.15  -0.09     0.06   0.07  -0.11     0.04  -0.00   0.01
    27   1    -0.01  -0.15  -0.48     0.22   0.16  -0.53     0.03  -0.01  -0.01
    28   1     0.18  -0.41   0.07     0.37  -0.14   0.03     0.07  -0.01   0.01
    29   1    -0.24   0.04   0.00    -0.33   0.27  -0.13     0.04  -0.01   0.00
                     13                     14                     15
                      A                      A                      A
 Frequencies --    244.1459               265.0461               319.6960
 Red. masses --      2.0708                 4.6905                 4.6096
 Frc consts  --      0.0727                 0.1941                 0.2776
 IR Inten    --      5.6738                14.5078                20.0089
  Atom  AN      X      Y      Z        X      Y      Z        X      Y      Z
     1   6     0.03   0.03  -0.09    -0.07   0.00  -0.05    -0.03  -0.04   0.22
     2   6    -0.01   0.03  -0.01    -0.12   0.04  -0.04    -0.03   0.15   0.06
     3   8    -0.02   0.03   0.01    -0.15   0.04  -0.04    -0.14   0.19  -0.06
     4   6    -0.01  -0.01  -0.05    -0.01   0.03   0.01     0.01  -0.05   0.09
     5   6     0.04  -0.03   0.04     0.05  -0.02   0.08    -0.04   0.03  -0.06
     6   1     0.12  -0.50  -0.12     0.16   0.16   0.14    -0.19   0.07  -0.04
     7   1     0.08   0.03   0.50     0.01  -0.05  -0.01    -0.01   0.04  -0.19
     8   1    -0.09   0.28  -0.26     0.02  -0.15   0.26     0.03   0.02  -0.10
     9   7     0.01   0.09   0.06    -0.01  -0.05  -0.08     0.04  -0.01   0.09
    10   1    -0.08   0.16   0.03     0.09  -0.11  -0.08    -0.02   0.02   0.10
    11   1     0.09   0.16   0.10    -0.04  -0.08  -0.19     0.03  -0.01   0.18
    12   6     0.02  -0.11  -0.03     0.09   0.01   0.13     0.02  -0.04  -0.05
    13   6    -0.02  -0.13   0.02     0.20  -0.04   0.13     0.00  -0.01  -0.07
    14   6    -0.05  -0.03   0.03     0.17   0.00  -0.02     0.01   0.01  -0.02
    15   6    -0.03   0.07  -0.02     0.07   0.10  -0.14     0.07   0.00   0.03
    16   6     0.05   0.02  -0.01     0.05   0.01   0.01     0.08   0.03  -0.02
    17   6     0.07  -0.09  -0.01     0.09  -0.04   0.16     0.06   0.02  -0.07
    18   1    -0.06  -0.17   0.02     0.28  -0.03   0.18    -0.02  -0.01  -0.09
    19   1    -0.10  -0.01   0.05     0.20   0.01  -0.05    -0.03   0.02   0.00
    20   1    -0.06   0.17  -0.04     0.01   0.20  -0.30     0.09  -0.02   0.09
    21   1     0.08   0.07  -0.02    -0.03  -0.00  -0.03     0.10   0.05  -0.01
    22   1     0.12  -0.12  -0.03     0.09  -0.08   0.22     0.10   0.02  -0.12
    23   1    -0.07  -0.04   0.03     0.06   0.05  -0.07    -0.04  -0.05   0.10
    24  35    -0.01   0.03   0.01     0.01  -0.00  -0.00    -0.02  -0.05  -0.02
    25   8    -0.02   0.01   0.01    -0.17   0.01  -0.04    -0.02   0.17  -0.01
    26   6     0.00  -0.04  -0.02    -0.14  -0.06  -0.06     0.11  -0.19   0.02
    27   1    -0.02  -0.06  -0.04    -0.19  -0.10  -0.09    -0.14  -0.40  -0.04
    28   1     0.05  -0.04  -0.01    -0.10  -0.07  -0.05     0.25  -0.25   0.07
    29   1     0.01  -0.05  -0.02    -0.12  -0.08  -0.06     0.35  -0.27   0.08
                     16                     17                     18
                      A                      A                      A
 Frequencies --    323.9662               327.3499               415.6208
 Red. masses --      4.0567                 4.2243                 8.5402
 Frc consts  --      0.2509                 0.2667                 0.8692
 IR Inten    --     11.7640                19.2965                20.1474
  Atom  AN      X      Y      Z        X      Y      Z        X      Y      Z
     1   6    -0.10  -0.07   0.21    -0.06  -0.04   0.11    -0.10   0.14   0.25
     2   6    -0.06  -0.11   0.02    -0.02  -0.06   0.01     0.01   0.17   0.10
     3   8    -0.02  -0.10  -0.05     0.01  -0.06  -0.04     0.43   0.12   0.12
     4   6     0.01  -0.00   0.05    -0.02  -0.07   0.08    -0.07   0.13  -0.08
     5   6     0.02   0.09  -0.21    -0.13  -0.08   0.21    -0.02   0.00   0.01
     6   1    -0.30   0.11  -0.18     0.13  -0.11   0.18     0.04  -0.04  -0.01
     7   1     0.08   0.13  -0.41    -0.17  -0.11   0.37    -0.05  -0.01   0.09
     8   1     0.14   0.11  -0.31    -0.21  -0.10   0.28    -0.04   0.02  -0.00
     9   7     0.14   0.02   0.10    -0.18  -0.02  -0.00    -0.05   0.05  -0.03
    10   1     0.08   0.01   0.15    -0.21   0.03  -0.06    -0.08   0.08  -0.05
    11   1     0.10  -0.01   0.14    -0.14   0.01   0.09    -0.02   0.08  -0.03
    12   6     0.01  -0.05  -0.04     0.02  -0.05  -0.07    -0.04   0.04  -0.09
    13   6     0.01  -0.08  -0.00     0.02   0.01  -0.14    -0.01  -0.02  -0.04
    14   6    -0.01  -0.02   0.02     0.05   0.03  -0.06     0.04  -0.10   0.08
    15   6     0.01   0.05  -0.02     0.16  -0.01   0.04    -0.01   0.08  -0.06
    16   6     0.05   0.00  -0.00     0.14   0.06  -0.04     0.03   0.03  -0.02
    17   6     0.06  -0.06  -0.01     0.10   0.06  -0.13     0.07  -0.10   0.06
    18   1    -0.01  -0.12   0.01    -0.00   0.05  -0.18    -0.01  -0.02  -0.05
    19   1    -0.04  -0.02   0.05    -0.03   0.05  -0.03     0.07  -0.21   0.20
    20   1    -0.02   0.12  -0.04     0.20  -0.07   0.16    -0.04   0.18  -0.12
    21   1     0.08   0.02   0.01     0.16   0.08  -0.04     0.04   0.05  -0.03
    22   1     0.11  -0.09  -0.01     0.16   0.09  -0.21     0.16  -0.23   0.15
    23   1    -0.03  -0.03   0.11    -0.05  -0.04   0.02    -0.15   0.17  -0.11
    24  35     0.02   0.06   0.01     0.01   0.04   0.01    -0.01  -0.12  -0.03
    25   8    -0.04  -0.10  -0.07    -0.01  -0.05  -0.04    -0.11   0.04  -0.06
    26   6    -0.14   0.07  -0.02    -0.06   0.05  -0.01    -0.16   0.09  -0.04
    27   1    -0.02   0.17   0.05     0.00   0.11   0.03    -0.12   0.13  -0.02
    28   1    -0.27   0.10  -0.05    -0.15   0.06  -0.03    -0.23   0.09  -0.05
    29   1    -0.21   0.11  -0.02    -0.11   0.07  -0.01    -0.19   0.12  -0.01
                     19                     20                     21
                      A                      A                      A
 Frequencies --    425.3239               457.9242               570.7590
 Red. masses --      3.0252                 4.5940                 2.7427
 Frc consts  --      0.3224                 0.5676                 0.5264
 IR Inten    --      2.1198                26.9845               126.2963
  Atom  AN      X      Y      Z        X      Y      Z        X      Y      Z
     1   6    -0.01  -0.03   0.00     0.13   0.02  -0.18     0.02   0.03  -0.12
     2   6    -0.00  -0.04  -0.00     0.01   0.10  -0.06     0.02   0.00  -0.05
     3   8    -0.07  -0.03  -0.03     0.09   0.08   0.06    -0.02  -0.01   0.01
     4   6     0.01  -0.01  -0.01     0.06  -0.10   0.19    -0.02   0.04   0.22
     5   6    -0.01  -0.00   0.00     0.03  -0.00  -0.03    -0.02  -0.03   0.01
     6   1     0.01  -0.00   0.00    -0.11   0.03  -0.02    -0.03   0.01   0.02
     7   1    -0.01  -0.00   0.01     0.08   0.03  -0.16    -0.06  -0.05  -0.06
     8   1    -0.01  -0.00   0.01     0.08   0.00  -0.07     0.06  -0.07   0.01
     9   7    -0.01  -0.00  -0.01     0.09  -0.06   0.09     0.01   0.01   0.05
    10   1    -0.02   0.02  -0.04     0.17  -0.18   0.19     0.23  -0.31   0.31
    11   1     0.00   0.01   0.02     0.00  -0.14  -0.04    -0.16  -0.15  -0.32
    12   6    -0.01   0.02  -0.01     0.07  -0.14   0.11    -0.08   0.10  -0.14
    13   6    -0.07   0.16  -0.13    -0.04   0.06  -0.08    -0.01  -0.02  -0.09
    14   6     0.06  -0.14   0.13    -0.03   0.04  -0.03     0.03  -0.07   0.05
    15   6    -0.01  -0.00  -0.00     0.05  -0.10   0.10    -0.01   0.11  -0.07
    16   6    -0.07   0.13  -0.12    -0.04   0.09  -0.08     0.04  -0.04   0.07
    17   6     0.06  -0.14   0.14     0.00  -0.01  -0.02    -0.01   0.00  -0.05
    18   1    -0.14   0.31  -0.28    -0.12   0.18  -0.21     0.04  -0.17   0.05
    19   1     0.15  -0.32   0.29    -0.07   0.11  -0.09     0.06  -0.25   0.27
    20   1    -0.01  -0.01  -0.00     0.10  -0.21   0.21    -0.01   0.13  -0.08
    21   1    -0.15   0.29  -0.27    -0.09   0.24  -0.21     0.15  -0.21   0.24
    22   1     0.15  -0.33   0.31    -0.03   0.06  -0.08     0.10  -0.15   0.04
    23   1     0.03  -0.01  -0.02     0.02  -0.11   0.22    -0.03   0.02   0.27
    24  35     0.00   0.02   0.00    -0.01  -0.00   0.00     0.00  -0.00   0.00
    25   8     0.04  -0.00   0.01    -0.15   0.00  -0.01    -0.00  -0.00   0.02
    26   6     0.05  -0.01   0.01    -0.18   0.01  -0.06     0.01   0.00   0.00
    27   1     0.03  -0.02   0.01    -0.14   0.04  -0.07     0.01  -0.00  -0.00
    28   1     0.05  -0.02   0.02    -0.18   0.03  -0.07     0.02   0.00   0.00
    29   1     0.06  -0.02   0.01    -0.24   0.03  -0.08    -0.00  -0.00  -0.01
                     22                     23                     24
                      A                      A                      A
 Frequencies --    605.0900               628.3238               638.6117
 Red. masses --      2.8779                 5.7978                 5.2352
 Frc consts  --      0.6208                 1.3486                 1.2579
 IR Inten    --     22.9246                28.7561                 1.2096
  Atom  AN      X      Y      Z        X      Y      Z        X      Y      Z
     1   6    -0.10   0.12   0.00    -0.07  -0.01  -0.09     0.03  -0.05  -0.00
     2   6    -0.02  -0.04  -0.00    -0.03   0.01  -0.04     0.00   0.01   0.00
     3   8    -0.03  -0.04  -0.02     0.09  -0.02   0.03     0.02   0.01   0.01
     4   6    -0.10   0.21   0.02    -0.24  -0.18  -0.04     0.00  -0.10  -0.06
     5   6     0.02  -0.00  -0.01     0.05   0.02  -0.05    -0.00   0.01  -0.00
     6   1     0.01  -0.01  -0.01    -0.11  -0.01  -0.05    -0.02   0.01  -0.00
     7   1    -0.06  -0.06  -0.04     0.13   0.08  -0.10     0.07   0.05   0.01
     8   1     0.11  -0.04  -0.03     0.04   0.09  -0.12    -0.07   0.04   0.00
     9   7    -0.02   0.07   0.00     0.05  -0.03   0.03     0.01  -0.05  -0.01
    10   1     0.24  -0.26   0.23    -0.02   0.14  -0.15    -0.16   0.19  -0.20
    11   1    -0.17  -0.07  -0.47     0.15   0.05   0.12     0.13   0.06   0.29
    12   6     0.01  -0.12   0.05    -0.26  -0.05   0.09    -0.02  -0.06  -0.09
    13   6     0.05  -0.08  -0.05    -0.03  -0.08  -0.08     0.19  -0.05  -0.18
    14   6     0.01   0.07  -0.03     0.01  -0.12  -0.15     0.22   0.18   0.11
    15   6     0.07  -0.04   0.08     0.27   0.05  -0.08    -0.00   0.09   0.07
    16   6    -0.04   0.09   0.00     0.01   0.12   0.11    -0.22   0.08   0.22
    17   6    -0.01  -0.08   0.01    -0.01   0.16   0.19    -0.21  -0.14  -0.08
    18   1    -0.04   0.01  -0.16     0.21   0.07  -0.01     0.10  -0.13  -0.19
    19   1    -0.13   0.24  -0.14    -0.16  -0.10  -0.03     0.13   0.16   0.22
    20   1     0.06  -0.06   0.03     0.27   0.05  -0.06     0.00  -0.17  -0.21
    21   1    -0.10   0.28  -0.15    -0.24  -0.05   0.05    -0.10   0.10   0.28
    22   1    -0.01   0.03  -0.14     0.14   0.13   0.09    -0.08  -0.18  -0.13
    23   1    -0.21   0.21   0.08    -0.27  -0.19   0.00     0.01  -0.09  -0.07
    24  35     0.01  -0.02  -0.00    -0.00   0.01   0.00    -0.00   0.01   0.00
    25   8     0.05  -0.02   0.01     0.03   0.04   0.02    -0.01   0.01  -0.00
    26   6     0.07   0.01   0.02     0.07   0.01   0.03    -0.01  -0.00  -0.00
    27   1     0.07   0.01   0.03     0.02  -0.03  -0.00    -0.02  -0.00  -0.01
    28   1     0.07   0.01   0.02     0.12  -0.00   0.04    -0.01  -0.00  -0.00
    29   1     0.07   0.00   0.02     0.11  -0.00   0.03    -0.01  -0.00  -0.00
                     25                     26                     27
                      A                      A                      A
 Frequencies --    729.9157               756.8363               777.7556
 Red. masses --      1.5669                 5.0430                 6.9073
 Frc consts  --      0.4919                 1.7019                 2.4618
 IR Inten    --     55.9380                12.9686                31.7929
  Atom  AN      X      Y      Z        X      Y      Z        X      Y      Z
     1   6     0.00   0.01   0.00    -0.17  -0.18  -0.10     0.12  -0.02  -0.14
     2   6     0.00  -0.00   0.00    -0.18  -0.07  -0.02    -0.16  -0.06   0.61
     3   8    -0.00   0.00  -0.00     0.18  -0.17   0.02     0.04   0.06  -0.17
     4   6    -0.01   0.01   0.00    -0.03  -0.08  -0.01     0.04  -0.07  -0.05
     5   6     0.00   0.00  -0.00    -0.00  -0.00   0.00     0.00   0.01  -0.01
     6   1    -0.01  -0.00  -0.00    -0.03  -0.04  -0.01     0.05  -0.03  -0.03
     7   1     0.01   0.00  -0.01    -0.06  -0.05  -0.02    -0.16  -0.11   0.03
     8   1     0.00   0.00  -0.01     0.09  -0.02  -0.04     0.15  -0.07  -0.02
     9   7     0.00  -0.00   0.00     0.00   0.04   0.03    -0.03   0.08   0.00
    10   1     0.01   0.01  -0.02     0.18  -0.15   0.14     0.25  -0.20   0.16
    11   1     0.01   0.00   0.00    -0.13  -0.07  -0.19    -0.24  -0.11  -0.31
    12   6     0.03  -0.06   0.06     0.04   0.03  -0.03     0.00  -0.03   0.03
    13   6    -0.02   0.05  -0.04     0.04   0.04   0.06    -0.02   0.01  -0.03
    14   6     0.04  -0.09   0.08     0.04   0.06   0.05    -0.00  -0.02  -0.02
    15   6    -0.01   0.04  -0.03    -0.06  -0.04   0.03     0.02   0.03  -0.03
    16   6     0.04  -0.09   0.08     0.03  -0.04  -0.06    -0.03   0.01   0.04
    17   6    -0.02   0.04  -0.03     0.03  -0.05  -0.04    -0.02   0.04   0.02
    18   1    -0.17   0.34  -0.32    -0.04   0.06  -0.00     0.02  -0.02   0.01
    19   1    -0.06   0.13  -0.13     0.09   0.15  -0.10     0.02  -0.11   0.09
    20   1    -0.19   0.42  -0.38    -0.11   0.05  -0.06     0.06  -0.08   0.04
    21   1    -0.07   0.15  -0.14     0.08   0.10  -0.12    -0.03  -0.10   0.11
    22   1    -0.17   0.36  -0.32    -0.03  -0.01  -0.05    -0.01   0.02   0.03
    23   1    -0.02   0.01   0.00     0.12  -0.17   0.09     0.03  -0.13   0.06
    24  35     0.00  -0.00   0.00     0.00   0.02   0.01    -0.00   0.00  -0.00
    25   8     0.00  -0.01  -0.00    -0.06   0.28   0.01     0.05  -0.01  -0.13
    26   6     0.00  -0.00  -0.00     0.06   0.04   0.02    -0.02  -0.01  -0.02
    27   1     0.01   0.00   0.00    -0.28  -0.26  -0.13     0.01   0.03   0.07
    28   1    -0.00   0.00  -0.00     0.29  -0.08   0.11    -0.17  -0.03  -0.03
    29   1    -0.00   0.00  -0.00     0.34  -0.06   0.09     0.02   0.03   0.05
                     28                     29                     30
                      A                      A                      A
 Frequencies --    800.2353               819.9919               864.2072
 Red. masses --      2.1578                 2.0841                 4.1253
 Frc consts  --      0.8141                 0.8256                 1.8153
 IR Inten    --      4.1659                27.0936                15.5950
  Atom  AN      X      Y      Z        X      Y      Z        X      Y      Z
     1   6     0.04  -0.02  -0.03     0.04  -0.11   0.10     0.06  -0.06   0.04
     2   6     0.01   0.00   0.05     0.07   0.04  -0.08     0.00  -0.07  -0.01
     3   8    -0.00   0.02  -0.01    -0.01   0.04   0.03     0.01  -0.10  -0.01
     4   6     0.03  -0.00   0.05     0.05  -0.10  -0.12     0.25   0.19   0.01
     5   6    -0.02  -0.01   0.01    -0.01   0.01   0.01    -0.03  -0.01   0.00
     6   1     0.01   0.02   0.02     0.08  -0.12  -0.04     0.13   0.05   0.01
     7   1     0.02   0.02   0.01    -0.29  -0.19   0.06    -0.00   0.01   0.09
     8   1    -0.06  -0.01   0.04     0.26  -0.08  -0.06    -0.12  -0.04   0.11
     9   7     0.01  -0.02  -0.00    -0.03   0.13   0.02     0.00  -0.01  -0.04
    10   1    -0.07   0.03  -0.01     0.40  -0.28   0.22    -0.15   0.00   0.06
    11   1     0.05   0.01   0.10    -0.38  -0.17  -0.39     0.04   0.02   0.16
    12   6    -0.08   0.16  -0.15    -0.01   0.01  -0.02     0.06  -0.02   0.03
    13   6     0.02  -0.09   0.05    -0.00  -0.01  -0.00    -0.05  -0.10  -0.10
    14   6    -0.01  -0.01  -0.02     0.00  -0.02  -0.01    -0.11  -0.14  -0.10
    15   6     0.06  -0.09   0.08     0.03  -0.01  -0.00     0.08   0.05  -0.03
    16   6    -0.01   0.02   0.01    -0.03   0.02   0.04    -0.09   0.07   0.13
    17   6     0.02  -0.06   0.06    -0.02   0.01   0.04    -0.05   0.03   0.06
    18   1    -0.01  -0.01  -0.02     0.01  -0.02   0.01    -0.07  -0.09  -0.13
    19   1    -0.23   0.39  -0.36    -0.04   0.03  -0.04    -0.29  -0.18   0.09
    20   1    -0.14   0.34  -0.30    -0.00   0.03  -0.09     0.12  -0.02   0.08
    21   1    -0.20   0.38  -0.33    -0.11   0.04  -0.02    -0.21  -0.06   0.14
    22   1     0.02  -0.03   0.02    -0.01   0.03   0.01    -0.04   0.09  -0.02
    23   1     0.10  -0.01   0.04     0.10  -0.16  -0.03     0.44   0.21  -0.10
    24  35    -0.00   0.00   0.00    -0.00   0.01   0.00     0.00   0.00   0.00
    25   8     0.00  -0.01  -0.01    -0.01  -0.02   0.02    -0.05   0.15   0.01
    26   6    -0.01  -0.00  -0.01    -0.03  -0.01  -0.01    -0.06   0.00  -0.02
    27   1     0.01   0.01   0.01     0.02   0.03  -0.00    -0.25  -0.15  -0.10
    28   1    -0.04   0.00  -0.01    -0.04   0.01  -0.02     0.06  -0.06   0.03
    29   1    -0.02   0.00  -0.00    -0.08  -0.00  -0.03     0.08  -0.05   0.01
                     31                     32                     33
                      A                      A                      A
 Frequencies --    877.3604               958.9581              1006.6775
 Red. masses --      1.2437                 1.4452                 3.4239
 Frc consts  --      0.5641                 0.7830                 2.0444
 IR Inten    --      0.6738                 1.4328                 3.5381
  Atom  AN      X      Y      Z        X      Y      Z        X      Y      Z
     1   6    -0.00   0.00  -0.00     0.01   0.03   0.01     0.16   0.20   0.06
     2   6    -0.00   0.00   0.00     0.01  -0.01   0.00     0.16  -0.10   0.04
     3   8     0.00   0.00  -0.00    -0.00  -0.02  -0.00    -0.05  -0.14  -0.03
     4   6    -0.00  -0.00   0.00     0.00   0.01  -0.02    -0.05  -0.06  -0.00
     5   6     0.00   0.00  -0.00     0.01   0.00  -0.01    -0.00   0.04   0.01
     6   1     0.01   0.01   0.00     0.02   0.00  -0.01    -0.05  -0.15  -0.05
     7   1     0.01   0.01   0.00     0.01   0.00   0.00    -0.23  -0.13   0.01
     8   1    -0.01   0.00   0.01     0.01   0.00  -0.00     0.28  -0.02  -0.11
     9   7     0.00  -0.00  -0.00    -0.01   0.00  -0.00     0.01  -0.01   0.01
    10   1    -0.03   0.00   0.01    -0.02  -0.00   0.01     0.21   0.09  -0.28
    11   1     0.01   0.01   0.01    -0.00   0.01   0.00    -0.15  -0.13   0.16
    12   6    -0.00   0.01  -0.00     0.02  -0.06   0.05    -0.07   0.01  -0.03
    13   6    -0.02   0.05  -0.05    -0.03   0.07  -0.07     0.01  -0.00   0.04
    14   6    -0.02   0.05  -0.04     0.00  -0.01   0.01     0.03   0.05   0.03
    15   6    -0.00  -0.00   0.00     0.02  -0.07   0.06    -0.01   0.00  -0.02
    16   6     0.02  -0.05   0.04     0.00  -0.01   0.01     0.02  -0.02  -0.03
    17   6     0.03  -0.06   0.05    -0.03   0.08  -0.06     0.01  -0.00   0.02
    18   1     0.19  -0.34   0.34     0.22  -0.38   0.38    -0.01   0.12  -0.05
    19   1     0.16  -0.33   0.30    -0.02   0.04  -0.04     0.08   0.03   0.01
    20   1    -0.01   0.01   0.00    -0.19   0.39  -0.35     0.03  -0.10   0.03
    21   1    -0.15   0.34  -0.31    -0.01   0.03  -0.03    -0.01   0.02  -0.08
    22   1    -0.17   0.35  -0.32     0.19  -0.38   0.35    -0.01   0.05  -0.03
    23   1     0.00  -0.01   0.01    -0.05   0.02  -0.02    -0.38   0.06  -0.09
    24  35    -0.00   0.00  -0.00    -0.00  -0.00  -0.00    -0.00  -0.01  -0.00
    25   8    -0.00  -0.00  -0.00    -0.00   0.02   0.00     0.02   0.15   0.03
    26   6     0.00   0.00   0.00    -0.01   0.00  -0.00    -0.16  -0.02  -0.06
    27   1     0.00   0.00   0.00    -0.04  -0.02  -0.02    -0.36  -0.19  -0.15
    28   1    -0.00   0.00   0.00     0.01  -0.01   0.00    -0.02  -0.10   0.00
    29   1     0.00   0.00   0.00     0.01  -0.01   0.00     0.00  -0.08  -0.03
                     34                     35                     36
                      A                      A                      A
 Frequencies --   1016.7480              1020.4375              1034.2588
 Red. masses --      1.5377                 3.8098                 1.2565
 Frc consts  --      0.9366                 2.3374                 0.7919
 IR Inten    --      0.5311                 1.6578                13.7765
  Atom  AN      X      Y      Z        X      Y      Z        X      Y      Z
     1   6     0.01   0.00   0.00    -0.02  -0.01  -0.01    -0.04   0.01  -0.03
     2   6     0.01  -0.00   0.00    -0.02   0.01  -0.00    -0.05   0.01  -0.01
     3   8    -0.00  -0.00  -0.00     0.00   0.01   0.00     0.01   0.01   0.00
     4   6    -0.00  -0.00  -0.00     0.01   0.02   0.01     0.01   0.02   0.04
     5   6     0.00  -0.00  -0.01    -0.01   0.01   0.01    -0.00   0.07  -0.01
     6   1     0.03   0.02   0.00     0.01  -0.05  -0.02     0.16  -0.17  -0.10
     7   1     0.02   0.01   0.01    -0.10  -0.06   0.02    -0.37  -0.20   0.11
     8   1    -0.03  -0.00   0.02     0.10  -0.02  -0.03     0.37  -0.09  -0.07
     9   7    -0.00   0.00  -0.00     0.01  -0.01  -0.00     0.01  -0.04  -0.00
    10   1    -0.04  -0.02   0.05     0.08   0.03  -0.09     0.19   0.07  -0.27
    11   1     0.01   0.01  -0.01    -0.07  -0.07   0.11    -0.27  -0.26   0.51
    12   6    -0.01   0.00   0.00    -0.02  -0.01   0.01     0.01   0.00   0.01
    13   6     0.01   0.02  -0.11     0.13  -0.19  -0.20    -0.00   0.01   0.00
[...]
 0002783,-0.00003409,-0.00032709,0.00001500,-0.00002517,0.00001742,-0.0
 0004704,-0.00005708,0.00006852,-0.00001934,0.00001540,-0.00024121,-0.0
 0049143,-0.00102202,0.06827410,-0.00084503,-0.01884816,-0.00636751,0.0
 0149288,-0.00447644,0.00048036,0.00326969,0.00248399,-0.00031876,0.051
 99774,-0.26798154,-0.11070830,-0.00113982,0.00063643,-0.00021450,0.000
 03825,-0.00012363,-0.00003292,0.00010794,0.00000934,0.00002617,-0.0000
 2969,-0.00036226,-0.00018554,-0.00180677,0.00681839,0.00877679,0.00034
 404,-0.00044775,0.00233510,-0.00011755,0.00036338,-0.00029463,0.000510
 79,-0.00356971,-0.00213332,0.00070055,0.00041403,0.00026478,-0.0003977
 3,-0.00007606,-0.00043798,-0.00008876,0.00029256,0.00025460,0.00031726
 ,0.00022945,0.00001191,-0.00198523,0.00063417,-0.00068477,-0.00009809,
 -0.00003569,0.00006925,0.00004201,-0.00004305,0.00005986,-0.00002907,-
 0.00000996,0.00006220,0.00001248,-0.00003895,0.00000635,0.00015561,0.0
 0020479,0.00058067,-0.05025730,0.28528263,0.00291092,0.00317332,0.0040
 4466,-0.00145217,0.00329446,-0.00064848,0.00095876,-0.00155713,-0.0020
 1406,0.01905681,-0.10911836,-0.08996623,0.00189838,-0.00094737,0.00030
 232,-0.00044496,0.00037173,0.00015307,-0.00009842,-0.00004189,-0.00004
 224,-0.00067448,0.00048158,-0.00021783,0.00617555,-0.01540532,-0.02591
 373,-0.00049251,0.00253957,-0.00386826,0.00026822,-0.00051530,0.000099
 95,0.00012840,0.00454634,0.00385873,-0.00176466,-0.00012417,0.00029010
 ,-0.00005046,0.00017872,0.00037446,-0.00008331,0.00004540,0.00001996,0
 .00021709,0.00008971,-0.00033699,-0.00214865,0.00165932,0.00016589,0.0
 0005142,0.00016250,-0.00004720,-0.00009222,0.00006031,-0.00004757,-0.0
 0002484,-0.00005207,0.00003050,-0.00001149,-0.00000895,-0.00001285,-0.
 00029788,-0.00026335,0.00005877,-0.02591097,0.11031891,0.11103067,-0.0
 2838169,0.00287153,0.00842938,0.00325189,0.01666819,0.00123976,-0.0031
 0384,0.00273577,0.00260725,0.00184859,-0.01611027,-0.00399662,-0.00016
 024,-0.00007075,0.00017841,-0.00001222,-0.00001226,-0.00001550,0.00000
 518,0.00009248,-0.00003501,-0.00006244,-0.00008403,0.00002991,0.000711
 92,0.00135194,-0.00125088,-0.00000600,0.00009548,0.00005869,0.00003894
 ,0.00017240,-0.00040594,-0.00000777,-0.00152062,-0.00052329,-0.0039891
 1,-0.00114158,0.00171830,-0.00004277,-0.00066607,-0.00004818,0.0001668
 8,0.00006269,-0.00030201,-0.00036873,0.00001226,-0.00014655,0.00037464
 ,0.00025375,0.00017659,-0.00268163,-0.00182005,-0.00034330,-0.00001963
 ,-0.00005599,0.00008472,-0.00004394,0.00001318,-0.00008170,-0.00000154
 ,-0.00000953,-0.00000708,0.00001314,-0.00002199,0.00003811,-0.00227140
 ,-0.00207627,0.00124176,0.03796395,0.00768141,-0.13893661,-0.03106316,
 -0.01224117,-0.02466728,-0.00201283,0.00671152,-0.00411083,-0.00301133
 ,0.00680019,-0.02732279,-0.01339062,-0.00031502,0.00021914,-0.00053621
 ,0.00015756,0.00002186,0.00015023,0.00031736,-0.00053333,0.00018532,0.
 00010841,0.00034375,-0.00017603,-0.00027633,0.00073714,0.00325771,-0.0
 0015211,-0.00061953,0.00041875,0.00011448,0.00046852,-0.00030384,0.002
 29205,0.00008631,0.00149774,-0.00165086,0.00037979,-0.00002498,-0.0007
 2804,0.00004403,-0.00029109,-0.00009536,0.00049639,0.00040865,0.000496
 63,-0.00033167,-0.00012096,-0.00067765,0.00018145,-0.00052608,-0.00081
 253,-0.00067699,0.00025019,-0.00012781,0.00002525,0.00001757,-0.000044
 79,0.00001868,-0.00000128,-0.00005001,-0.00002995,-0.00000796,0.000153
 33,0.00003386,0.00018892,-0.00339826,-0.00177365,0.00108165,-0.0061322
 0,0.19402545,0.00831233,-0.02934260,-0.01348066,-0.00589884,-0.0090471
 8,-0.00442158,0.00338599,-0.00254517,0.00291982,0.00099870,-0.00030730
 ,-0.00496685,-0.00055530,-0.00021584,0.00028209,0.00005172,-0.00000991
 ,0.00002182,0.00008003,0.00009219,-0.00029734,-0.00001195,-0.00003406,
 -0.00006482,-0.00017212,0.00037970,0.00209697,-0.00008115,-0.00051244,
 0.00063833,0.00006928,-0.00019291,-0.00006521,0.00112473,-0.00054556,-
 0.00057425,0.00088368,0.00002344,-0.00076691,-0.00001181,0.00015244,0.
 00038870,0.00008414,-0.00007281,0.00007693,0.00001841,0.00000777,-0.00
 001308,-0.00008809,0.00010134,-0.00009190,0.00096090,0.00075302,0.0002
 4575,-0.00000401,0.00002466,-0.00003761,0.00001907,0.00002089,0.000028
 93,-0.00000472,0.00000572,0.00000320,0.00001016,0.00004121,0.00006285,
 -0.00029722,-0.00159101,0.00252277,-0.01036063,0.04407162,0.01771759,-
 0.06567059,-0.03306430,0.01782249,-0.19251949,-0.07957712,0.03098423,0
 .00767329,-0.04107876,0.00084060,0.00675742,0.01625433,-0.00972641,-0.
 00255737,-0.00002173,-0.00010441,0.00032984,-0.00008308,0.00041406,-0.
 00022357,0.00020587,-0.00056404,0.00015371,0.00038882,-0.00063064,-0.0
 0336547,-0.00597727,0.01069844,0.00043828,-0.00042326,-0.00013981,0.00
 047563,-0.00007373,0.00135009,0.00126980,-0.00180531,0.00205136,-0.000
 74323,-0.00023101,-0.00024339,-0.00009712,0.00003540,-0.00034934,-0.00
 057690,0.00032054,0.00009800,0.00032609,-0.00004070,-0.00012939,-0.001
 15823,0.00052045,0.00006805,0.00024281,-0.00020718,-0.00005408,-0.0001
 8354,0.00012674,0.00003483,-0.00013924,0.00001491,-0.00001800,-0.00018
 877,-0.00003860,-0.00011786,0.00019335,-0.00003966,0.00015456,0.001676
 36,-0.00005138,0.00067026,-0.00374597,0.00225166,0.00192060,0.51270617
 ,-0.01227272,0.00795236,0.00144375,-0.04398145,-0.17492622,-0.00024314
 ,-0.05218930,-0.08377942,0.00339950,0.00681620,0.00449846,-0.00586587,
 -0.00075304,-0.00056370,-0.00005114,0.00005994,0.00014488,0.00026595,-
 0.00008632,0.00003013,-0.00018632,0.00018218,0.00051373,-0.00062788,-0
 .00113517,-0.00188494,0.00410911,0.00009090,-0.00033413,0.00006464,0.0
 0022373,-0.00004032,0.00040192,0.00076694,0.00036396,0.00090929,-0.000
 16496,-0.00012159,-0.00030238,-0.00014958,0.00010263,-0.00010855,-0.00
 018727,0.00016783,0.00011028,0.00020798,-0.00000744,0.00003494,-0.0002
 7165,-0.00000538,-0.00007591,-0.00001580,-0.00008628,0.00015702,-0.000
 07741,0.00004444,0.00000908,-0.00004539,0.00000484,0.00001022,-0.00004
 540,-0.00002726,-0.00002564,0.00008698,0.00001447,0.00009351,0.0016981
 2,0.00036399,-0.00000501,0.00511114,0.00159975,-0.00125495,0.03534145,
 0.36538767,0.02187919,0.01034168,0.00611024,0.03794809,0.01174054,-0.0
 7618808,-0.00110105,-0.00039485,0.02672334,0.00064348,-0.00480766,0.00
 455559,0.00009318,-0.00042024,0.00027716,-0.00018760,0.00009990,-0.000
 04896,-0.00009894,-0.00020817,0.00030473,0.00001639,0.00006536,-0.0001
 2290,0.00053337,0.00082919,-0.00217778,-0.00013583,0.00010446,-0.00002
 262,-0.00005044,-0.00005952,-0.00022559,-0.00008333,0.00128238,-0.0007
 8325,0.00016492,0.00004026,0.00004737,0.00004493,-0.00001086,0.0001779
 8,0.00020735,-0.00012529,-0.00003837,-0.00013303,-0.00001936,0.0000998
 4,0.00044618,-0.00020926,-0.00003452,-0.00005098,0.00008494,0.00000292
 ,0.00005402,-0.00003557,-0.00001449,0.00004622,0.00000290,-0.00000034,
 0.00007267,0.00002002,0.00003512,-0.00005230,0.00005368,-0.00004045,-0
 .00022047,-0.00022176,-0.00002521,0.00191135,-0.00032492,-0.00192280,-
 0.14193477,0.02785809,0.12722277,0.00889469,-0.00042820,-0.00072335,-0
 .06620675,-0.01283779,0.01993077,0.00184561,0.01550957,-0.00043954,-0.
 00344472,-0.00412359,0.00469154,0.00059351,-0.00005538,0.00004157,-0.0
 0004622,0.00004208,-0.00016988,0.00002318,-0.00012223,0.00033504,-0.00
 003587,-0.00022660,0.00029203,0.00088357,0.00181512,-0.00362648,-0.000
 17605,0.00010853,0.00004518,-0.00013648,-0.00002380,-0.00036247,-0.000
 49100,0.00032801,-0.00079524,0.00028139,0.00005463,-0.00000667,0.00004
 235,0.00003048,0.00014415,0.00019728,-0.00012343,-0.00003999,-0.000129
 35,0.00001871,0.00000981,0.00033259,-0.00012365,0.00000164,-0.00011837
 ,0.00007072,0.00008082,0.00005694,-0.00004742,-0.00001287,0.00005275,-
 0.00000826,0.00001251,0.00005807,0.00001856,0.00004211,-0.00007653,-0.
 00000432,-0.00004892,-0.00043481,-0.00001133,-0.00015364,0.00033810,-0
 .00008389,-0.00033580,-0.19085023,0.04366909,0.04829984,0.53196377,-0.
 00412220,-0.00476724,-0.00004021,-0.02014495,0.02138603,0.00984120,-0.
 00338767,-0.00552405,0.00099985,-0.00025111,0.00169751,-0.00094765,-0.
 00021770,0.00002428,0.00000317,0.00001146,-0.00001762,0.00005523,-0.00
 003177,0.00006450,-0.00010216,-0.00002975,0.00004402,-0.00009267,-0.00
 022426,-0.00044165,0.00090558,0.00005713,-0.00003891,-0.00000101,0.000
 04843,0.00001403,0.00011358,0.00007803,-0.00036616,0.00030891,-0.00006
 909,-0.00000923,-0.00003807,-0.00002203,0.00001261,-0.00004556,-0.0000
 6563,0.00003948,0.00002043,0.00004835,-0.00000962,-0.00002701,-0.00015
 537,0.00009375,-0.00000025,0.00002252,-0.00002291,0.00000708,-0.000019
 09,0.00001585,0.00000080,-0.00001508,0.00000221,-0.00000143,-0.0000275
 7,-0.00000375,-0.00001471,0.00002623,-0.00001040,0.00001921,0.00017901
 ,0.00001890,0.00007812,0.00031580,0.00030090,-0.00000285,0.06786012,-0
 .12030601,-0.03026238,0.05316435,0.60569321,-0.00272212,-0.00092471,0.
 00351236,0.01847488,0.00703761,-0.00668211,-0.00307580,-0.00530076,-0.
 00438678,0.00175907,0.00132948,-0.00020598,-0.00020012,0.00005376,-0.0
 0007131,0.00001374,-0.00001893,0.00005152,0.00006545,-0.00003647,-0.00
 009727,0.00007507,0.00012663,-0.00009979,-0.00084361,-0.00104492,0.001
 51845,0.00007629,-0.00004503,-0.00003006,0.00005564,-0.00002393,0.0002
 5685,0.00040906,0.00015557,0.00003410,-0.00005811,0.00000202,0.0000144
 4,-0.00004426,-0.00001128,-0.00005593,-0.00004513,0.00005297,0.0000265
 8,0.00003468,-0.00005006,-0.00001248,-0.00012891,0.00007610,0.00001216
 ,0.00003583,-0.00004828,-0.00003726,-0.00001794,0.00001326,0.00000359,
 -0.00002008,0.00000071,-0.00000332,-0.00002859,-0.00000685,-0.00001390
 ,0.00002851,-0.00000153,0.00002253,0.00024976,-0.00008338,0.00021156,-
 0.00013037,0.00021791,-0.00028897,0.05258817,-0.02226412,-0.08705433,0
 .02710325,-0.01513721,0.57956966,-0.00154792,-0.00158710,0.00021961,-0
 .00048566,0.00628324,0.00099297,0.00121915,-0.00105909,-0.00032709,0.0
 0011448,0.00084726,-0.00044674,-0.00010355,0.00001132,0.00000302,0.000
 01092,-0.00001044,0.00002119,-0.00000237,0.00000773,-0.00004981,0.0000
 0777,0.00002412,-0.00003035,-0.00015757,-0.00028280,0.00052022,0.00002
 322,-0.00002196,-0.00000722,0.00002226,-0.00000229,0.00006119,0.000075
 35,-0.00011767,0.00011201,-0.00003780,-0.00000325,-0.00001241,-0.00000
 710,0.00000464,-0.00002089,-0.00003169,0.00001931,0.00000650,0.0000196
 8,-0.00000339,-0.00000878,-0.00006901,0.00002900,-0.00000167,0.0000117
 9,-0.00001316,-0.00000034,-0.00001069,0.00000679,0.00000245,-0.0000082
 5,0.00000037,-0.00000043,-0.00001074,-0.00000272,-0.00000612,0.0000117
 1,-0.00000169,0.00000911,0.00007030,0.00000496,0.00003592,0.00003996,0
 .00010879,0.00000834,-0.03404114,-0.02225396,0.00803742,-0.14748403,-0
 .13077821,0.00947025,0.17424870,-0.00018533,0.00051600,0.00001254,0.00
 360793,-0.00311979,-0.00161242,-0.00259910,0.00135349,0.00095123,0.000
 21117,0.00010290,-0.00022771,-0.00000786,-0.00002408,-0.00000249,-0.00
 000344,0.00000305,0.00001352,0.00000222,-0.00000872,-0.00002190,0.0000
 1782,0.00003146,-0.00001834,-0.00004239,-0.00006979,0.00015353,0.00000
 533,-0.00000860,-0.00000528,0.00000905,0.00000032,0.00000825,0.0000460
 3,0.00003421,0.00004485,-0.00002302,-0.00000243,-0.00000346,-0.0000034
 7,-0.00000091,-0.00000432,-0.00000918,0.00000656,0.00000193,0.00000572
 ,0.00000024,0.00000427,-0.00000964,-0.00000415,-0.00000314,0.00000606,
 -0.00000414,-0.00000423,-0.00000386,0.00000299,0.00000103,-0.00000350,
 0.00000080,-0.00000068,-0.00000148,-0.00000154,-0.00000214,0.00000563,
 0.00000299,0.00000420,0.00004327,0.00004138,0.00000439,-0.00010195,0.0
 0010268,0.00007265,0.01590245,0.01410336,-0.00299359,-0.14193679,-0.22
 911742,0.01726837,0.14274361,0.23513953,0.00050214,0.00061793,0.000076
 72,0.00097852,-0.00239494,-0.00029711,-0.00041057,0.00038599,0.0008911
 9,0.00003837,-0.00027054,0.00014514,0.00003063,-0.00000313,-0.00000030
 ,0.00000002,0.00000585,-0.00000569,0.00000016,0.00000719,0.00002301,-0
 .00001386,-0.00001147,0.00000884,0.00003592,0.00006688,-0.00013753,-0.
 00000177,0.00000635,0.00000547,-0.00000570,-0.00000088,-0.00001431,-0.
 00001232,0.00004896,-0.00005564,0.00001329,0.00000178,0.00000629,0.000
 00211,-0.00000257,0.00000793,0.00000994,-0.00000618,-0.00000404,-0.000
 00850,0.00000245,0.00000360,0.00002316,-0.00001247,-0.00000088,-0.0000
 0276,0.00000405,-0.00000099,0.00000331,-0.00000245,0.00000016,0.000001
 71,-0.00000019,0.00000042,0.00000323,0.00000002,0.00000192,-0.00000236
 ,0.00000159,-0.00000227,-0.00002459,-0.00000821,-0.00000015,-0.0000408
 5,-0.00002388,-0.00003265,0.01391197,0.00958075,-0.00242613,0.00759715
 ,0.01353088,-0.05262656,-0.01862990,-0.01537788,0.04911057,-0.00189250
 ,-0.00022952,-0.00036554,0.00527685,0.00584642,0.00116661,-0.00068901,
 -0.00200870,-0.00043571,0.00040534,0.00072563,-0.00083991,-0.00010051,
 0.00003788,-0.00001515,0.00002349,-0.00001432,0.00001196,-0.00001065,0
 .00003070,-0.00004460,-0.00000216,-0.00001329,-0.00000771,-0.00009912,
 -0.00023576,0.00056455,0.00002214,-0.00001787,-0.00000039,0.00001592,0
 .00000365,0.00004527,0.00004624,-0.00012172,0.00012785,-0.00004422,-0.
 00000773,0.00000149,0.00000417,-0.00000621,-0.00002124,-0.00003486,0.0
 0001548,0.00000049,0.00001904,0.00000326,-0.00001017,-0.00005514,0.000
 02709,0.00000519,0.00001627,-0.00000902,-0.00001035,-0.00000747,0.0000
 0520,0.00000182,-0.00000560,-0.00000010,-0.00000140,-0.00000967,-0.000
 00298,-0.00000468,0.00000531,-0.00001017,0.00000603,0.00000270,-0.0000
 0009,0.00002354,0.00007421,-0.00017656,0.00002681,-0.00803068,0.016164
 34,0.03674399,-0.05711797,-0.02083925,-0.04615592,-0.00103479,-0.00546
 549,-0.01702697,0.06332015,0.00084383,0.00021149,-0.00014778,-0.003609
 68,-0.00146371,0.00146292,0.00054989,0.00081256,-0.00001005,-0.0002483
 8,-0.00042272,0.00041497,0.00004023,0.00001597,-0.00000125,0.00000494,
 0.00000060,-0.00002043,0.00000920,-0.00001581,0.00003671,-0.00000360,-
 0.00003780,0.00004632,0.00007302,0.00015311,-0.00027771,-0.00001917,0.
 00000875,0.00000917,-0.00001729,0.00000100,-0.00003452,-0.00004051,0.0
 0004002,-0.00010142,0.00003763,0.00000554,0.00000590,0.00000352,0.0000
 0021,0.00001296,0.00002216,-0.00001231,-0.00000077,-0.00000843,-0.0000
 0113,0.00000695,0.00003318,-0.00002196,-0.00000060,-0.00001408,0.00000
 771,0.00000948,0.00000716,-0.00000470,-0.00000193,0.00000657,0.0000000
 2,0.00000064,0.00000886,0.00000361,0.00000399,-0.00000842,0.00000670,-
 0.00000877,-0.00008697,0.00000254,-0.00000852,0.00002871,-0.00005745,-
 0.00007373,0.00821151,-0.00542126,-0.01369730,-0.01799446,-0.09651625,
 -0.10022968,-0.00291175,-0.00702953,-0.02129969,0.01211249,0.10009450,
 0.00098710,0.00058040,-0.00028184,-0.00398428,-0.00634443,0.00087419,-
 0.00120342,0.00264288,0.00160375,-0.00036704,-0.00051402,0.00042029,0.
 00006067,-0.00004874,0.00001186,-0.00000151,0.00001147,-0.00000536,-0.
 00001939,0.00000619,0.00003260,-0.00002089,-0.00001542,0.00001374,0.00
 011920,0.00020579,-0.00036646,-0.00002282,0.00000781,0.00001105,-0.000
 00936,-0.00000737,-0.00004414,-0.00003703,0.00006373,-0.00007898,0.000
 02757,0.00000867,-0.00000229,0.00000010,0.00000431,0.00001752,0.000021
 35,-0.00001037,-0.00000140,-0.00000868,0.00000265,0.00000797,0.0000389
 4,-0.00003007,-0.00000979,-0.00001386,0.00000919,0.00001084,0.00000492
 ,-0.00000425,-0.00000126,0.00000528,-0.00000006,0.00000141,0.00000883,
 0.00000195,0.00000451,-0.00000490,0.00000642,-0.00000447,-0.00000998,0
 .00002938,-0.00001722,-0.00002681,0.00015300,0.00000854,0.01281294,-0.
 00514436,-0.00833191,-0.03963702,-0.09960784,-0.26578147,0.00035929,0.
 00324285,0.00516660,0.03485785,0.11408349,0.28229190,-0.00166801,-0.00
 066592,0.00084787,0.00544395,0.00895170,-0.00194231,0.00063684,-0.0034
 9436,0.00000283,0.00071481,0.00082295,-0.00062524,-0.00014813,0.000032
 72,-0.00002636,0.00003760,-0.00001381,0.00001192,-0.00001915,0.0000479
 4,-0.00001676,-0.00003279,-0.00001681,-0.00002517,-0.00020342,-0.00042
 128,0.00070461,0.00003063,-0.00001314,-0.00000933,0.00002240,-0.000012
 92,0.00009672,0.00010147,-0.00003823,0.00008122,-0.00003076,-0.0000077
 0,0.00001059,-0.00000930,-0.00000493,-0.00002329,-0.00002312,0.0000184
 3,0.00000817,0.00001700,-0.00001103,-0.00000361,-0.00005319,0.00002113
 ,0.00000593,0.00001568,-0.00001411,-0.00001499,-0.00000673,0.00000609,
 0.00000101,-0.00000653,0.00000076,-0.00000184,-0.00000759,-0.00000114,
 -0.00000582,0.00000863,0.00000217,0.00000193,0.00000011,-0.00006009,0.
 00006363,0.00007151,-0.00023079,-0.00013325,-0.02815121,0.02321041,-0.
 01309383,-0.07881542,0.05858928,-0.05696870,0.00915699,-0.01220978,0.0
 1302853,-0.00009747,0.00296983,-0.00393704,0.09301522,0.00105827,0.000
 28682,-0.00004288,-0.00465015,-0.00243238,0.00057276,-0.00046752,0.001
 46367,-0.00000889,-0.00037909,-0.00049694,0.00044667,0.00009659,0.0000
 1843,0.00001989,-0.00001405,0.00000216,-0.00002507,0.00002921,-0.00002
 961,0.00003709,-0.00000633,-0.00001915,0.00003615,0.00012197,0.0002066
 3,-0.00046678,-0.00001813,0.00001657,0.00000065,-0.00002564,0.00000278
 ,-0.00004610,-0.00007498,0.00005598,-0.00006571,0.00002928,0.00000445,
 -0.00000433,0.00000745,0.00000677,0.00001651,0.00002234,-0.00001525,-0
 .00000579,-0.00001557,0.00000258,0.00000083,0.00004309,-0.00001337,0.0
 0000173,-0.00001531,0.00000800,0.00001259,0.00000693,-0.00000608,-0.00
 000133,0.00000646,-0.00000151,0.00000178,0.00000637,0.00000172,0.00000
 537,-0.00001125,-0.00000229,-0.00000731,-0.00007599,-0.00000909,-0.000
 03859,0.00003828,-0.00002486,0.00000166,0.01527883,-0.00778854,0.00126
 729,0.06332129,-0.17225604,0.11889275,0.00895834,-0.01205083,0.0151538
 2,-0.00581335,0.00964030,-0.00933325,-0.07745737,0.18342910,0.00040440
 ,-0.00012079,-0.00059845,-0.00021612,0.00088419,0.00147581,0.00164375,
 -0.00066481,-0.00044677,-0.00015793,-0.00017988,0.00005949,0.00004526,
 0.00003132,-0.00000639,-0.00000247,-0.00000359,-0.00000490,0.00000627,
 -0.00000354,0.00000229,-0.00000623,-0.00000667,0.00001160,0.00003932,0
 .00012203,-0.00016409,-0.00000326,0.00000488,0.00000644,-0.00001231,0.
 00001071,-0.00001974,-0.00004466,-0.00003204,-0.00001980,0.00001376,-0
 .00000231,0.00000289,0.00000413,-0.00000264,0.00000372,0.00000529,-0.0
 0000579,-0.00000180,-0.00000285,0.00000345,0.00000409,0.00001217,-0.00
 000577,0.00000144,-0.00000225,0.00000515,0.00000182,0.00000272,-0.0000
 0074,-0.00000058,0.00000186,0.00000083,-0.00000048,0.00000321,0.000001
 69,0.00000023,-0.00000118,0.00000489,-0.00000447,-0.00005049,0.0000062
 5,-0.00000538,0.00000049,-0.00008411,0.00001033,0.00759151,-0.01229278
 ,0.01390069,-0.06227555,0.12043700,-0.16778629,-0.00031773,-0.00150605
 ,0.00015637,-0.00864372,0.01982066,-0.01555016,0.06196259,-0.12642153,
 0.16897210\\0.00001088,0.00000251,-0.00000261,-0.00000113,-0.00000247,
 0.00000438,-0.00000068,-0.00001557,0.00000963,-0.00000386,-0.00000305,
 -0.00000038,-0.00000483,0.00001362,0.00000437,-0.00000827,0.00001166,0
 .00001015,-0.00000455,0.00000583,0.00000430,-0.00000583,0.00000452,0.0
 0001199,-0.00000550,0.00000601,-0.00000050,-0.00000619,0.00001229,0.00
 000181,-0.00000448,0.00001197,0.00000776,-0.00000175,-0.00000596,-0.00
 000657,0.00000212,0.00000737,-0.00000683,-0.00000337,0.00001221,-0.000
 00800,0.00000239,0.00000569,-0.00000929,0.00000135,-0.00000778,-0.0000
 1227,0.00000355,0.00000431,0.00000748,0.00000071,0.00000894,-0.0000107
 1,0.00000448,0.00000789,-0.00001869,0.00000358,0.00000320,-0.00001284,
 0.00000406,-0.00000348,-0.00000052,0.00000140,-0.00000839,0.00000167,0
 .00000045,-0.00000265,0.00000984,0.00000225,-0.00000137,-0.00001004,0.
 00000127,-0.00000608,0.00000098,0.00000123,-0.00001292,0.00001069,0.00
 000543,-0.00001469,0.00000185,0.00000377,-0.00002093,0.00000294,0.0000
 0152,-0.00001267,0.00000942\\\@
 The archive entry for this job was punched.


 EXPERIENCE IS A WONDERFUL THING.  IT ENABLES
 YOU TO RECOGNIZE A MISTAKE WHEN YOU MAKE IT AGAIN.
           - BACK OF A SUGAR PACKET
 Job cpu time:       0 days  0 hours 45 minutes 22.1 seconds.
 Elapsed time:       0 days  0 hours  3 minutes 49.6 seconds.
 File lengths (MBytes):  RWF=    416 Int=      0 D2E=      0 Chk=     14 Scr=      1
 Normal termination of Gaussian 16 at Mon Jan  1 14:57:46 2024.
