Unloading slurm/anatra/current
  ERROR: No such file or directory on
    '/cm/local/modulefiles/slurm/anatra/current'
environment: line 0: unalias: gv: not found
environment: line 0: unalias: sl: not found
 Entering Gaussian System, Link 0=g16
 Initial command:
 /apps/gaussian/g16/C.01/g16/l1.exe "/local/jobs/1153261/Gau-1692263.inp" -scrdir="/local/jobs/1153261/"
 Entering Link 1 = /apps/gaussian/g16/C.01/g16/l1.exe PID=   1692264.
  
 Copyright (c) 1988-2019, Gaussian, Inc.  All Rights Reserved.
  
 This is part of the Gaussian(R) 16 program.  It is based on
 the Gaussian(R) 09 system (copyright 2009, Gaussian, Inc.),
 the Gaussian(R) 03 system (copyright 2003, Gaussian, Inc.),
 the Gaussian(R) 98 system (copyright 1998, Gaussian, Inc.),
 the Gaussian(R) 94 system (copyright 1995, Gaussian, Inc.),
 the Gaussian 92(TM) system (copyright 1992, Gaussian, Inc.),
 the Gaussian 90(TM) system (copyright 1990, Gaussian, Inc.),
 the Gaussian 88(TM) system (copyright 1988, Gaussian, Inc.),
 the Gaussian 86(TM) system (copyright 1986, Carnegie Mellon
 University), and the Gaussian 82(TM) system (copyright 1983,
 Carnegie Mellon University). Gaussian is a federally registered
 trademark of Gaussian, Inc.
  
 This software contains proprietary and confidential information,
 including trade secrets, belonging to Gaussian, Inc.
  
 This software is provided under written license and may be
 used, copied, transmitted, or stored only in accord with that
 written license.
  
 The following legend is applicable only to US Government
 contracts under FAR:
  
                    RESTRICTED RIGHTS LEGEND
  
 Use, reproduction and disclosure by the US Government is
 subject to restrictions as set forth in subparagraphs (a)
 and (c) of the Commercial Computer Software - Restricted
 Rights clause in FAR 52.227-19.
  
 Gaussian, Inc.
 340 Quinnipiac St., Bldg. 40, Wallingford CT 06492
  
  
 ---------------------------------------------------------------
 Warning -- This program may not be used in any manner that
 competes with the business of Gaussian, Inc. or will provide
 assistance to any competitor of Gaussian, Inc.  The licensee
 of this program is prohibited from giving any competitor of
 Gaussian, Inc. access to this program.  By using this program,
 the user acknowledges that Gaussian, Inc. is engaged in the
 business of creating and licensing software in the field of
 computational chemistry and represents and warrants to the
 licensee that it is not a competitor of Gaussian, Inc. and that
 it will not use this program in any manner prohibited above.
 ---------------------------------------------------------------
  

 Cite this work as:
 Gaussian 16, Revision C.01,
 M. J. Frisch, G. W. Trucks, H. B. Schlegel, G. E. Scuseria, 
 M. A. Robb, J. R. Cheeseman, G. Scalmani, V. Barone, 
 G. A. Petersson, H. Nakatsuji, X. Li, M. Caricato, A. V. Marenich, 
 J. Bloino, B. G. Janesko, R. Gomperts, B. Mennucci, H. P. Hratchian, 
 J. V. Ortiz, A. F. Izmaylov, J. L. Sonnenberg, D. Williams-Young, 
 F. Ding, F. Lipparini, F. Egidi, J. Goings, B. Peng, A. Petrone, 
 T. Henderson, D. Ranasinghe, V. G. Zakrzewski, J. Gao, N. Rega, 
 G. Zheng, W. Liang, M. Hada, M. Ehara, K. Toyota, R. Fukuda, 
 J. Hasegawa, M. Ishida, T. Nakajima, Y. Honda, O. Kitao, H. Nakai, 
 T. Vreven, K. Throssell, J. A. Montgomery, Jr., J. E. Peralta, 
 F. Ogliaro, M. J. Bearpark, J. J. Heyd, E. N. Brothers, K. N. Kudin, 
 V. N. Staroverov, T. A. Keith, R. Kobayashi, J. Normand, 
 K. Raghavachari, A. P. Rendell, J. C. Burant, S. S. Iyengar, 
 J. Tomasi, M. Cossi, J. M. Millam, M. Klene, C. Adamo, R. Cammi, 
 J. W. Ochterski, R. L. Martin, K. Morokuma, O. Farkas, 
 J. B. Foresman, and D. J. Fox, Gaussian, Inc., Wallingford CT, 2019.
 
 ******************************************
 Gaussian 16:  ES64L-G16RevC.01  3-Jul-2019
                 1-Jan-2024 
 ******************************************
 %chk=TS-68_sqm.chk
 %nprocshared=12
 Will use up to   12 processors via shared memory.
 %mem=48GB
 ----------------------------------------------------------------------
 # wb97xd def2svp geom=allchk scrf=(iefpcm,solvent=toluene) opt=(readfc
 ,ts,noeigen,maxcycles=50,maxstep=10)
 ----------------------------------------------------------------------
 1/5=1,6=50,8=10,10=3,11=1,18=20,26=3,29=7,38=1/1,3;
 2/9=110,12=2,40=1/2;
 3/5=43,7=101,11=2,14=-4,25=1,30=1,70=2201,71=1,72=13,74=-58/1,2,3;
 4//1;
 5/5=2,38=5,53=13/2;
 6/7=2,8=2,9=2,10=2,28=1/1;
 7//1,2,3,16;
 1/5=1,6=50,8=10,11=1,18=20,26=3/3(2);
 2/9=110/2;
 99//99;
 2/9=110/2;
 3/5=43,7=101,11=2,14=-2,25=1,30=1,70=2205,71=1,72=13,74=-58/1,2,3;
 4/5=5,16=3,69=1/1;
 5/5=2,38=5,53=13/2;
 7//1,2,3,16;
 1/5=1,6=50,8=10,11=1,18=20,26=3/3(-5);
 2/9=110/2;
 6/7=2,8=2,9=2,10=2,19=2,28=1/1;
 99/9=1/99;
 Structure from the checkpoint file:  "TS-68_sqm.chk"
 ---------
 TS-68.out
 ---------
 Charge =  0 Multiplicity = 1
 Redundant internal coordinates found in file.  (old form).
 C,0,-0.74249,-0.12132,0.22248
 C,0,-2.09729,0.30804,0.69467
 O,0,-2.30169,1.18952,1.52012
 C,0,0.23569,0.82708,0.28242
 C,0,-1.12249,3.02777,-1.33601
 H,0,-0.92798,3.59591,-2.25016
 H,0,-2.10314,2.55168,-1.41988
 H,0,-1.13854,3.71741,-0.4876
 N,0,-0.08065,2.0099,-1.1377
 H,0,-0.07122,1.43807,-1.98871
 H,0,0.8163,2.51011,-1.18421
 C,0,1.69287,0.45967,0.25094
 C,0,2.32299,-0.06152,-0.88807
 C,0,3.68719,-0.36217,-0.87152
 C,0,4.43783,-0.13667,0.28037
 C,0,3.82677,0.39194,1.41535
 C,0,2.46265,0.69229,1.39956
 H,0,1.75802,-0.23854,-1.79909
 H,0,4.16255,-0.77282,-1.75836
 H,0,5.49878,-0.37232,0.29348
 H,0,4.41054,0.57044,2.31459
 H,0,2.00288,1.1043,2.29536
 H,0,0.02255,1.70746,0.91213
 Br,0,-0.52741,-1.88792,-0.36586
 O,0,-3.07299,-0.40619,0.06938
 C,0,-4.39791,-0.05049,0.46209
 H,0,-5.09696,-0.68232,-0.09281
 H,0,-4.5431,-0.23106,1.53182
 H,0,-4.60411,0.99512,0.21281
 Recover connectivity data from disk.

 GradGradGradGradGradGradGradGradGradGradGradGradGradGradGradGradGradGrad
 Berny optimization.
 Initialization pass.
 Force constant matrix read from checkpoint file:
 "TS-68_sqm.chk"
                           ----------------------------
                           !    Initial Parameters    !
                           ! (Angstroms and Degrees)  !
 --------------------------                            --------------------------
 ! Name  Definition              Value          Derivative Info.                !
 --------------------------------------------------------------------------------
 ! R1    R(1,2)                  1.4976         D2E/DX2 =    0.3622             !
 ! R2    R(1,4)                  1.3638         D2E/DX2 =    0.6601             !
 ! R3    R(1,24)                 1.8744         D2E/DX2 =    0.2417             !
 ! R4    R(2,3)                  1.2248         D2E/DX2 =    0.7917             !
 ! R5    R(2,25)                 1.3613         D2E/DX2 =    0.4508             !
 ! R6    R(4,9)                  1.8751         D2E/DX2 =    0.0297             !
 ! R7    R(4,12)                 1.5031         D2E/DX2 =    0.3751             !
 ! R8    R(4,23)                 1.1032         D2E/DX2 =    0.2624             !
 ! R9    R(5,6)                  1.0937         D2E/DX2 =    0.2673             !
 ! R10   R(5,7)                  1.0933         D2E/DX2 =    0.2699             !
 ! R11   R(5,8)                  1.0935         D2E/DX2 =    0.2695             !
 ! R12   R(5,9)                  1.47           D2E/DX2 =    0.483              !
 ! R13   R(9,10)                 1.0253         D2E/DX2 =    0.2822             !
 ! R14   R(9,11)                 1.0281         D2E/DX2 =    0.2813             !
 ! R15   R(12,13)                1.4022         D2E/DX2 =    0.4573             !
 ! R16   R(12,17)                1.4021         D2E/DX2 =    0.459              !
 ! R17   R(13,14)                1.397          D2E/DX2 =    0.466              !
 ! R18   R(13,18)                1.0865         D2E/DX2 =    0.2739             !
 ! R19   R(14,15)                1.3933         D2E/DX2 =    0.4764             !
 ! R20   R(14,19)                1.0868         D2E/DX2 =    0.2737             !
 ! R21   R(15,16)                1.3932         D2E/DX2 =    0.4764             !
 ! R22   R(15,20)                1.0869         D2E/DX2 =    0.2738             !
 ! R23   R(16,17)                1.3969         D2E/DX2 =    0.4659             !
 ! R24   R(16,21)                1.0869         D2E/DX2 =    0.2736             !
 ! R25   R(17,22)                1.0879         D2E/DX2 =    0.2725             !
 ! R26   R(25,26)                1.4269         D2E/DX2 =    0.4174             !
 ! R27   R(26,27)                1.0935         D2E/DX2 =    0.2652             !
 ! R28   R(26,28)                1.0945         D2E/DX2 =    0.2631             !
 ! R29   R(26,29)                1.0945         D2E/DX2 =    0.2627             !
 ! A1    A(2,1,4)              115.8255         D2E/DX2 =    0.1412             !
 ! A2    A(2,1,24)             118.2285         D2E/DX2 =    0.1406             !
 ! A3    A(4,1,24)             125.9393         D2E/DX2 =    0.1184             !
 ! A4    A(1,2,3)              124.7361         D2E/DX2 =    0.1273             !
 ! A5    A(1,2,25)             110.6804         D2E/DX2 =    0.146              !
 ! A6    A(3,2,25)             124.5799         D2E/DX2 =    0.1394             !
 ! A7    A(1,4,9)              106.5222         D2E/DX2 =    0.0555             !
 ! A8    A(1,4,12)             121.6302         D2E/DX2 =    0.0427             !
 ! A9    A(1,4,23)             116.1982         D2E/DX2 =    0.0214             !
 ! A10   A(9,4,12)             107.5707         D2E/DX2 =    0.0524             !
 ! A11   A(9,4,23)              84.0482         D2E/DX2 =    0.0212             !
 ! A12   A(12,4,23)            113.2234         D2E/DX2 =    0.0203             !
 ! A13   A(6,5,7)              108.7589         D2E/DX2 =    0.0435             !
 ! A14   A(6,5,8)              108.874          D2E/DX2 =    0.0438             !
 ! A15   A(6,5,9)              110.2671         D2E/DX2 =    0.1123             !
 ! A16   A(7,5,8)              108.7228         D2E/DX2 =    0.0434             !
 ! A17   A(7,5,9)              110.1531         D2E/DX2 =    0.107              !
 ! A18   A(8,5,9)              110.0261         D2E/DX2 =    0.1083             !
 ! A19   A(4,9,5)              131.1893         D2E/DX2 =    0.0466             !
 ! A20   A(4,9,10)             105.9768         D2E/DX2 =    0.0401             !
 ! A21   A(4,9,11)             101.1863         D2E/DX2 =    0.0415             !
 ! A22   A(5,9,10)             106.3035         D2E/DX2 =    0.062              !
 ! A23   A(5,9,11)             105.9827         D2E/DX2 =    0.0569             !
 ! A24   A(10,9,11)            103.049          D2E/DX2 =    0.0127             !
 ! A25   A(4,12,13)            122.9243         D2E/DX2 =    0.1013             !
 ! A26   A(4,12,17)            118.3279         D2E/DX2 =    0.1031             !
 ! A27   A(13,12,17)           118.7115         D2E/DX2 =    0.079              !
 ! A28   A(12,13,14)           120.6107         D2E/DX2 =    0.0771             !
 ! A29   A(12,13,18)           120.5314         D2E/DX2 =    0.0774             !
 ! A30   A(14,13,18)           118.8579         D2E/DX2 =    0.0784             !
 ! A31   A(13,14,15)           120.0706         D2E/DX2 =    0.0765             !
 ! A32   A(13,14,19)           119.9189         D2E/DX2 =    0.0764             !
 ! A33   A(15,14,19)           120.0105         D2E/DX2 =    0.0764             !
 ! A34   A(14,15,16)           119.9096         D2E/DX2 =    0.0764             !
 ! A35   A(14,15,20)           120.0524         D2E/DX2 =    0.0763             !
 ! A36   A(16,15,20)           120.038          D2E/DX2 =    0.0764             !
 ! A37   A(15,16,17)           120.0455         D2E/DX2 =    0.0765             !
 ! A38   A(15,16,21)           120.0501         D2E/DX2 =    0.0764             !
 ! A39   A(17,16,21)           119.9044         D2E/DX2 =    0.0764             !
 ! A40   A(12,17,16)           120.6448         D2E/DX2 =    0.0769             !
 ! A41   A(12,17,22)           120.3535         D2E/DX2 =    0.0784             !
 ! A42   A(16,17,22)           119.0005         D2E/DX2 =    0.0786             !
 ! A43   A(2,25,26)            114.0982         D2E/DX2 =    0.2818             !
 ! A44   A(25,26,27)           108.0518         D2E/DX2 =    0.1077             !
 ! A45   A(25,26,28)           110.5495         D2E/DX2 =    0.1174             !
 ! A46   A(25,26,29)           110.5106         D2E/DX2 =    0.1163             !
 ! A47   A(27,26,28)           108.4105         D2E/DX2 =    0.0521             !
 ! A48   A(27,26,29)           108.4194         D2E/DX2 =    0.0521             !
 ! A49   A(28,26,29)           110.806          D2E/DX2 =    0.052              !
 ! D1    D(4,1,2,3)            -27.0774         D2E/DX2 =    0.0116             !
 ! D2    D(4,1,2,25)           152.2549         D2E/DX2 =    0.0107             !
 ! D3    D(24,1,2,3)           152.0325         D2E/DX2 =    0.0118             !
 ! D4    D(24,1,2,25)          -28.6351         D2E/DX2 =    0.0111             !
 ! D5    D(2,1,4,9)            -75.3285         D2E/DX2 =    0.0128             !
 ! D6    D(2,1,4,12)           161.1309         D2E/DX2 =    0.0118             !
 ! D7    D(2,1,4,23)            16.1275         D2E/DX2 =    0.0113             !
 ! D8    D(24,1,4,9)           105.64           D2E/DX2 =    0.0121             !
 ! D9    D(24,1,4,12)          -17.9006         D2E/DX2 =    0.0098             !
 ! D10   D(24,1,4,23)         -162.9039         D2E/DX2 =    0.0122             !
 ! D11   D(1,2,25,26)         -179.7276         D2E/DX2 =    0.0185             !
 ! D12   D(3,2,25,26)           -0.394          D2E/DX2 =    0.0139             !
 ! D13   D(1,4,9,5)             72.2434         D2E/DX2 =    0.0117             !
 ! D14   D(1,4,9,10)           -57.4423         D2E/DX2 =    0.0127             !
 ! D15   D(1,4,9,11)          -164.6612         D2E/DX2 =    0.0136             !
 ! D16   D(12,4,9,5)          -155.8651         D2E/DX2 =    0.0115             !
 ! D17   D(12,4,9,10)           74.4492         D2E/DX2 =    0.0122             !
 ! D18   D(12,4,9,11)          -32.7697         D2E/DX2 =    0.0136             !
 ! D19   D(23,4,9,5)           -43.3552         D2E/DX2 =    0.0113             !
 ! D20   D(23,4,9,10)         -173.0409         D2E/DX2 =    0.0124             !
 ! D21   D(23,4,9,11)           79.7403         D2E/DX2 =    0.0133             !
 ! D22   D(1,4,12,13)           68.9325         D2E/DX2 =    0.0085             !
 ! D23   D(1,4,12,17)         -113.2871         D2E/DX2 =    0.0081             !
 ! D24   D(9,4,12,13)          -54.1185         D2E/DX2 =    0.0113             !
 ! D25   D(9,4,12,17)          123.6619         D2E/DX2 =    0.011              !
 ! D26   D(23,4,12,13)        -145.1222         D2E/DX2 =    0.0096             !
 ! D27   D(23,4,12,17)          32.6582         D2E/DX2 =    0.0092             !
 ! D28   D(6,5,9,4)            174.3827         D2E/DX2 =    0.0085             !
 ! D29   D(6,5,9,10)           -56.0457         D2E/DX2 =    0.0113             !
 ! D30   D(6,5,9,11)            53.1305         D2E/DX2 =    0.0119             !
 ! D31   D(7,5,9,4)            -65.572          D2E/DX2 =    0.0085             !
 ! D32   D(7,5,9,10)            63.9996         D2E/DX2 =    0.0116             !
 ! D33   D(7,5,9,11)           173.1758         D2E/DX2 =    0.0124             !
 ! D34   D(8,5,9,4)             54.2755         D2E/DX2 =    0.0086             !
 ! D35   D(8,5,9,10)          -176.1529         D2E/DX2 =    0.0118             !
 ! D36   D(8,5,9,11)           -66.9767         D2E/DX2 =    0.0122             !
 ! D37   D(4,12,13,14)         178.741          D2E/DX2 =    0.0066             !
 ! D38   D(4,12,13,18)          -1.2625         D2E/DX2 =    0.0068             !
 ! D39   D(17,12,13,14)          0.9687         D2E/DX2 =    0.0065             !
 ! D40   D(17,12,13,18)       -179.0348         D2E/DX2 =    0.007              !
 ! D41   D(4,12,17,16)        -178.8208         D2E/DX2 =    0.0064             !
 ! D42   D(4,12,17,22)           1.582          D2E/DX2 =    0.0067             !
 ! D43   D(13,12,17,16)         -0.9451         D2E/DX2 =    0.0065             !
 ! D44   D(13,12,17,22)        179.4577         D2E/DX2 =    0.0066             !
 ! D45   D(12,13,14,15)         -0.4365         D2E/DX2 =    0.0083             !
 ! D46   D(12,13,14,19)        179.5331         D2E/DX2 =    0.008              !
 ! D47   D(18,13,14,15)        179.5669         D2E/DX2 =    0.0081             !
 ! D48   D(18,13,14,19)         -0.4634         D2E/DX2 =    0.0088             !
 ! D49   D(13,14,15,16)         -0.1381         D2E/DX2 =    0.0085             !
 ! D50   D(13,14,15,20)        179.8921         D2E/DX2 =    0.0082             !
 ! D51   D(19,14,15,16)        179.8923         D2E/DX2 =    0.008              !
 ! D52   D(19,14,15,20)         -0.0775         D2E/DX2 =    0.0089             !
 ! D53   D(14,15,16,17)          0.1618         D2E/DX2 =    0.0085             !
 ! D54   D(14,15,16,21)       -179.8899         D2E/DX2 =    0.0079             !
 ! D55   D(20,15,16,17)       -179.8684         D2E/DX2 =    0.0081             !
 ! D56   D(20,15,16,21)          0.0799         D2E/DX2 =    0.0089             !
 ! D57   D(15,16,17,12)          0.3887         D2E/DX2 =    0.0083             !
 ! D58   D(15,16,17,22)        179.9913         D2E/DX2 =    0.0079             !
 ! D59   D(21,16,17,12)       -179.5596         D2E/DX2 =    0.0081             !
 ! D60   D(21,16,17,22)          0.043          D2E/DX2 =    0.0088             !
 ! D61   D(2,25,26,27)        -179.7742         D2E/DX2 =    0.0203             !
 ! D62   D(2,25,26,28)         -61.2895         D2E/DX2 =    0.0193             !
 ! D63   D(2,25,26,29)          61.7526         D2E/DX2 =    0.0188             !
 --------------------------------------------------------------------------------
 Trust Radius=1.00D-01 FncErr=1.00D-07 GrdErr=1.00D-06 EigMax=2.50D+02 EigMin=1.00D-04
 Number of steps in this run=     50 maximum allowed number of steps=    174.
 Search for a saddle point of order  1.
 GradGradGradGradGradGradGradGradGradGradGradGradGradGradGradGradGradGrad

                          Input orientation:                          
 ---------------------------------------------------------------------
 Center     Atomic      Atomic             Coordinates (Angstroms)
 Number     Number       Type             X           Y           Z
 ---------------------------------------------------------------------
      1          6           0       -0.742490   -0.121320    0.222480
      2          6           0       -2.097290    0.308040    0.694670
      3          8           0       -2.301690    1.189520    1.520120
      4          6           0        0.235690    0.827080    0.282420
      5          6           0       -1.122490    3.027770   -1.336010
      6          1           0       -0.927980    3.595910   -2.250160
      7          1           0       -2.103140    2.551680   -1.419880
      8          1           0       -1.138540    3.717410   -0.487600
      9          7           0       -0.080650    2.009900   -1.137700
     10          1           0       -0.071220    1.438070   -1.988710
     11          1           0        0.816300    2.510110   -1.184210
     12          6           0        1.692870    0.459670    0.250940
     13          6           0        2.322990   -0.061520   -0.888070
     14          6           0        3.687190   -0.362170   -0.871520
     15          6           0        4.437830   -0.136670    0.280370
     16          6           0        3.826770    0.391940    1.415350
     17          6           0        2.462650    0.692290    1.399560
     18          1           0        1.758020   -0.238540   -1.799090
     19          1           0        4.162550   -0.772820   -1.758360
     20          1           0        5.498780   -0.372320    0.293480
     21          1           0        4.410540    0.570440    2.314590
     22          1           0        2.002880    1.104300    2.295360
     23          1           0        0.022550    1.707460    0.912130
     24         35           0       -0.527410   -1.887920   -0.365860
     25          8           0       -3.072990   -0.406190    0.069380
     26          6           0       -4.397910   -0.050490    0.462090
     27          1           0       -5.096960   -0.682320   -0.092810
     28          1           0       -4.543100   -0.231060    1.531820
     29          1           0       -4.604110    0.995120    0.212810
 ---------------------------------------------------------------------
                    Distance matrix (angstroms):
                    1          2          3          4          5
     1  C    0.000000
     2  C    1.497597   0.000000
     3  O    2.415218   1.224808   0.000000
     4  C    1.363778   2.425314   2.846324   0.000000
     5  C    3.534128   3.531406   3.595435   3.050738   0.000000
     6  H    4.468350   4.566114   4.678975   3.928678   1.093749
     7  H    3.419597   3.083063   3.246306   3.367818   1.093330
     8  H    3.923891   3.733734   3.431339   3.291724   1.093463
     9  N    2.613469   3.212592   3.559501   1.875067   1.469972
    10  H    2.787770   3.547176   4.165172   2.371821   2.014530
    11  H    3.366456   4.107105   4.333500   2.306665   2.012442
    12  C    2.503865   3.819058   4.254410   1.503115   4.127929
    13  C    3.260991   4.709619   5.362103   2.552739   4.649268
    14  C    4.569126   6.030120   6.632825   3.828674   5.902581
    15  C    5.180666   6.563323   6.979749   4.311241   6.598752
    16  C    4.750212   5.968325   6.181030   3.790611   6.246019
    17  C    3.510043   4.630072   4.791733   2.495099   5.078488
    18  H    3.217613   4.623960   5.434865   2.790290   4.379562
    19  H    5.329878   6.809641   7.509035   4.705815   6.523382
    20  H    6.246719   7.637023   8.049306   5.398037   7.619519
    21  H    5.604389   6.711546   6.787376   4.650264   7.069637
    22  H    3.651853   4.472989   4.374652   2.692905   5.162802
    23  H    2.098890   2.549389   2.457642   1.103192   2.847537
    24  Br   1.874374   2.900256   4.021893   2.893754   5.045723
    25  O    2.352833   1.361287   2.290380   3.537471   4.191856
    26  C    3.663949   2.339976   2.655408   4.719392   4.841201
    27  H    4.401765   3.255604   3.730799   5.554840   5.577340
    28  H    4.021324   2.640726   2.653696   5.051484   5.526753
    29  H    4.019781   2.643561   2.654805   4.843217   4.318818
                    6          7          8          9         10
     6  H    0.000000
     7  H    1.777859   0.000000
     8  H    1.779246   1.777224   0.000000
     9  N    2.114465   2.112727   2.111244   0.000000
    10  H    2.336379   2.385874   2.930511   1.025328   0.000000
    11  H    2.314676   2.929232   2.400883   1.028053   1.607539
    12  C    4.791697   4.645195   4.378949   2.734393   3.014185
    13  C    5.079458   5.167423   5.140319   3.182857   3.031900
    14  C    6.234328   6.505316   6.330722   4.460290   4.314467
    15  C    7.009112   7.273401   6.821995   5.199553   5.287727
    16  C    6.805074   6.918586   6.271704   4.940019   5.279805
    17  C    5.766094   5.679173   5.067671   3.826507   4.296168
    18  H    4.703304   4.778879   5.075392   2.978863   2.488593
    19  H    6.726155   7.101108   7.062475   5.112093   4.781831
    20  H    7.969956   8.323134   7.835177   6.233241   6.285762
    21  H    7.647889   7.765282   6.967638   5.844753   6.273543
    22  H    5.954814   5.723401   4.943858   4.116687   4.771430
    23  H    3.803923   3.266426   2.710585   2.074590   2.914830
    24  Br   5.812352   4.827415   5.639860   3.998541   3.728802
    25  O    5.098837   3.450724   4.588725   4.030959   4.080153
    26  C    5.717775   3.947033   5.071733   5.044132   5.190614
    27  H    6.351205   4.602481   5.931490   5.788196   5.774821
    28  H    6.482142   4.733876   5.591020   5.662305   5.931091
    29  H    5.132666   3.367997   4.462243   4.828597   5.058655
                   11         12         13         14         15
    11  H    0.000000
    12  C    2.651855   0.000000
    13  C    2.995179   1.402153   0.000000
    14  C    4.073055   2.431594   1.397035   0.000000
    15  C    4.718678   2.809145   2.417322   1.393256   0.000000
    16  C    4.506361   2.431865   2.787961   2.412040   1.393199
    17  C    3.562416   1.402142   2.412672   2.787326   2.416836
    18  H    2.969847   2.166648   1.086501   2.144147   3.393510
    19  H    4.722782   3.414035   2.155767   1.086778   2.153343
    20  H    5.693645   3.896019   3.402690   2.153877   1.086884
    21  H    5.377963   3.414184   3.874825   3.397689   2.153787
    22  H    3.935947   2.165943   3.405266   3.875121   3.395464
    23  H    2.380951   2.187263   3.414972   4.571035   4.826451
    24  Br   4.670966   3.289569   3.425379   4.510705   5.304536
    25  O    5.020246   4.847277   5.491094   6.825486   7.518615
    26  C    6.037794   6.115754   6.855184   8.200275   8.838029
    27  H    6.808040   6.893772   7.488223   8.824408   9.557678
    28  H    6.604090   6.403521   7.282019   8.575016   9.068194
    29  H    5.798940   6.319819   7.093176   8.471344   9.112749
                   16         17         18         19         20
    16  C    0.000000
    17  C    1.396883   0.000000
    18  H    3.874256   3.405042   0.000000
    19  H    3.397330   3.874102   2.463509   0.000000
    20  H    2.153672   3.402189   4.288360   2.481120   0.000000
    21  H    1.086868   2.155552   4.961116   4.295901   2.481521
    22  H    2.146730   1.087933   4.315982   4.961895   4.290600
    23  H    4.056589   2.687424   3.761580   5.515696   5.890442
    24  Br   5.227748   4.326043   3.161929   5.017791   6.248739
    25  O    7.074979   5.798219   5.182465   7.471820   8.574766
    26  C    8.291551   6.964040   6.560775   8.873198   9.903357
    27  H    9.113810   7.827159   7.078071   9.408548  10.607310
    28  H    8.393832   7.067574   7.127351   9.322399  10.118932
    29  H    8.537545   7.172111   6.785747   9.157808  10.195332
                   21         22         23         24         25
    21  H    0.000000
    22  H    2.466212   0.000000
    23  H    4.744909   2.489746   0.000000
    24  Br   6.132838   4.736860   3.855188   0.000000
    25  O    7.873881   5.744652   3.841889   2.977404   0.000000
    26  C    9.022533   6.757554   4.778430   4.363762   1.426940
    27  H    9.887241   7.700850   5.738496   4.733795   2.049148
    28  H    9.023458   6.724287   4.998703   4.740479   2.081015
    29  H    9.266161   6.928294   4.733124   5.026556   2.080522
                   26         27         28         29
    26  C    0.000000
    27  H    1.093524   0.000000
    28  H    1.094535   1.774773   0.000000
    29  H    1.094513   1.774855   1.801951   0.000000
 Stoichiometry    C11H14BrNO2
 Framework group  C1[X(C11H14BrNO2)]
 Deg. of freedom    81
 Full point group                 C1      NOp   1
 Largest Abelian subgroup         C1      NOp   1
 Largest concise Abelian subgroup C1      NOp   1
                         Standard orientation:                         
 ---------------------------------------------------------------------
 Center     Atomic      Atomic             Coordinates (Angstroms)
 Number     Number       Type             X           Y           Z
 ---------------------------------------------------------------------
      1          6           0       -0.742491   -0.121320    0.222480
      2          6           0       -2.097291    0.308039    0.694670
      3          8           0       -2.301692    1.189518    1.520120
      4          6           0        0.235689    0.827081    0.282420
      5          6           0       -1.122494    3.027770   -1.336010
      6          1           0       -0.927984    3.595910   -2.250160
      7          1           0       -2.103143    2.551679   -1.419880
      8          1           0       -1.138544    3.717410   -0.487600
      9          7           0       -0.080653    2.009901   -1.137700
     10          1           0       -0.071222    1.438071   -1.988710
     11          1           0        0.816297    2.510112   -1.184210
     12          6           0        1.692869    0.459672    0.250940
     13          6           0        2.322989   -0.061517   -0.888070
     14          6           0        3.687190   -0.362166   -0.871520
     15          6           0        4.437829   -0.136665    0.280370
     16          6           0        3.826769    0.391945    1.415350
     17          6           0        2.462649    0.692293    1.399560
     18          1           0        1.758020   -0.238538   -1.799090
     19          1           0        4.162550   -0.772815   -1.758360
     20          1           0        5.498780   -0.372314    0.293480
     21          1           0        4.410539    0.570445    2.314590
     22          1           0        2.002878    1.104303    2.295360
     23          1           0        0.022548    1.707461    0.912130
     24         35           0       -0.527409   -1.887920   -0.365860
     25          8           0       -3.072990   -0.406192    0.069380
     26          6           0       -4.397911   -0.050494    0.462090
     27          1           0       -5.096960   -0.682324   -0.092810
     28          1           0       -4.543100   -0.231064    1.531820
     29          1           0       -4.604112    0.995116    0.212810
 ---------------------------------------------------------------------
 Rotational constants (GHZ):           0.6855917           0.3044402           0.2523100
 Standard basis: def2SVP (5D, 7F)
 There are   315 symmetry adapted cartesian basis functions of A   symmetry.
 There are   298 symmetry adapted basis functions of A   symmetry.
   298 basis functions,   528 primitive gaussians,   315 cartesian basis functions
    69 alpha electrons       69 beta electrons
       nuclear repulsion energy      1360.8047526770 Hartrees.
 NAtoms=   29 NActive=   29 NUniq=   29 SFac= 1.00D+00 NAtFMM=   60 NAOKFM=F Big=F
 Integral buffers will be    131072 words long.
 Raffenetti 2 integral format.
 Two-electron integral symmetry is turned on.
 Nuclear repulsion after empirical dispersion term =     1360.7843886899 Hartrees.
 ------------------------------------------------------------------------------
 Polarizable Continuum Model (PCM)
 =================================
 Model                : PCM.
 Atomic radii         : UFF (Universal Force Field).
 Polarization charges : Total charges.
 Charge compensation  : None.
 Solution method      : On-the-fly selection.
 Cavity type          : Scaled VdW (van der Waals Surface) (Alpha=1.100).
 Cavity algorithm     : GePol (No added spheres)
                        Default sphere list used, NSphG=   29.
                        Lebedev-Laikov grids with approx.  5.0 points / Ang**2.
                        Smoothing algorithm: York/Karplus (Gamma=1.0000).
                        Polarization charges: spherical gaussians, with
                                              point-specific exponents (IZeta= 3).
                        Self-potential: point-specific (ISelfS= 7).
                        Self-field    : sphere-specific E.n sum rule (ISelfD= 2).
 1st derivatives      : Analytical E(r).r(x)/FMM algorithm (CHGder, D1EAlg=3).
                        Cavity 1st derivative terms included.
 Solvent              : Toluene, Eps=   2.374100 Eps(inf)=   2.238315
 ------------------------------------------------------------------------------
 One-electron integrals computed using PRISM.
   1 Symmetry operations used in ECPInt.
 ECPInt:  NShTT=    9591 NPrTT=   36310 LenC2=    8963 LenP2D=   24222.
 LDataN:  DoStor=T MaxTD1= 4 Len=   56
 NBasis=   298 RedAO= T EigKep=  2.90D-04  NBF=   298
 NBsUse=   298 1.00D-06 EigRej= -1.00D+00 NBFU=   298
 ExpMin= 1.22D-01 ExpMax= 1.13D+05 ExpMxC= 1.70D+04 IAcc=3 IRadAn=         5 AccDes= 0.00D+00
 Harris functional with IExCor= 4639 and IRadAn=       5 diagonalized for initial guess.
 HarFok:  IExCor= 4639 AccDes= 0.00D+00 IRadAn=         5 IDoV= 1 UseB2=F ITyADJ=14
 ICtDFT=  3500011 ScaDFX=  1.000000  1.000000  1.000000  1.000000
 FoFCou: FMM=F IPFlag=           0 FMFlag=      100000 FMFlg1=           0
         NFxFlg=           0 DoJE=T BraDBF=F KetDBF=T FulRan=T
         wScrn=  0.000000 ICntrl=       500 IOpCl=  0 I1Cent=   200000004 NGrid=           0
         NMat0=    1 NMatS0=      1 NMatT0=    0 NMatD0=    1 NMtDS0=    0 NMtDT0=    0
 Petite list used in FoFCou.
 Requested convergence on RMS density matrix=1.00D-08 within 128 cycles.
 Requested convergence on MAX density matrix=1.00D-06.
 Requested convergence on             energy=1.00D-06.
 No special actions if energy rises.
 Inv3:  Mode=1 IEnd=    16511148.
 Iteration    1 A*A^-1 deviation from unit magnitude is 3.55D-15 for    582.
 Iteration    1 A*A^-1 deviation from orthogonality  is 1.86D-15 for   1646    194.
 Iteration    1 A^-1*A deviation from unit magnitude is 3.33D-15 for    582.
 Iteration    1 A^-1*A deviation from orthogonality  is 2.11D-15 for   2306   1524.
 Error on total polarization charges =  0.00672
 SCF Done:  E(RwB97XD) =  -3205.97423548     A.U. after   15 cycles
            NFock= 15  Conv=0.55D-08     -V/T= 2.0029

 **********************************************************************

            Population analysis using the SCF Density.

 **********************************************************************

 Orbital symmetries:
       Occupied  (A) (A) (A) (A) (A) (A) (A) (A) (A) (A) (A) (A)
                 (A) (A) (A) (A) (A) (A) (A) (A) (A) (A) (A) (A)
                 (A) (A) (A) (A) (A) (A) (A) (A) (A) (A) (A) (A)
                 (A) (A) (A) (A) (A) (A) (A) (A) (A) (A) (A) (A)
                 (A) (A) (A) (A) (A) (A) (A) (A) (A) (A) (A) (A)
                 (A) (A) (A) (A) (A) (A) (A) (A) (A)
       Virtual   (A) (A) (A) (A) (A) (A) (A) (A) (A) (A) (A) (A)
                 (A) (A) (A) (A) (A) (A) (A) (A) (A) (A) (A) (A)
                 (A) (A) (A) (A) (A) (A) (A) (A) (A) (A) (A) (A)
                 (A) (A) (A) (A) (A) (A) (A) (A) (A) (A) (A) (A)
                 (A) (A) (A) (A) (A) (A) (A) (A) (A) (A) (A) (A)
                 (A) (A) (A) (A) (A) (A) (A) (A) (A) (A) (A) (A)
                 (A) (A) (A) (A) (A) (A) (A) (A) (A) (A) (A) (A)
                 (A) (A) (A) (A) (A) (A) (A) (A) (A) (A) (A) (A)
                 (A) (A) (A) (A) (A) (A) (A) (A) (A) (A) (A) (A)
                 (A) (A) (A) (A) (A) (A) (A) (A) (A) (A) (A) (A)
                 (A) (A) (A) (A) (A) (A) (A) (A) (A) (A) (A) (A)
                 (A) (A) (A) (A) (A) (A) (A) (A) (A) (A) (A) (A)
                 (A) (A) (A) (A) (A) (A) (A) (A) (A) (A) (A) (A)
                 (A) (A) (A) (A) (A) (A) (A) (A) (A) (A) (A) (A)
                 (A) (A) (A) (A) (A) (A) (A) (A) (A) (A) (A) (A)
                 (A) (A) (A) (A) (A) (A) (A) (A) (A) (A) (A) (A)
                 (A) (A) (A) (A) (A) (A) (A) (A) (A) (A) (A) (A)
                 (A) (A) (A) (A) (A) (A) (A) (A) (A) (A) (A) (A)
                 (A) (A) (A) (A) (A) (A) (A) (A) (A) (A) (A) (A)
                 (A)
 The electronic state is 1-A.
 Alpha  occ. eigenvalues -- -483.03562 -62.61748 -56.42516 -56.42164 -56.42159
 Alpha  occ. eigenvalues --  -19.28371 -19.22194 -14.49206 -10.40842 -10.34617
 Alpha  occ. eigenvalues --  -10.34442 -10.33945 -10.32197 -10.31102 -10.30957
 Alpha  occ. eigenvalues --  -10.30846 -10.30780 -10.30679 -10.29410  -8.78704
 Alpha  occ. eigenvalues --   -6.61239  -6.59948  -6.59924  -2.71620  -2.71241
 Alpha  occ. eigenvalues --   -2.71221  -2.70192  -2.70191  -1.17356  -1.08191
 Alpha  occ. eigenvalues --   -1.03405  -0.96264  -0.91396  -0.86340  -0.84457
 Alpha  occ. eigenvalues --   -0.81518  -0.80333  -0.78103  -0.71530  -0.70213
 Alpha  occ. eigenvalues --   -0.66956  -0.63598  -0.62451  -0.60292  -0.58658
 Alpha  occ. eigenvalues --   -0.56616  -0.56106  -0.55374  -0.54915  -0.54000
 Alpha  occ. eigenvalues --   -0.52304  -0.51252  -0.50991  -0.49480  -0.48200
 Alpha  occ. eigenvalues --   -0.47215  -0.46831  -0.45365  -0.44276  -0.43406
 Alpha  occ. eigenvalues --   -0.42732  -0.41892  -0.37612  -0.37392  -0.36597
 Alpha  occ. eigenvalues --   -0.34032  -0.33596  -0.32708  -0.24629
 Alpha virt. eigenvalues --    0.03801   0.05325   0.08579   0.10839   0.11983
 Alpha virt. eigenvalues --    0.14280   0.15222   0.16248   0.17326   0.18534
 Alpha virt. eigenvalues --    0.18614   0.19752   0.20461   0.21105   0.22031
 Alpha virt. eigenvalues --    0.22532   0.23004   0.23116   0.24679   0.25333
 Alpha virt. eigenvalues --    0.26277   0.27502   0.31706   0.33228   0.35799
 Alpha virt. eigenvalues --    0.36187   0.36604   0.37161   0.39246   0.39923
 Alpha virt. eigenvalues --    0.40572   0.43572   0.44812   0.47525   0.49001
 Alpha virt. eigenvalues --    0.49456   0.50237   0.50763   0.52461   0.53303
 Alpha virt. eigenvalues --    0.53957   0.55034   0.55533   0.55985   0.56834
 Alpha virt. eigenvalues --    0.57410   0.57951   0.59017   0.60121   0.61289
 Alpha virt. eigenvalues --    0.62621   0.63590   0.64284   0.64684   0.65741
 Alpha virt. eigenvalues --    0.66162   0.68069   0.69299   0.70511   0.71149
 Alpha virt. eigenvalues --    0.72010   0.72359   0.73119   0.73302   0.73724
 Alpha virt. eigenvalues --    0.74140   0.74695   0.74953   0.75673   0.75852
 Alpha virt. eigenvalues --    0.76835   0.77324   0.78117   0.78565   0.80566
 Alpha virt. eigenvalues --    0.81140   0.81677   0.81951   0.82860   0.83315
 Alpha virt. eigenvalues --    0.84722   0.85311   0.86268   0.87403   0.88377
 Alpha virt. eigenvalues --    0.89087   0.91869   0.93758   0.94809   0.96651
 Alpha virt. eigenvalues --    0.97778   0.98087   1.02213   1.04187   1.07109
 Alpha virt. eigenvalues --    1.07562   1.09196   1.12820   1.14078   1.15631
 Alpha virt. eigenvalues --    1.18360   1.21385   1.23060   1.23437   1.26828
 Alpha virt. eigenvalues --    1.27587   1.30575   1.32489   1.34046   1.35234
 Alpha virt. eigenvalues --    1.36474   1.36881   1.38120   1.39532   1.40852
 Alpha virt. eigenvalues --    1.43468   1.47627   1.49200   1.52825   1.56228
 Alpha virt. eigenvalues --    1.59299   1.60009   1.60368   1.61236   1.64025
 Alpha virt. eigenvalues --    1.65460   1.70485   1.71496   1.72366   1.75784
 Alpha virt. eigenvalues --    1.76335   1.78983   1.80819   1.81446   1.82270
 Alpha virt. eigenvalues --    1.82862   1.84112   1.84606   1.85134   1.85285
 Alpha virt. eigenvalues --    1.85886   1.86563   1.87074   1.88132   1.89631
 Alpha virt. eigenvalues --    1.90568   1.92140   1.94830   1.95701   1.97800
 Alpha virt. eigenvalues --    1.98191   2.01067   2.02268   2.03199   2.03418
 Alpha virt. eigenvalues --    2.04420   2.06380   2.07504   2.07936   2.09288
 Alpha virt. eigenvalues --    2.12308   2.13323   2.15881   2.17538   2.18799
 Alpha virt. eigenvalues --    2.20938   2.21539   2.23181   2.24019   2.26472
 Alpha virt. eigenvalues --    2.28453   2.30204   2.34318   2.37019   2.37351
 Alpha virt. eigenvalues --    2.38588   2.39064   2.41101   2.42342   2.42701
 Alpha virt. eigenvalues --    2.43030   2.44632   2.47196   2.51622   2.52639
 Alpha virt. eigenvalues --    2.54438   2.62087   2.64223   2.69584   2.71047
 Alpha virt. eigenvalues --    2.72207   2.72930   2.75479   2.76151   2.77155
 Alpha virt. eigenvalues --    2.78368   2.80474   2.82304   2.82498   2.82931
 Alpha virt. eigenvalues --    2.85024   2.89699   2.93791   2.95809   2.96073
 Alpha virt. eigenvalues --    2.97296   2.99460   3.01519   3.05180   3.05557
 Alpha virt. eigenvalues --    3.06918   3.08519   3.15330   3.19068   3.21403
 Alpha virt. eigenvalues --    3.25483   3.28800   3.30785   3.33953   3.49252
 Alpha virt. eigenvalues --    3.51178   3.57066   3.59107   3.65968   3.71090
 Alpha virt. eigenvalues --    3.73064   3.73903   3.79774   3.96744
          Condensed to atoms (all electrons):
               1          2          3          4          5          6
     1  C    5.657714   0.297228  -0.115092   0.523058   0.000496  -0.001176
     2  C    0.297228   4.477083   0.686142  -0.025878   0.004598   0.000034
     3  O   -0.115092   0.686142   7.781524   0.006134   0.001846   0.000093
     4  C    0.523058  -0.025878   0.006134   4.847298  -0.004816   0.001645
     5  C    0.000496   0.004598   0.001846  -0.004816   4.492175   0.404792
     6  H   -0.001176   0.000034   0.000093   0.001645   0.404792   0.619188
     7  H    0.004348   0.003300  -0.001579  -0.003662   0.402184  -0.024909
     8  H   -0.000097   0.000013   0.000340  -0.001218   0.404849  -0.023096
     9  N   -0.132513  -0.005717   0.000421   0.025537   0.317252  -0.015305
    10  H    0.006129  -0.001652  -0.000062   0.001738  -0.021719  -0.008613
    11  H    0.007775   0.000125  -0.000092  -0.002874  -0.020667  -0.011028
    12  C   -0.053556   0.009761   0.000336   0.337039   0.002319  -0.000095
    13  C   -0.013591  -0.000374  -0.000011  -0.075189  -0.000060  -0.000007
    14  C    0.000099   0.000009   0.000000   0.009083   0.000004  -0.000000
    15  C    0.000072   0.000000   0.000000  -0.000096  -0.000000  -0.000000
    16  C   -0.000539  -0.000009  -0.000001   0.011491   0.000001   0.000000
    17  C    0.003548  -0.000115   0.000020  -0.066031   0.000000  -0.000009
    18  H   -0.001906  -0.000077  -0.000000  -0.012428  -0.000134   0.000020
    19  H   -0.000005  -0.000000  -0.000000  -0.000220  -0.000000   0.000000
    20  H    0.000000   0.000000   0.000000   0.000020   0.000000  -0.000000
    21  H   -0.000002  -0.000000   0.000000  -0.000263  -0.000000   0.000000
    22  H    0.000928  -0.000080  -0.000038  -0.013083  -0.000012   0.000000
    23  H   -0.016547  -0.009750   0.017879   0.386008   0.000544  -0.000555
    24  Br   0.202645  -0.046223   0.001780  -0.072491  -0.000077   0.000007
    25  O   -0.130201   0.374867  -0.074879  -0.000513  -0.000705   0.000002
    26  C    0.012039  -0.034395   0.002464  -0.000234  -0.000096  -0.000002
    27  H    0.000047   0.004922   0.000810   0.000015   0.000001   0.000000
    28  H    0.001582  -0.004922   0.006328  -0.000226  -0.000016  -0.000000
    29  H   -0.000626  -0.004820   0.007449   0.000326   0.000271   0.000001
               7          8          9         10         11         12
     1  C    0.004348  -0.000097  -0.132513   0.006129   0.007775  -0.053556
     2  C    0.003300   0.000013  -0.005717  -0.001652   0.000125   0.009761
     3  O   -0.001579   0.000340   0.000421  -0.000062  -0.000092   0.000336
     4  C   -0.003662  -0.001218   0.025537   0.001738  -0.002874   0.337039
     5  C    0.402184   0.404849   0.317252  -0.021719  -0.020667   0.002319
     6  H   -0.024909  -0.023096  -0.015305  -0.008613  -0.011028  -0.000095
     7  H    0.582407  -0.015733  -0.023614  -0.004999   0.007505   0.000005
     8  H   -0.015733   0.581871  -0.024754   0.007108  -0.004563  -0.000059
     9  N   -0.023614  -0.024754   6.523078   0.325963   0.317816  -0.025615
    10  H   -0.004999   0.007108   0.325963   0.545208  -0.011866  -0.007583
    11  H    0.007505  -0.004563   0.317816  -0.011866   0.558589   0.001866
    12  C    0.000005  -0.000059  -0.025615  -0.007583   0.001866   5.306156
    13  C   -0.000034   0.000049  -0.003402   0.004698   0.001673   0.283531
    14  C   -0.000000   0.000001   0.000066   0.000026  -0.000423   0.070525
    15  C    0.000000  -0.000000  -0.000001   0.000003   0.000047  -0.137646
    16  C   -0.000000   0.000001  -0.000132   0.000023  -0.000186   0.068670
    17  C    0.000012  -0.000027  -0.001353   0.000041   0.001460   0.325532
    18  H   -0.000008  -0.000005   0.001334   0.002021  -0.000106  -0.075957
    19  H    0.000000   0.000000  -0.000001   0.000003   0.000001   0.014188
    20  H    0.000000   0.000000   0.000000  -0.000000  -0.000001  -0.001429
    21  H   -0.000000  -0.000000   0.000001  -0.000000  -0.000001   0.014091
    22  H    0.000000  -0.000002   0.000066  -0.000002   0.000035  -0.066074
    23  H   -0.000133   0.004921  -0.050473   0.004597  -0.000080  -0.032823
    24  Br  -0.000016   0.000003   0.000691   0.001229  -0.000093  -0.009338
    25  O    0.001234  -0.000008   0.000509   0.000022  -0.000010  -0.000056
    26  C    0.000174  -0.000000  -0.000037   0.000003   0.000001   0.000004
    27  H   -0.000011   0.000000   0.000001  -0.000001   0.000000  -0.000000
    28  H    0.000040  -0.000001   0.000006   0.000000  -0.000000  -0.000001
    29  H   -0.000131   0.000021  -0.000046   0.000003   0.000001   0.000003
              13         14         15         16         17         18
     1  C   -0.013591   0.000099   0.000072  -0.000539   0.003548  -0.001906
     2  C   -0.000374   0.000009   0.000000  -0.000009  -0.000115  -0.000077
     3  O   -0.000011   0.000000   0.000000  -0.000001   0.000020  -0.000000
     4  C   -0.075189   0.009083  -0.000096   0.011491  -0.066031  -0.012428
     5  C   -0.000060   0.000004  -0.000000   0.000001   0.000000  -0.000134
     6  H   -0.000007  -0.000000  -0.000000   0.000000  -0.000009   0.000020
     7  H   -0.000034  -0.000000   0.000000  -0.000000   0.000012  -0.000008
     8  H    0.000049   0.000001  -0.000000   0.000001  -0.000027  -0.000005
     9  N   -0.003402   0.000066  -0.000001  -0.000132  -0.001353   0.001334
    10  H    0.004698   0.000026   0.000003   0.000023   0.000041   0.002021
    11  H    0.001673  -0.000423   0.000047  -0.000186   0.001460  -0.000106
    12  C    0.283531   0.070525  -0.137646   0.068670   0.325532  -0.075957
    13  C    5.074348   0.352747   0.059589  -0.118523   0.040352   0.448868
    14  C    0.352747   4.981642   0.320068   0.062062  -0.115757  -0.051452
    15  C    0.059589   0.320068   5.061395   0.311557   0.064800   0.012930
    16  C   -0.118523   0.062062   0.311557   5.015656   0.334346  -0.001586
    17  C    0.040352  -0.115757   0.064800   0.334346   5.034419   0.011585
    18  H    0.448868  -0.051452   0.012930  -0.001586   0.011585   0.657754
    19  H   -0.062874   0.449133  -0.066785   0.012614  -0.001737  -0.011919
    20  H    0.012658  -0.063270   0.447682  -0.063603   0.012418  -0.000216
    21  H   -0.001670   0.012511  -0.066687   0.450455  -0.063903   0.000021
    22  H    0.012684  -0.001732   0.012683  -0.058411   0.451095  -0.000154
    23  H    0.006071  -0.000214  -0.000009   0.000598  -0.006068   0.000039
    24  Br   0.004909  -0.001002  -0.000006  -0.000061   0.001571   0.007471
    25  O   -0.000003  -0.000000   0.000000  -0.000000   0.000000  -0.000000
    26  C    0.000000   0.000000  -0.000000   0.000000  -0.000000  -0.000000
    27  H    0.000000  -0.000000  -0.000000   0.000000  -0.000000   0.000000
    28  H   -0.000000   0.000000  -0.000000  -0.000000   0.000000  -0.000000
    29  H    0.000000  -0.000000   0.000000   0.000000  -0.000000   0.000000
              19         20         21         22         23         24
     1  C   -0.000005   0.000000  -0.000002   0.000928  -0.016547   0.202645
     2  C   -0.000000   0.000000  -0.000000  -0.000080  -0.009750  -0.046223
     3  O   -0.000000   0.000000   0.000000  -0.000038   0.017879   0.001780
     4  C   -0.000220   0.000020  -0.000263  -0.013083   0.386008  -0.072491
     5  C   -0.000000   0.000000  -0.000000  -0.000012   0.000544  -0.000077
     6  H    0.000000  -0.000000   0.000000   0.000000  -0.000555   0.000007
     7  H    0.000000   0.000000  -0.000000   0.000000  -0.000133  -0.000016
     8  H    0.000000   0.000000  -0.000000  -0.000002   0.004921   0.000003
     9  N   -0.000001   0.000000   0.000001   0.000066  -0.050473   0.000691
    10  H    0.000003  -0.000000  -0.000000  -0.000002   0.004597   0.001229
    11  H    0.000001  -0.000001  -0.000001   0.000035  -0.000080  -0.000093
    12  C    0.014188  -0.001429   0.014091  -0.066074  -0.032823  -0.009338
    13  C   -0.062874   0.012658  -0.001670   0.012684   0.006071   0.004909
    14  C    0.449133  -0.063270   0.012511  -0.001732  -0.000214  -0.001002
    15  C   -0.066785   0.447682  -0.066687   0.012683  -0.000009  -0.000006
    16  C    0.012614  -0.063603   0.450455  -0.058411   0.000598  -0.000061
    17  C   -0.001737   0.012418  -0.063903   0.451095  -0.006068   0.001571
    18  H   -0.011919  -0.000216   0.000021  -0.000154   0.000039   0.007471
    19  H    0.650821  -0.011047  -0.000208   0.000020   0.000005  -0.000020
    20  H   -0.011047   0.648763  -0.011043  -0.000206  -0.000001  -0.000000
    21  H   -0.000208  -0.011043   0.647936  -0.011267   0.000005  -0.000000
    22  H    0.000020  -0.000206  -0.011267   0.643486   0.003364   0.000036
    23  H    0.000005  -0.000001   0.000005   0.003364   0.642427   0.004461
    24  Br  -0.000020  -0.000000  -0.000000   0.000036   0.004461  34.986391
    25  O    0.000000   0.000000   0.000000   0.000000   0.001105   0.006189
    26  C   -0.000000   0.000000  -0.000000  -0.000000  -0.000071  -0.000179
    27  H    0.000000  -0.000000   0.000000   0.000000  -0.000002  -0.000036
    28  H    0.000000  -0.000000  -0.000000  -0.000000  -0.000007  -0.000045
    29  H   -0.000000   0.000000   0.000000   0.000000  -0.000014  -0.000018
              25         26         27         28         29
     1  C   -0.130201   0.012039   0.000047   0.001582  -0.000626
     2  C    0.374867  -0.034395   0.004922  -0.004922  -0.004820
     3  O   -0.074879   0.002464   0.000810   0.006328   0.007449
     4  C   -0.000513  -0.000234   0.000015  -0.000226   0.000326
     5  C   -0.000705  -0.000096   0.000001  -0.000016   0.000271
     6  H    0.000002  -0.000002   0.000000  -0.000000   0.000001
     7  H    0.001234   0.000174  -0.000011   0.000040  -0.000131
     8  H   -0.000008  -0.000000   0.000000  -0.000001   0.000021
     9  N    0.000509  -0.000037   0.000001   0.000006  -0.000046
    10  H    0.000022   0.000003  -0.000001   0.000000   0.000003
    11  H   -0.000010   0.000001   0.000000  -0.000000   0.000001
    12  C   -0.000056   0.000004  -0.000000  -0.000001   0.000003
    13  C   -0.000003   0.000000   0.000000  -0.000000   0.000000
    14  C   -0.000000   0.000000  -0.000000   0.000000  -0.000000
    15  C    0.000000  -0.000000  -0.000000  -0.000000   0.000000
    16  C   -0.000000   0.000000   0.000000  -0.000000   0.000000
    17  C    0.000000  -0.000000  -0.000000   0.000000  -0.000000
    18  H   -0.000000  -0.000000   0.000000  -0.000000   0.000000
    19  H    0.000000  -0.000000   0.000000   0.000000  -0.000000
    20  H    0.000000   0.000000  -0.000000  -0.000000   0.000000
    21  H    0.000000  -0.000000   0.000000  -0.000000   0.000000
    22  H    0.000000  -0.000000   0.000000  -0.000000   0.000000
    23  H    0.001105  -0.000071  -0.000002  -0.000007  -0.000014
    24  Br   0.006189  -0.000179  -0.000036  -0.000045  -0.000018
    25  O    7.980898   0.269679  -0.020934  -0.027335  -0.029923
    26  C    0.269679   4.402454   0.396978   0.407161   0.404221
    27  H   -0.020934   0.396978   0.620644  -0.024609  -0.026009
    28  H   -0.027335   0.407161  -0.024609   0.624926  -0.030886
    29  H   -0.029923   0.404221  -0.026009  -0.030886   0.641618
 Mulliken charges:
               1
     1  C   -0.251857
     2  C    0.275930
     3  O   -0.321811
     4  C    0.129828
     5  C    0.016973
     6  H    0.059013
     7  H    0.073622
     8  H    0.070388
     9  N   -0.229779
    10  H    0.157680
    11  H    0.155095
    12  C   -0.023792
    13  C   -0.026437
    14  C   -0.024125
    15  C   -0.019596
    16  C   -0.024423
    17  C   -0.026199
    18  H    0.013906
    19  H    0.028028
    20  H    0.029273
    21  H    0.030024
    22  H    0.026665
    23  H    0.044723
    24  Br  -0.087777
    25  O   -0.349936
    26  C    0.139835
    27  H    0.048186
    28  H    0.048005
    29  H    0.038559
 Sum of Mulliken charges =  -0.00000
 Mulliken charges with hydrogens summed into heavy atoms:
               1
     1  C   -0.251857
     2  C    0.275930
     3  O   -0.321811
     4  C    0.174551
     5  C    0.219997
     9  N    0.082996
    12  C   -0.023792
    13  C   -0.012530
    14  C    0.003902
    15  C    0.009677
    16  C    0.005601
    17  C    0.000466
    24  Br  -0.087777
    25  O   -0.349936
    26  C    0.274585
 Electronic spatial extent (au):  <R**2>=           4488.8132
 Charge=              0.0000 electrons
 Dipole moment (field-independent basis, Debye):
    X=              2.0277    Y=              4.7612    Z=             -4.0584  Tot=              6.5766
 Quadrupole moment (field-independent basis, Debye-Ang):
   XX=            -88.4258   YY=            -95.1742   ZZ=            -96.3146
   XY=              0.0526   XZ=              4.2949   YZ=             -7.9822
 Traceless Quadrupole moment (field-independent basis, Debye-Ang):
   XX=              4.8791   YY=             -1.8694   ZZ=             -3.0097
   XY=              0.0526   XZ=              4.2949   YZ=             -7.9822
 Octapole moment (field-independent basis, Debye-Ang**2):
  XXX=            -56.0975  YYY=            -15.3034  ZZZ=            -26.3731  XYY=            -18.3619
  XXY=            -28.5827  XXZ=             -3.0497  XZZ=              4.6622  YZZ=             -8.6253
  YYZ=            -25.8627  XYZ=             19.4810
 Hexadecapole moment (field-independent basis, Debye-Ang**3):
 XXXX=          -3375.7848 YYYY=          -1077.4297 ZZZZ=           -586.2832 XXXY=             -7.3259
 XXXZ=             18.5854 YYYX=             11.4881 YYYZ=            -26.3614 ZZZX=             20.8965
 ZZZY=             -4.2170 XXYY=           -890.3048 XXZZ=           -727.0874 YYZZ=           -283.2402
 XXYZ=             -1.2291 YYXZ=             12.9028 ZZXY=             25.7829
 N-N= 1.360784388690D+03 E-N=-1.034600649453D+04  KE= 3.196797097174D+03
   1 Symmetry operations used in ECPInt.
 ECPInt:  NShTT=    9591 NPrTT=   36310 LenC2=    8963 LenP2D=   24222.
 LDataN:  DoStor=T MaxTD1= 5 Len=  102
 D1PCM: PCM CHGder 1st derivatives, ID1Alg=3 FixD1E=F DoIter=F DoCFld=F I1PDM=0.
 Calling FoFJK, ICntrl=      2127 FMM=F ISym2X=0 I1Cent= 0 IOpClX= 0 NMat=1 NMatS=1 NMatT=0.
 ***** Axes restored to original set *****
 -------------------------------------------------------------------
 Center     Atomic                   Forces (Hartrees/Bohr)
 Number     Number              X              Y              Z
 -------------------------------------------------------------------
      1        6          -0.043314961    0.001813993    0.027972961
      2        6           0.023102651   -0.015296103   -0.006249836
      3        8          -0.004473453   -0.010040101   -0.019282372
      4        6           0.008846045    0.002235821    0.023346288
      5        6          -0.002393143   -0.005968132    0.009595403
      6        1          -0.001005696    0.003118371   -0.003439158
      7        1          -0.002727040   -0.002255794    0.000850762
      8        1          -0.000372717    0.001156194    0.003176928
      9        7           0.027480496    0.028991454   -0.048449653
     10        1           0.000165233   -0.003985064    0.004312286
     11        1          -0.001314878   -0.002020254   -0.000490392
     12        6          -0.001713074    0.012017698   -0.008113750
     13        6           0.004216265   -0.000118348    0.003872187
     14        6          -0.004646720    0.002209071    0.003680035
     15        6          -0.001618064   -0.000007750   -0.000438583
     16        6          -0.006234690   -0.001269331   -0.003103118
     17        6           0.004989566   -0.001548266   -0.002389197
     18        1          -0.003287380   -0.000940492   -0.002637332
     19        1           0.001212213   -0.001265288   -0.003276923
     20        1           0.003739984   -0.000680501   -0.000063462
     21        1           0.001548866    0.000772243    0.003197642
     22        1          -0.003137213    0.001649378    0.001712030
     23        1           0.000523258   -0.014648632    0.009001641
     24       35           0.003187274   -0.007023811   -0.007995375
     25        8          -0.008081299    0.015597768    0.015963168
     26        6           0.004699951   -0.006335619   -0.003931181
     27        1           0.001886511   -0.003389210   -0.003133581
     28        1          -0.000735499    0.003108514    0.003611436
     29        1          -0.000542487    0.004122191    0.002701145
 -------------------------------------------------------------------
 Cartesian Forces:  Max     0.048449653 RMS     0.010899066

 GradGradGradGradGradGradGradGradGradGradGradGradGradGradGradGradGradGrad
 Berny optimization.
 FormGI is forming the generalized inverse of G from B-inverse, IUseBI=4.
 Internal  Forces:  Max     0.034761303 RMS     0.007096106
 Search for a saddle point.
 Step number   1 out of a maximum of   50
 All quantities printed in internal units (Hartrees-Bohrs-Radians)
 Swapping is turned off.
 Second derivative matrix not updated -- first step.
 ITU=  0
     Eigenvalues ---   -0.03290  -0.00060  -0.00043   0.00054   0.00108
     Eigenvalues ---    0.00267   0.00836   0.01161   0.01185   0.01268
     Eigenvalues ---    0.01390   0.01529   0.01815   0.01906   0.02477
     Eigenvalues ---    0.02566   0.02822   0.02953   0.03044   0.03285
     Eigenvalues ---    0.03466   0.03673   0.03683   0.05383   0.05578
     Eigenvalues ---    0.05659   0.06076   0.06125   0.08844   0.09181
     Eigenvalues ---    0.10545   0.10690   0.10785   0.10881   0.10966
     Eigenvalues ---    0.11019   0.11164   0.11279   0.11804   0.12201
     Eigenvalues ---    0.13773   0.14034   0.14571   0.14672   0.14748
     Eigenvalues ---    0.14852   0.15101   0.15233   0.15871   0.16181
     Eigenvalues ---    0.16378   0.20365   0.22683   0.25980   0.26055
     Eigenvalues ---    0.26130   0.26158   0.26328   0.26529   0.26587
     Eigenvalues ---    0.26689   0.27179   0.27223   0.28094   0.28169
     Eigenvalues ---    0.28183   0.28228   0.29405   0.29934   0.36555
     Eigenvalues ---    0.38141   0.42085   0.52115   0.52559   0.53668
     Eigenvalues ---    0.53907   0.54121   0.55236   0.69824   0.70560
     Eigenvalues ---    0.84145
 Eigenvectors required to have negative eigenvalues:
                          R6        A19       A11       D26       D27
   1                   -0.75830  -0.27474   0.22386  -0.17841  -0.17013
                          D10       A21       D7        D5        D6
   1                    0.16551   0.16179   0.13296  -0.12685  -0.12343
 RFO step:  Lambda0=1.017637355D-04 Lambda=-3.99339173D-02.
 Linear search not attempted -- option 19 set.
 Maximum step size (   0.100) exceeded in Quadratic search.
    -- Step size scaled by   0.205
 Iteration  1 RMS(Cart)=  0.05532332 RMS(Int)=  0.00353273
 Iteration  2 RMS(Cart)=  0.00394127 RMS(Int)=  0.00005409
 Iteration  3 RMS(Cart)=  0.00002106 RMS(Int)=  0.00005235
 Iteration  4 RMS(Cart)=  0.00000000 RMS(Int)=  0.00005235
 Variable       Old X    -DE/DX   Delta X   Delta X   Delta X     New X
                                 (Linear)    (Quad)   (Total)
    R1        2.83005  -0.02110   0.00000  -0.01896  -0.01896   2.81108
    R2        2.57717   0.02911   0.00000   0.00734   0.00734   2.58450
    R3        3.54205   0.00949   0.00000   0.01030   0.01030   3.55236
    R4        2.31455  -0.01947   0.00000  -0.00089  -0.00089   2.31366
    R5        2.57246  -0.01189   0.00000  -0.00294  -0.00294   2.56952
    R6        3.54336   0.03476   0.00000   0.04548   0.04548   3.58885
    R7        2.84048  -0.00727   0.00000  -0.00481  -0.00481   2.83567
    R8        2.08473  -0.00665   0.00000  -0.00613  -0.00613   2.07860
    R9        2.06689   0.00432   0.00000   0.00246   0.00246   2.06935
   R10        2.06609   0.00337   0.00000   0.00249   0.00249   2.06859
   R11        2.06634   0.00319   0.00000   0.00247   0.00247   2.06882
   R12        2.77784   0.00050   0.00000  -0.00381  -0.00381   2.77403
   R13        1.93759  -0.00135   0.00000  -0.00438  -0.00438   1.93321
   R14        1.94274  -0.00211   0.00000  -0.00520  -0.00520   1.93754
   R15        2.64969  -0.00230   0.00000  -0.00052  -0.00052   2.64917
   R16        2.64966  -0.00223   0.00000   0.00020   0.00020   2.64986
   R17        2.64001  -0.00267   0.00000  -0.00108  -0.00108   2.63894
   R18        2.05319   0.00407   0.00000   0.00283   0.00283   2.05602
   R19        2.63287   0.00077   0.00000  -0.00001  -0.00001   2.63286
   R20        2.05371   0.00368   0.00000   0.00259   0.00259   2.05630
   R21        2.63276   0.00149   0.00000   0.00057   0.00057   2.63333
   R22        2.05391   0.00380   0.00000   0.00236   0.00236   2.05627
   R23        2.63973  -0.00313   0.00000  -0.00173  -0.00173   2.63799
   R24        2.05388   0.00360   0.00000   0.00256   0.00256   2.05644
   R25        2.05590   0.00336   0.00000   0.00239   0.00239   2.05829
   R26        2.69653  -0.00576   0.00000  -0.00396  -0.00396   2.69257
   R27        2.06646   0.00234   0.00000   0.00188   0.00188   2.06834
   R28        2.06837   0.00312   0.00000   0.00263   0.00263   2.07100
   R29        2.06833   0.00342   0.00000   0.00190   0.00190   2.07023
    A1        2.02154   0.00684   0.00000   0.00889   0.00888   2.03042
    A2        2.06348   0.00244   0.00000   0.00538   0.00537   2.06885
    A3        2.19805  -0.00926   0.00000  -0.01416  -0.01417   2.18389
    A4        2.17706   0.00026   0.00000  -0.00053  -0.00053   2.17653
    A5        1.93174   0.01691   0.00000   0.01719   0.01719   1.94893
    A6        2.17433  -0.01720   0.00000  -0.01666  -0.01666   2.15767
    A7        1.85916   0.01850   0.00000   0.02441   0.02451   1.88368
    A8        2.12285   0.00523   0.00000   0.01047   0.01063   2.13348
    A9        2.02804  -0.00631   0.00000  -0.01343  -0.01362   2.01442
   A10        1.87746  -0.02564   0.00000  -0.03654  -0.03656   1.84090
   A11        1.46692   0.00998   0.00000   0.01164   0.01176   1.47868
   A12        1.97612  -0.00099   0.00000   0.00215   0.00223   1.97835
   A13        1.89820  -0.00035   0.00000  -0.00029  -0.00029   1.89791
   A14        1.90021  -0.00043   0.00000  -0.00010  -0.00010   1.90011
   A15        1.92452   0.00365   0.00000   0.00595   0.00595   1.93047
   A16        1.89757   0.00025   0.00000  -0.00129  -0.00130   1.89627
   A17        1.92253  -0.00205   0.00000  -0.00222  -0.00223   1.92031
   A18        1.92032  -0.00109   0.00000  -0.00210  -0.00210   1.91821
   A19        2.28969  -0.02613   0.00000  -0.04707  -0.04707   2.24262
   A20        1.84964   0.00418   0.00000   0.01066   0.01057   1.86021
   A21        1.76603   0.00824   0.00000   0.01383   0.01391   1.77995
   A22        1.85535   0.01205   0.00000   0.01502   0.01485   1.87020
   A23        1.84975   0.00787   0.00000   0.01393   0.01396   1.86371
   A24        1.79854  -0.00265   0.00000   0.00285   0.00261   1.80116
   A25        2.14543  -0.00052   0.00000   0.00096   0.00096   2.14639
   A26        2.06521  -0.00086   0.00000  -0.00073  -0.00073   2.06448
   A27        2.07191   0.00141   0.00000  -0.00013  -0.00013   2.07178
   A28        2.10505  -0.00022   0.00000  -0.00002  -0.00002   2.10503
   A29        2.10367  -0.00115   0.00000  -0.00159  -0.00159   2.10208
   A30        2.07446   0.00137   0.00000   0.00161   0.00161   2.07607
   A31        2.09563   0.00013   0.00000   0.00056   0.00056   2.09619
   A32        2.09298  -0.00056   0.00000  -0.00077  -0.00077   2.09221
   A33        2.09458   0.00043   0.00000   0.00021   0.00021   2.09479
   A34        2.09282  -0.00124   0.00000  -0.00093  -0.00093   2.09189
   A35        2.09531   0.00056   0.00000   0.00051   0.00051   2.09582
   A36        2.09506   0.00068   0.00000   0.00041   0.00041   2.09547
   A37        2.09519   0.00024   0.00000   0.00047   0.00047   2.09566
   A38        2.09527   0.00037   0.00000   0.00011   0.00011   2.09538
   A39        2.09273  -0.00061   0.00000  -0.00058  -0.00058   2.09215
   A40        2.10565  -0.00031   0.00000   0.00006   0.00006   2.10571
   A41        2.10056  -0.00192   0.00000  -0.00286  -0.00286   2.09771
   A42        2.07695   0.00223   0.00000   0.00280   0.00280   2.07975
   A43        1.99139   0.00788   0.00000   0.00663   0.00663   1.99802
   A44        1.88586  -0.00613   0.00000  -0.00817  -0.00817   1.87769
   A45        1.92945   0.00227   0.00000   0.01071   0.01072   1.94017
   A46        1.92877   0.00174   0.00000  -0.00531  -0.00531   1.92346
   A47        1.89212   0.00289   0.00000   0.00485   0.00486   1.89698
   A48        1.89228   0.00308   0.00000   0.00542   0.00541   1.89768
   A49        1.93393  -0.00386   0.00000  -0.00741  -0.00740   1.92653
    D1       -0.47259   0.00527   0.00000   0.04483   0.04480  -0.42779
    D2        2.65735   0.00328   0.00000   0.04527   0.04524   2.70259
    D3        2.65347   0.00650   0.00000   0.05200   0.05203   2.70549
    D4       -0.49978   0.00451   0.00000   0.05243   0.05247  -0.44731
    D5       -1.31473  -0.01084   0.00000  -0.01501  -0.01489  -1.32962
    D6        2.81226   0.00378   0.00000   0.00535   0.00528   2.81755
    D7        0.28148   0.00798   0.00000   0.00651   0.00640   0.28788
    D8        1.84377  -0.01232   0.00000  -0.02302  -0.02287   1.82090
    D9       -0.31242   0.00231   0.00000  -0.00267  -0.00270  -0.31512
   D10       -2.84321   0.00651   0.00000  -0.00151  -0.00158  -2.84479
   D11       -3.13684  -0.00052   0.00000   0.00967   0.00967  -3.12717
   D12       -0.00688  -0.00237   0.00000   0.01023   0.01023   0.00336
   D13        1.26088  -0.00287   0.00000  -0.03268  -0.03250   1.22839
   D14       -1.00256  -0.00069   0.00000  -0.02153  -0.02139  -1.02395
   D15       -2.87388  -0.00204   0.00000  -0.03276  -0.03264  -2.90652
   D16       -2.72036  -0.00103   0.00000  -0.02763  -0.02763  -2.74799
   D17        1.29938   0.00114   0.00000  -0.01649  -0.01652   1.28286
   D18       -0.57194  -0.00020   0.00000  -0.02771  -0.02777  -0.59971
   D19       -0.75669   0.00044   0.00000  -0.02256  -0.02264  -0.77933
   D20       -3.02013   0.00262   0.00000  -0.01142  -0.01153  -3.03167
   D21        1.39173   0.00128   0.00000  -0.02264  -0.02278   1.36895
   D22        1.20310   0.00305   0.00000   0.00280   0.00281   1.20591
   D23       -1.97723   0.00402   0.00000   0.00580   0.00580  -1.97143
   D24       -0.94455  -0.00296   0.00000  -0.00537  -0.00536  -0.94991
   D25        2.15831  -0.00199   0.00000  -0.00238  -0.00237   2.15594
   D26       -2.53286  -0.00282   0.00000  -0.00340  -0.00341  -2.53627
   D27        0.56999  -0.00185   0.00000  -0.00041  -0.00042   0.56957
   D28        3.04355   0.00185   0.00000  -0.00397  -0.00398   3.03957
   D29       -0.97818  -0.00315   0.00000  -0.01678  -0.01684  -0.99502
   D30        0.92730   0.00198   0.00000  -0.00182  -0.00175   0.92555
   D31       -1.14445   0.00243   0.00000  -0.00196  -0.00197  -1.14641
   D32        1.11700  -0.00257   0.00000  -0.01477  -0.01482   1.10218
   D33        3.02249   0.00257   0.00000   0.00020   0.00026   3.02275
   D34        0.94729   0.00076   0.00000  -0.00628  -0.00629   0.94100
   D35       -3.07445  -0.00424   0.00000  -0.01909  -0.01915  -3.09359
   D36       -1.16896   0.00090   0.00000  -0.00413  -0.00406  -1.17303
   D37        3.11962   0.00083   0.00000   0.00144   0.00144   3.12106
   D38       -0.02204   0.00038   0.00000  -0.00052  -0.00052  -0.02256
   D39        0.01691  -0.00010   0.00000  -0.00155  -0.00155   0.01535
   D40       -3.12475  -0.00055   0.00000  -0.00352  -0.00351  -3.12826
   D41       -3.12101  -0.00111   0.00000  -0.00266  -0.00266  -3.12367
   D42        0.02761  -0.00080   0.00000  -0.00213  -0.00213   0.02548
   D43       -0.01649  -0.00022   0.00000   0.00023   0.00023  -0.01626
   D44        3.13213   0.00008   0.00000   0.00076   0.00076   3.13288
   D45       -0.00762   0.00025   0.00000   0.00152   0.00152  -0.00610
   D46        3.13344   0.00004   0.00000   0.00073   0.00073   3.13418
   D47        3.13403   0.00069   0.00000   0.00345   0.00345   3.13749
   D48       -0.00809   0.00048   0.00000   0.00266   0.00266  -0.00542
   D49       -0.00241  -0.00006   0.00000  -0.00014  -0.00014  -0.00255
   D50        3.13971  -0.00007   0.00000  -0.00034  -0.00034   3.13937
   D51        3.13971   0.00016   0.00000   0.00065   0.00065   3.14036
   D52       -0.00135   0.00015   0.00000   0.00045   0.00045  -0.00090
   D53        0.00282  -0.00026   0.00000  -0.00118  -0.00118   0.00165
   D54       -3.13967  -0.00000   0.00000  -0.00050  -0.00050  -3.14017
   D55       -3.13930  -0.00025   0.00000  -0.00098  -0.00098  -3.14028
   D56        0.00139   0.00001   0.00000  -0.00030  -0.00030   0.00109
   D57        0.00678   0.00039   0.00000   0.00113   0.00113   0.00792
   D58        3.14144   0.00008   0.00000   0.00059   0.00059  -3.14116
   D59       -3.13391   0.00013   0.00000   0.00046   0.00046  -3.13345
   D60        0.00075  -0.00018   0.00000  -0.00009  -0.00009   0.00066
   D61       -3.13765   0.00003   0.00000   0.11249   0.11251  -3.02514
   D62       -1.06970   0.00114   0.00000   0.11958   0.11958  -0.95012
   D63        1.07779  -0.00101   0.00000   0.11388   0.11386   1.19164
         Item               Value     Threshold  Converged?
 Maximum Force            0.034761     0.000450     NO 
 RMS     Force            0.007096     0.000300     NO 
 Maximum Displacement     0.288491     0.001800     NO 
 RMS     Displacement     0.056372     0.001200     NO 
 Predicted change in Energy=-8.143881D-03
 GradGradGradGradGradGradGradGradGradGradGradGradGradGradGradGradGradGrad

                          Input orientation:                          
 ---------------------------------------------------------------------
 Center     Atomic      Atomic             Coordinates (Angstroms)
 Number     Number       Type             X           Y           Z
 ---------------------------------------------------------------------
      1          6           0       -0.761728   -0.122990    0.216597
      2          6           0       -2.110239    0.300951    0.679882
      3          8           0       -2.321076    1.209214    1.473357
      4          6           0        0.226200    0.820612    0.280682
      5          6           0       -1.089503    3.030839   -1.336661
      6          1           0       -0.898015    3.643445   -2.223895
      7          1           0       -2.057010    2.532728   -1.455291
      8          1           0       -1.137164    3.683735   -0.459176
      9          7           0       -0.028316    2.032147   -1.159499
     10          1           0        0.010226    1.477275   -2.018092
     11          1           0        0.861749    2.540995   -1.169455
     12          6           0        1.682116    0.458819    0.247037
     13          6           0        2.315483   -0.051198   -0.894887
     14          6           0        3.679805   -0.348627   -0.878251
     15          6           0        4.427979   -0.132996    0.277121
     16          6           0        3.812593    0.383204    1.415836
     17          6           0        2.449026    0.681775    1.399617
     18          1           0        1.750059   -0.223270   -1.808360
     19          1           0        4.157834   -0.750529   -1.769332
     20          1           0        5.490610   -0.366815    0.290345
     21          1           0        4.394140    0.554150    2.319609
     22          1           0        1.983302    1.085020    2.297865
     23          1           0        0.007705    1.690400    0.917564
     24         35           0       -0.534588   -1.887263   -0.391263
     25          8           0       -3.094758   -0.437632    0.101883
     26          6           0       -4.415028   -0.068612    0.490337
     27          1           0       -5.103631   -0.802425    0.059853
     28          1           0       -4.524816   -0.081444    1.580674
     29          1           0       -4.663313    0.921861    0.093495
 ---------------------------------------------------------------------
                    Distance matrix (angstroms):
                    1          2          3          4          5
     1  C    0.000000
     2  C    1.487562   0.000000
     3  O    2.405365   1.224336   0.000000
     4  C    1.367660   2.426594   2.839384   0.000000
     5  C    3.530820   3.544099   3.568094   3.038417   0.000000
     6  H    4.490056   4.590606   4.649758   3.937658   1.095051
     7  H    3.394967   3.089113   3.224654   3.340358   1.094650
     8  H    3.884428   3.699670   3.355531   3.256321   1.094771
     9  N    2.660103   3.273341   3.586907   1.899135   1.467955
    10  H    2.854925   3.627557   4.206785   2.400461   2.021711
    11  H    3.413742   4.155786   4.346087   2.338063   2.018735
    12  C    2.512329   3.820240   4.253528   1.500572   4.099422
    13  C    3.272580   4.710724   5.356763   2.550906   4.613898
    14  C    4.580045   6.031114   6.630800   3.825916   5.863210
    15  C    5.190070   6.564969   6.984430   4.308634   6.561765
    16  C    4.755924   5.968947   6.189305   3.787098   6.214238
    17  C    3.515127   4.631408   4.799740   2.492437   5.052376
    18  H    3.227937   4.622559   5.421791   2.788536   4.344519
    19  H    5.342266   6.811241   7.505459   4.704125   6.482322
    20  H    6.257525   7.640062   8.056415   5.396674   7.582156
    21  H    5.609291   6.712656   6.799954   4.647574   7.040784
    22  H    3.650500   4.470985   4.384394   2.688186   5.141801
    23  H    2.090877   2.544160   2.442063   1.099950   2.842916
    24  Br   1.879826   2.901432   4.031937   2.891868   5.038793
    25  O    2.356945   1.359730   2.278514   3.555828   4.256847
    26  C    3.663945   2.341913   2.642689   4.730294   4.899351
    27  H    4.397537   3.249965   3.713125   5.575852   5.723407
    28  H    4.002907   2.605347   2.556126   5.007578   5.477091
    29  H    4.040945   2.692130   2.733617   4.894142   4.389220
                    6          7          8          9         10
     6  H    0.000000
     7  H    1.779807   0.000000
     8  H    1.781305   1.778533   0.000000
     9  N    2.117923   2.110373   2.108966   0.000000
    10  H    2.357870   2.388345   2.935164   1.023011   0.000000
    11  H    2.328950   2.932733   2.409565   1.025300   1.605234
    12  C    4.785856   4.602182   4.341331   2.716483   2.993873
    13  C    5.073778   5.109738   5.104933   3.147021   2.985302
    14  C    6.221240   6.445636   6.295932   4.415580   4.254288
    15  C    6.991623   7.222356   6.788254   5.158516   5.232353
    16  C    6.787241   6.878667   6.237729   4.909576   5.238974
    17  C    5.753608   5.646316   5.032656   3.809173   4.273324
    18  H    4.704939   4.713169   5.041929   2.944579   2.441897
    19  H    6.713810   7.035815   7.029666   5.063500   4.714620
    20  H    7.950982   8.271709   7.803597   6.189960   6.226087
    21  H    7.628504   7.731880   6.936229   5.817798   6.235905
    22  H    5.940861   5.701417   4.908350   4.110598   4.761762
    23  H    3.808343   3.256225   2.679463   2.105297   2.943383
    24  Br   5.837752   4.794397   5.603903   4.025950   3.776706
    25  O    5.185567   3.510662   4.597025   4.134484   4.219252
    26  C    5.789283   4.014061   5.072089   5.135990   5.316470
    27  H    6.532110   4.764536   6.010648   5.939734   5.972137
    28  H    6.442299   4.705426   5.460197   5.674004   5.995608
    29  H    5.191799   3.433139   4.512995   4.928075   5.158415
                   11         12         13         14         15
    11  H    0.000000
    12  C    2.648568   0.000000
    13  C    2.984661   1.401879   0.000000
    14  C    4.046747   2.430845   1.396465   0.000000
    15  C    4.686236   2.809078   2.417216   1.393250   0.000000
    16  C    4.477418   2.431202   2.787380   2.411648   1.393498
    17  C    3.546305   1.402248   2.412433   2.786616   2.416631
    18  H    2.972954   2.166684   1.088001   2.145865   3.395385
    19  H    4.696612   3.414301   2.155916   1.088146   2.154598
    20  H    5.657980   3.897201   3.403795   2.155218   1.088131
    21  H    5.347795   3.414632   3.875596   3.398763   2.155243
    22  H    3.924290   2.165349   3.405144   3.875717   3.397561
    23  H    2.410094   2.184044   3.412328   4.568030   4.824289
    24  Br   4.707952   3.290183   3.427489   4.512834   5.305777
    25  O    5.112970   4.862429   5.514852   6.845676   7.530942
    26  C    6.116317   6.124749   6.871604   8.214485   8.845812
    27  H    6.948051   6.904501   7.517921   8.845039   9.557560
    28  H    6.592077   6.371536   7.274545   8.569335   9.047345
    29  H    5.894315   6.364153   7.115289   8.495060   9.154127
                   16         17         18         19         20
    16  C    0.000000
    17  C    1.395967   0.000000
    18  H    3.875216   3.405698   0.000000
    19  H    3.398506   3.874759   2.465139   0.000000
    20  H    2.155226   3.403125   4.291491   2.483103   0.000000
    21  H    1.088220   2.155491   4.963434   4.298542   2.483613
    22  H    2.148680   1.089199   4.315914   4.963862   4.294086
    23  H    4.053912   2.685097   3.758802   5.513721   5.889633
    24  Br   5.226721   4.325409   3.161748   5.020963   6.251349
    25  O    7.078964   5.802648   5.212219   7.496629   8.587728
    26  C    8.291829   6.964561   6.581506   8.891855   9.912144
    27  H    9.096343   7.812838   7.127321   9.440517  10.605698
    28  H    8.351973   7.017816   7.133002   9.330521  10.102234
    29  H    8.595331   7.235258   6.786731   9.169496  10.237265
                   21         22         23         24         25
    21  H    0.000000
    22  H    2.468691   0.000000
    23  H    4.743164   2.484894   0.000000
    24  Br   6.132021   4.733460   3.847959   0.000000
    25  O    7.873089   5.738248   3.849563   2.983134   0.000000
    26  C    9.018620   6.748085   4.778831   4.375217   1.424846
    27  H    9.856695   7.667840   5.751140   4.717683   2.042159
    28  H    8.972055   6.650608   4.911506   4.803273   2.087764
    29  H    9.334251   7.004524   4.805013   5.017224   2.075731
                   26         27         28         29
    26  C    0.000000
    27  H    1.094519   0.000000
    28  H    1.095925   1.779814   0.000000
    29  H    1.095521   1.779936   1.799306   0.000000
 Stoichiometry    C11H14BrNO2
 Framework group  C1[X(C11H14BrNO2)]
 Deg. of freedom    81
 Full point group                 C1      NOp   1
 Largest Abelian subgroup         C1      NOp   1
 Largest concise Abelian subgroup C1      NOp   1
                         Standard orientation:                         
 ---------------------------------------------------------------------
 Center     Atomic      Atomic             Coordinates (Angstroms)
 Number     Number       Type             X           Y           Z
 ---------------------------------------------------------------------
      1          6           0       -0.758479   -0.117520    0.222567
      2          6           0       -2.105806    0.315696    0.680687
      3          8           0       -2.313488    1.226200    1.472425
      4          6           0        0.235337    0.819712    0.289054
      5          6           0       -1.060337    3.036629   -1.335288
      6          1           0       -0.861787    3.646982   -2.222522
      7          1           0       -2.030645    2.544684   -1.456738
      8          1           0       -1.106799    3.690805   -0.458692
[...]
 Alpha  occ. eigenvalues --   -0.52927  -0.51351  -0.50553  -0.49369  -0.48474
 Alpha  occ. eigenvalues --   -0.48237  -0.45863  -0.45594  -0.44248  -0.43460
 Alpha  occ. eigenvalues --   -0.42703  -0.41098  -0.37329  -0.35795  -0.35682
 Alpha  occ. eigenvalues --   -0.34031  -0.33577  -0.32074  -0.24688
 Alpha virt. eigenvalues --    0.04134   0.05173   0.09775   0.11584   0.12444
 Alpha virt. eigenvalues --    0.14180   0.15559   0.16296   0.17950   0.18385
 Alpha virt. eigenvalues --    0.19306   0.19497   0.20774   0.21697   0.22494
 Alpha virt. eigenvalues --    0.22679   0.22909   0.23869   0.24029   0.24842
 Alpha virt. eigenvalues --    0.26134   0.26734   0.30372   0.34349   0.35986
 Alpha virt. eigenvalues --    0.36287   0.37626   0.37939   0.39455   0.40090
 Alpha virt. eigenvalues --    0.42322   0.43443   0.45540   0.47465   0.48124
 Alpha virt. eigenvalues --    0.49417   0.50454   0.51028   0.52343   0.53850
 Alpha virt. eigenvalues --    0.54702   0.55302   0.55583   0.56055   0.57029
 Alpha virt. eigenvalues --    0.57627   0.57878   0.59640   0.60521   0.61811
 Alpha virt. eigenvalues --    0.62671   0.63003   0.64118   0.65117   0.65744
 Alpha virt. eigenvalues --    0.66545   0.67470   0.69074   0.70275   0.70391
 Alpha virt. eigenvalues --    0.71165   0.72234   0.72848   0.73381   0.73838
 Alpha virt. eigenvalues --    0.74131   0.74338   0.75094   0.75550   0.76123
 Alpha virt. eigenvalues --    0.76274   0.77413   0.77948   0.78493   0.79472
 Alpha virt. eigenvalues --    0.79539   0.81017   0.82269   0.82716   0.83350
 Alpha virt. eigenvalues --    0.84086   0.84998   0.86299   0.87613   0.88150
 Alpha virt. eigenvalues --    0.90179   0.91632   0.93170   0.94980   0.97048
 Alpha virt. eigenvalues --    0.99472   1.01158   1.02927   1.05869   1.08506
 Alpha virt. eigenvalues --    1.09227   1.11009   1.14456   1.15604   1.16554
 Alpha virt. eigenvalues --    1.20025   1.23587   1.23865   1.26259   1.27671
 Alpha virt. eigenvalues --    1.28959   1.32313   1.33562   1.34614   1.36017
 Alpha virt. eigenvalues --    1.36922   1.37751   1.38153   1.39748   1.41504
 Alpha virt. eigenvalues --    1.43192   1.47325   1.50179   1.56518   1.57271
 Alpha virt. eigenvalues --    1.58019   1.61060   1.61890   1.62464   1.62896
 Alpha virt. eigenvalues --    1.66600   1.68460   1.71528   1.72507   1.75625
 Alpha virt. eigenvalues --    1.77320   1.78204   1.81290   1.82397   1.83071
 Alpha virt. eigenvalues --    1.83501   1.83589   1.84093   1.84968   1.85679
 Alpha virt. eigenvalues --    1.86452   1.87826   1.88217   1.88762   1.91108
 Alpha virt. eigenvalues --    1.92337   1.93754   1.95643   1.96524   1.97250
 Alpha virt. eigenvalues --    1.99805   2.01106   2.02096   2.03754   2.04600
 Alpha virt. eigenvalues --    2.05942   2.06272   2.06851   2.07521   2.08824
 Alpha virt. eigenvalues --    2.10215   2.13612   2.14605   2.15743   2.17795
 Alpha virt. eigenvalues --    2.20073   2.20314   2.22132   2.24454   2.26166
 Alpha virt. eigenvalues --    2.28343   2.28933   2.33491   2.36101   2.37156
 Alpha virt. eigenvalues --    2.38383   2.39391   2.41495   2.41882   2.42444
 Alpha virt. eigenvalues --    2.43516   2.46513   2.48750   2.51629   2.52447
 Alpha virt. eigenvalues --    2.56167   2.62362   2.64572   2.68648   2.69951
 Alpha virt. eigenvalues --    2.71473   2.74129   2.75639   2.76171   2.76616
 Alpha virt. eigenvalues --    2.77514   2.79176   2.80184   2.80994   2.81602
 Alpha virt. eigenvalues --    2.86265   2.90738   2.95433   2.95809   2.96705
 Alpha virt. eigenvalues --    2.99853   3.01566   3.03595   3.04621   3.05348
 Alpha virt. eigenvalues --    3.08119   3.10896   3.15917   3.17631   3.21018
 Alpha virt. eigenvalues --    3.24891   3.29327   3.31782   3.33477   3.46885
 Alpha virt. eigenvalues --    3.55289   3.57305   3.60971   3.65709   3.71221
 Alpha virt. eigenvalues --    3.73627   3.76174   3.80207   3.97137
          Condensed to atoms (all electrons):
               1          2          3          4          5          6
     1  C    5.855521   0.278797  -0.147896   0.475640  -0.000534  -0.000493
     2  C    0.278797   4.439119   0.689629  -0.042263   0.005306   0.000082
     3  O   -0.147896   0.689629   7.844288   0.002333  -0.002765   0.000188
     4  C    0.475640  -0.042263   0.002333   4.918337  -0.027176   0.004798
     5  C   -0.000534   0.005306  -0.002765  -0.027176   4.535155   0.399624
     6  H   -0.000493   0.000082   0.000188   0.004798   0.399624   0.589062
     7  H    0.016929   0.000312  -0.001721  -0.016834   0.400929  -0.020682
     8  H   -0.011672   0.003227   0.013185   0.000120   0.401339  -0.017125
     9  N   -0.100168  -0.002656   0.000319   0.114769   0.300023  -0.018055
    10  H   -0.000949  -0.000637  -0.000074  -0.001071  -0.018670  -0.005451
    11  H    0.007814  -0.000040  -0.000184  -0.013841  -0.017198  -0.005010
    12  C   -0.053257   0.010147   0.001710   0.291270   0.006628  -0.000413
    13  C   -0.013392  -0.000341  -0.000006  -0.074194  -0.000015  -0.000027
    14  C   -0.000009   0.000014   0.000000   0.008210   0.000010  -0.000000
    15  C    0.000080   0.000001   0.000000  -0.000203  -0.000000   0.000000
    16  C   -0.000510  -0.000040  -0.000002   0.013668   0.000006  -0.000000
    17  C    0.003898  -0.000285  -0.000143  -0.059257  -0.000076  -0.000001
    18  H   -0.001953   0.000095  -0.000000  -0.010718  -0.000226   0.000008
    19  H    0.000001  -0.000000  -0.000000  -0.000227  -0.000000   0.000000
    20  H    0.000000   0.000000   0.000000   0.000020   0.000000  -0.000000
    21  H   -0.000001   0.000000   0.000000  -0.000297  -0.000000   0.000000
    22  H    0.001214  -0.000011  -0.000117  -0.016090  -0.000019  -0.000000
    23  H   -0.033453  -0.006303   0.032841   0.367712  -0.002303  -0.000146
    24  Br   0.173716  -0.031566   0.001934  -0.066605  -0.001771  -0.000003
    25  O   -0.145757   0.418388  -0.085086   0.003027  -0.000386  -0.000002
    26  C    0.012179  -0.038205   0.002315  -0.000279  -0.000020  -0.000000
    27  H    0.000363   0.004794   0.000933   0.000011  -0.000000  -0.000000
    28  H    0.000282  -0.004478   0.007129  -0.000060  -0.000008  -0.000000
    29  H    0.000627  -0.004955   0.009697   0.000077   0.000050   0.000003
               7          8          9         10         11         12
     1  C    0.016929  -0.011672  -0.100168  -0.000949   0.007814  -0.053257
     2  C    0.000312   0.003227  -0.002656  -0.000637  -0.000040   0.010147
     3  O   -0.001721   0.013185   0.000319  -0.000074  -0.000184   0.001710
     4  C   -0.016834   0.000120   0.114769  -0.001071  -0.013841   0.291270
     5  C    0.400929   0.401339   0.300023  -0.018670  -0.017198   0.006628
     6  H   -0.020682  -0.017125  -0.018055  -0.005451  -0.005010  -0.000413
     7  H    0.550383  -0.014140  -0.014852  -0.004477   0.005747   0.000774
     8  H   -0.014140   0.548382  -0.016059   0.005194  -0.006316   0.000561
     9  N   -0.014852  -0.016059   6.331731   0.341804   0.340607  -0.058182
    10  H   -0.004477   0.005194   0.341804   0.511939  -0.013616  -0.009541
    11  H    0.005747  -0.006316   0.340607  -0.013616   0.513520   0.009351
    12  C    0.000774   0.000561  -0.058182  -0.009541   0.009351   5.324770
    13  C   -0.000078   0.000056  -0.009700   0.009601  -0.001001   0.287816
    14  C    0.000000  -0.000000   0.000088  -0.000365  -0.000248   0.062916
    15  C    0.000000  -0.000000   0.000016  -0.000001   0.000013  -0.134068
    16  C   -0.000000   0.000001  -0.000366   0.000069  -0.000106   0.060300
    17  C    0.000000  -0.000054   0.001428  -0.000085   0.001389   0.354938
    18  H    0.000057   0.000001   0.000469   0.003598  -0.000157  -0.075094
    19  H    0.000000   0.000000   0.000002   0.000013  -0.000000   0.014357
    20  H   -0.000000   0.000000   0.000000  -0.000001  -0.000000  -0.001441
    21  H   -0.000000   0.000000   0.000002   0.000000  -0.000001   0.014209
    22  H    0.000001  -0.000003   0.000323  -0.000021   0.000061  -0.064199
    23  H   -0.000187   0.004406  -0.028258   0.003676  -0.003187  -0.017388
    24  Br   0.003649   0.000139   0.003468   0.002169  -0.000196  -0.013371
    25  O    0.000620   0.000102   0.000035  -0.000001  -0.000001   0.000044
    26  C   -0.000000  -0.000044   0.000001  -0.000000  -0.000000  -0.000001
    27  H   -0.000000  -0.000000  -0.000000   0.000000   0.000000  -0.000000
    28  H    0.000014  -0.000020   0.000002   0.000000  -0.000000  -0.000002
    29  H   -0.000078   0.000117  -0.000009   0.000000   0.000000   0.000001
              13         14         15         16         17         18
     1  C   -0.013392  -0.000009   0.000080  -0.000510   0.003898  -0.001953
     2  C   -0.000341   0.000014   0.000001  -0.000040  -0.000285   0.000095
     3  O   -0.000006   0.000000   0.000000  -0.000002  -0.000143  -0.000000
     4  C   -0.074194   0.008210  -0.000203   0.013668  -0.059257  -0.010718
     5  C   -0.000015   0.000010  -0.000000   0.000006  -0.000076  -0.000226
     6  H   -0.000027  -0.000000   0.000000  -0.000000  -0.000001   0.000008
     7  H   -0.000078   0.000000   0.000000  -0.000000   0.000000   0.000057
     8  H    0.000056  -0.000000  -0.000000   0.000001  -0.000054   0.000001
     9  N   -0.009700   0.000088   0.000016  -0.000366   0.001428   0.000469
    10  H    0.009601  -0.000365  -0.000001   0.000069  -0.000085   0.003598
    11  H   -0.001001  -0.000248   0.000013  -0.000106   0.001389  -0.000157
    12  C    0.287816   0.062916  -0.134068   0.060300   0.354938  -0.075094
    13  C    5.106936   0.363455   0.055053  -0.116392   0.029488   0.436193
    14  C    0.363455   4.965452   0.327140   0.059749  -0.112017  -0.045637
    15  C    0.055053   0.327140   5.056082   0.316825   0.060841   0.012198
    16  C   -0.116392   0.059749   0.316825   5.021345   0.332142  -0.001542
    17  C    0.029488  -0.112017   0.060841   0.332142   5.026836   0.011107
    18  H    0.436193  -0.045637   0.012198  -0.001542   0.011107   0.646827
    19  H   -0.061141   0.447019  -0.066512   0.012368  -0.001668  -0.012017
    20  H    0.012597  -0.062826   0.447004  -0.063102   0.012293  -0.000201
    21  H   -0.001604   0.012204  -0.066291   0.447863  -0.062128   0.000022
    22  H    0.013020  -0.001669   0.012379  -0.057967   0.449054  -0.000160
    23  H    0.007940  -0.000208  -0.000024   0.000599  -0.011493  -0.000063
    24  Br   0.001029  -0.000389  -0.000035   0.000016   0.000133   0.016904
    25  O    0.000002  -0.000000   0.000000  -0.000000  -0.000004   0.000002
    26  C   -0.000000   0.000000  -0.000000   0.000000   0.000000  -0.000000
    27  H    0.000000  -0.000000  -0.000000   0.000000  -0.000000  -0.000000
    28  H   -0.000000   0.000000   0.000000  -0.000000   0.000000   0.000000
    29  H    0.000000  -0.000000  -0.000000   0.000000  -0.000000   0.000000
              19         20         21         22         23         24
     1  C    0.000001   0.000000  -0.000001   0.001214  -0.033453   0.173716
     2  C   -0.000000   0.000000   0.000000  -0.000011  -0.006303  -0.031566
     3  O   -0.000000   0.000000   0.000000  -0.000117   0.032841   0.001934
     4  C   -0.000227   0.000020  -0.000297  -0.016090   0.367712  -0.066605
     5  C   -0.000000   0.000000  -0.000000  -0.000019  -0.002303  -0.001771
     6  H    0.000000  -0.000000   0.000000  -0.000000  -0.000146  -0.000003
     7  H    0.000000  -0.000000  -0.000000   0.000001  -0.000187   0.003649
     8  H    0.000000   0.000000   0.000000  -0.000003   0.004406   0.000139
     9  N    0.000002   0.000000   0.000002   0.000323  -0.028258   0.003468
    10  H    0.000013  -0.000001   0.000000  -0.000021   0.003676   0.002169
    11  H   -0.000000  -0.000000  -0.000001   0.000061  -0.003187  -0.000196
    12  C    0.014357  -0.001441   0.014209  -0.064199  -0.017388  -0.013371
    13  C   -0.061141   0.012597  -0.001604   0.013020   0.007940   0.001029
    14  C    0.447019  -0.062826   0.012204  -0.001669  -0.000208  -0.000389
    15  C   -0.066512   0.447004  -0.066291   0.012379  -0.000024  -0.000035
    16  C    0.012368  -0.063102   0.447863  -0.057967   0.000599   0.000016
    17  C   -0.001668   0.012293  -0.062128   0.449054  -0.011493   0.000133
    18  H   -0.012017  -0.000201   0.000022  -0.000160  -0.000063   0.016904
    19  H    0.647865  -0.010699  -0.000205   0.000020   0.000005  -0.000024
    20  H   -0.010699   0.644079  -0.010679  -0.000198  -0.000001   0.000000
    21  H   -0.000205  -0.010679   0.645335  -0.011099   0.000009   0.000000
    22  H    0.000020  -0.000198  -0.011099   0.643470   0.004133   0.000005
    23  H    0.000005  -0.000001   0.000009   0.004133   0.627071   0.004602
    24  Br  -0.000024   0.000000   0.000000   0.000005   0.004602  35.018507
    25  O   -0.000000   0.000000   0.000000  -0.000001   0.001534   0.007669
    26  C   -0.000000   0.000000  -0.000000   0.000000  -0.000097  -0.000130
    27  H    0.000000  -0.000000   0.000000   0.000000  -0.000003  -0.000066
    28  H    0.000000   0.000000  -0.000000  -0.000000   0.000023  -0.000014
    29  H   -0.000000  -0.000000  -0.000000   0.000000  -0.000058  -0.000040
              25         26         27         28         29
     1  C   -0.145757   0.012179   0.000363   0.000282   0.000627
     2  C    0.418388  -0.038205   0.004794  -0.004478  -0.004955
     3  O   -0.085086   0.002315   0.000933   0.007129   0.009697
     4  C    0.003027  -0.000279   0.000011  -0.000060   0.000077
     5  C   -0.000386  -0.000020  -0.000000  -0.000008   0.000050
     6  H   -0.000002  -0.000000  -0.000000  -0.000000   0.000003
     7  H    0.000620  -0.000000  -0.000000   0.000014  -0.000078
     8  H    0.000102  -0.000044  -0.000000  -0.000020   0.000117
     9  N    0.000035   0.000001  -0.000000   0.000002  -0.000009
    10  H   -0.000001  -0.000000   0.000000   0.000000   0.000000
    11  H   -0.000001  -0.000000   0.000000  -0.000000   0.000000
    12  C    0.000044  -0.000001  -0.000000  -0.000002   0.000001
    13  C    0.000002  -0.000000   0.000000  -0.000000   0.000000
    14  C   -0.000000   0.000000  -0.000000   0.000000  -0.000000
    15  C    0.000000  -0.000000  -0.000000   0.000000  -0.000000
    16  C   -0.000000   0.000000   0.000000  -0.000000   0.000000
    17  C   -0.000004   0.000000  -0.000000   0.000000  -0.000000
    18  H    0.000002  -0.000000  -0.000000   0.000000   0.000000
    19  H   -0.000000  -0.000000   0.000000   0.000000  -0.000000
    20  H    0.000000   0.000000  -0.000000   0.000000  -0.000000
    21  H    0.000000  -0.000000   0.000000  -0.000000  -0.000000
    22  H   -0.000001   0.000000   0.000000  -0.000000   0.000000
    23  H    0.001534  -0.000097  -0.000003   0.000023  -0.000058
    24  Br   0.007669  -0.000130  -0.000066  -0.000014  -0.000040
    25  O    7.947413   0.281219  -0.024190  -0.028858  -0.029951
    26  C    0.281219   4.395399   0.397799   0.404840   0.400711
    27  H   -0.024190   0.397799   0.626700  -0.025447  -0.025512
    28  H   -0.028858   0.404840  -0.025447   0.643624  -0.034759
    29  H   -0.029951   0.400711  -0.025512  -0.034759   0.652023
 Mulliken charges:
               1
     1  C   -0.317017
     2  C    0.281868
     3  O   -0.368508
     4  C    0.129124
     5  C    0.022096
     6  H    0.073644
     7  H    0.093636
     8  H    0.088604
     9  N   -0.186783
    10  H    0.176897
    11  H    0.182600
    12  C   -0.012834
    13  C   -0.045296
    14  C   -0.022888
    15  C   -0.020498
    16  C   -0.024925
    17  C   -0.036336
    18  H    0.020290
    19  H    0.030845
    20  H    0.033155
    21  H    0.032662
    22  H    0.027876
    23  H    0.048621
    24  Br  -0.119730
    25  O   -0.345819
    26  C    0.144312
    27  H    0.044619
    28  H    0.037729
    29  H    0.032056
 Sum of Mulliken charges =  -0.00000
 Mulliken charges with hydrogens summed into heavy atoms:
               1
     1  C   -0.317017
     2  C    0.281868
     3  O   -0.368508
     4  C    0.177745
     5  C    0.277980
     9  N    0.172713
    12  C   -0.012834
    13  C   -0.025006
    14  C    0.007958
    15  C    0.012657
    16  C    0.007737
    17  C   -0.008460
    24  Br  -0.119730
    25  O   -0.345819
    26  C    0.258716
 Electronic spatial extent (au):  <R**2>=           4406.7017
 Charge=             -0.0000 electrons
 Dipole moment (field-independent basis, Debye):
    X=              4.1770    Y=              3.4169    Z=             -5.3058  Tot=              7.5679
 Quadrupole moment (field-independent basis, Debye-Ang):
   XX=            -92.7984   YY=           -100.9196   ZZ=            -88.3347
   XY=              3.0033   XZ=              0.8836   YZ=             -6.9769
 Traceless Quadrupole moment (field-independent basis, Debye-Ang):
   XX=              1.2191   YY=             -6.9020   ZZ=              5.6828
   XY=              3.0033   XZ=              0.8836   YZ=             -6.9769
 Octapole moment (field-independent basis, Debye-Ang**2):
  XXX=            -42.6990  YYY=            -39.6013  ZZZ=            -38.1620  XYY=              6.2770
  XXY=            -29.7492  XXZ=             13.5545  XZZ=            -11.3810  YZZ=              6.6703
  YYZ=            -26.8137  XYZ=             14.7021
 Hexadecapole moment (field-independent basis, Debye-Ang**3):
 XXXX=          -3411.9061 YYYY=           -978.1249 ZZZZ=           -718.4315 XXXY=            -17.1853
 XXXZ=              4.5283 YYYX=             68.8221 YYYZ=            -28.5819 ZZZX=            -14.4492
 ZZZY=            -21.4540 XXYY=           -834.5029 XXZZ=           -714.9082 YYZZ=           -264.4205
 XXYZ=             17.7453 YYXZ=              8.4229 ZZXY=             25.5402
 N-N= 1.371976260879D+03 E-N=-1.036832211288D+04  KE= 3.196657790912D+03
 Unable to Open any file for archive entry.
 1\1\GINC-NODE-007\FTS\RwB97XD\def2SVP\C11H14Br1N1O2\JP2658\01-Jan-2024
 \0\\# wb97xd def2svp geom=allchk scrf=(iefpcm,solvent=toluene) opt=(re
 adfc,ts,noeigen,maxcycles=50,maxstep=10)\\TS-68.out\\0,1\C,-0.88334809
 68,0.1392402381,-0.1445917605\C,-2.1225335019,0.4464747064,0.498488785
 \O,-2.3172708899,1.4368260539,1.2023901005\C,0.2104402212,1.0314099116
 ,0.043238994\C,-1.0375071765,2.8055276752,-1.5237043764\H,-0.961635379
 7,3.5739272028,-2.3038632143\H,-1.6653348586,1.9770658878,-1.874113876
 3\H,-1.4909987225,3.2163568813,-0.614472926\N,0.2848916315,2.266199948
 8,-1.1941236108\H,0.7232624037,1.8522621682,-2.0196067009\H,0.92204962
 67,2.9936259677,-0.8624546375\C,1.6388603532,0.5671807978,0.1331590416
 \C,2.3350251597,0.0101273741,-0.9476376372\C,3.6567115113,-0.407983646
 9,-0.8022244682\C,4.3024853532,-0.282385706,0.4269997265\C,3.619175213
 1,0.2689969143,1.5100791557\C,2.3010392614,0.6952582148,1.360589091\H,
 1.8392416627,-0.1216019843,-1.9120235473\H,4.1821816628,-0.8423166257,
 -1.655457135\H,5.3367648097,-0.6141526024,0.5403901225\H,4.1153230432,
 0.3717609371,2.4775496649\H,1.7708957138,1.1266677371,2.2135333584\H,-
 0.0460531668,1.685430465,0.8861475592\Br,-0.7629796942,-1.334378913,-1
 .3480655365\O,-3.1082793073,-0.4536537981,0.2828952279\C,-4.336454596,
 -0.1998307672,0.9276459771\H,-5.0154080882,-1.0068158623,0.6260660852\
 H,-4.2240595134,-0.2002238863,2.0226323574\H,-4.7568446355,0.772374710
 3,0.62812418\\Version=ES64L-G16RevC.01\State=1-A\HF=-3206.0025455\RMSD
 =6.631e-09\RMSF=1.148e-05\Dipole=1.6448028,2.1331994,-1.2685991\Quadru
 pole=0.8137588,0.7202626,-1.5340214,1.8494317,1.6717953,-6.8442335\PG=
 C01 [X(C11H14Br1N1O2)]\\@
 The archive entry for this job was punched.


 SCIENCE IS LONG AND LIFE IS SHORT.

                     DON MOSER IN THE FEBRUARY 1979 SMITHSONIAN
 Job cpu time:       0 days  5 hours 46 minutes 43.8 seconds.
 Elapsed time:       0 days  0 hours 29 minutes 37.7 seconds.
 File lengths (MBytes):  RWF=    159 Int=      0 D2E=      0 Chk=     14 Scr=      1
 Normal termination of Gaussian 16 at Mon Jan  1 13:05:36 2024.
