Unloading slurm/anatra/current
  ERROR: No such file or directory on
    '/cm/local/modulefiles/slurm/anatra/current'
environment: line 0: unalias: gv: not found
environment: line 0: unalias: sl: not found
 Entering Gaussian System, Link 0=g16
 Initial command:
 /apps/gaussian/g16/C.01/g16/l1.exe "/local/jobs/1153246/Gau-1677741.inp" -scrdir="/local/jobs/1153246/"
 Entering Link 1 = /apps/gaussian/g16/C.01/g16/l1.exe PID=   1677742.
  
 Copyright (c) 1988-2019, Gaussian, Inc.  All Rights Reserved.
  
 This is part of the Gaussian(R) 16 program.  It is based on
 the Gaussian(R) 09 system (copyright 2009, Gaussian, Inc.),
 the Gaussian(R) 03 system (copyright 2003, Gaussian, Inc.),
 the Gaussian(R) 98 system (copyright 1998, Gaussian, Inc.),
 the Gaussian(R) 94 system (copyright 1995, Gaussian, Inc.),
 the Gaussian 92(TM) system (copyright 1992, Gaussian, Inc.),
 the Gaussian 90(TM) system (copyright 1990, Gaussian, Inc.),
 the Gaussian 88(TM) system (copyright 1988, Gaussian, Inc.),
 the Gaussian 86(TM) system (copyright 1986, Carnegie Mellon
 University), and the Gaussian 82(TM) system (copyright 1983,
 Carnegie Mellon University). Gaussian is a federally registered
 trademark of Gaussian, Inc.
  
 This software contains proprietary and confidential information,
 including trade secrets, belonging to Gaussian, Inc.
  
 This software is provided under written license and may be
 used, copied, transmitted, or stored only in accord with that
 written license.
  
 The following legend is applicable only to US Government
 contracts under FAR:
  
                    RESTRICTED RIGHTS LEGEND
  
 Use, reproduction and disclosure by the US Government is
 subject to restrictions as set forth in subparagraphs (a)
 and (c) of the Commercial Computer Software - Restricted
 Rights clause in FAR 52.227-19.
  
 Gaussian, Inc.
 340 Quinnipiac St., Bldg. 40, Wallingford CT 06492
  
  
 ---------------------------------------------------------------
 Warning -- This program may not be used in any manner that
 competes with the business of Gaussian, Inc. or will provide
 assistance to any competitor of Gaussian, Inc.  The licensee
 of this program is prohibited from giving any competitor of
 Gaussian, Inc. access to this program.  By using this program,
 the user acknowledges that Gaussian, Inc. is engaged in the
 business of creating and licensing software in the field of
 computational chemistry and represents and warrants to the
 licensee that it is not a competitor of Gaussian, Inc. and that
 it will not use this program in any manner prohibited above.
 ---------------------------------------------------------------
  

 Cite this work as:
 Gaussian 16, Revision C.01,
 M. J. Frisch, G. W. Trucks, H. B. Schlegel, G. E. Scuseria, 
 M. A. Robb, J. R. Cheeseman, G. Scalmani, V. Barone, 
 G. A. Petersson, H. Nakatsuji, X. Li, M. Caricato, A. V. Marenich, 
 J. Bloino, B. G. Janesko, R. Gomperts, B. Mennucci, H. P. Hratchian, 
 J. V. Ortiz, A. F. Izmaylov, J. L. Sonnenberg, D. Williams-Young, 
 F. Ding, F. Lipparini, F. Egidi, J. Goings, B. Peng, A. Petrone, 
 T. Henderson, D. Ranasinghe, V. G. Zakrzewski, J. Gao, N. Rega, 
 G. Zheng, W. Liang, M. Hada, M. Ehara, K. Toyota, R. Fukuda, 
 J. Hasegawa, M. Ishida, T. Nakajima, Y. Honda, O. Kitao, H. Nakai, 
 T. Vreven, K. Throssell, J. A. Montgomery, Jr., J. E. Peralta, 
 F. Ogliaro, M. J. Bearpark, J. J. Heyd, E. N. Brothers, K. N. Kudin, 
 V. N. Staroverov, T. A. Keith, R. Kobayashi, J. Normand, 
 K. Raghavachari, A. P. Rendell, J. C. Burant, S. S. Iyengar, 
 J. Tomasi, M. Cossi, J. M. Millam, M. Klene, C. Adamo, R. Cammi, 
 J. W. Ochterski, R. L. Martin, K. Morokuma, O. Farkas, 
 J. B. Foresman, and D. J. Fox, Gaussian, Inc., Wallingford CT, 2019.
 
 ******************************************
 Gaussian 16:  ES64L-G16RevC.01  3-Jul-2019
                 1-Jan-2024 
 ******************************************
 %chk=TS-68_hf.chk
 %nprocshared=12
 Will use up to   12 processors via shared memory.
 %mem=48GB
 ----------------------------------------------------------------------
 # wb97xd def2svp geom=allchk scrf=(iefpcm,solvent=toluene) opt=(readfc
 ,ts,noeigen,maxcycles=50,maxstep=10)
 ----------------------------------------------------------------------
 1/5=1,6=50,8=10,10=3,11=1,18=20,26=3,29=7,38=1/1,3;
 2/9=110,12=2,40=1/2;
 3/5=43,7=101,11=2,14=-4,25=1,30=1,70=2201,71=1,72=13,74=-58/1,2,3;
 4//1;
 5/5=2,38=5,53=13/2;
 6/7=2,8=2,9=2,10=2,28=1/1;
 7//1,2,3,16;
 1/5=1,6=50,8=10,11=1,18=20,26=3/3(2);
 2/9=110/2;
 99//99;
 2/9=110/2;
 3/5=43,7=101,11=2,14=-2,25=1,30=1,70=2205,71=1,72=13,74=-58/1,2,3;
 4/5=5,16=3,69=1/1;
 5/5=2,38=5,53=13/2;
 7//1,2,3,16;
 1/5=1,6=50,8=10,11=1,18=20,26=3/3(-5);
 2/9=110/2;
 6/7=2,8=2,9=2,10=2,19=2,28=1/1;
 99/9=1/99;
 Structure from the checkpoint file:  "TS-68_hf.chk"
 ---------
 TS-68.out
 ---------
 Charge =  0 Multiplicity = 1
 Redundant internal coordinates found in file.  (old form).
 C,0,-0.74249,-0.12132,0.22248
 C,0,-2.09729,0.30804,0.69467
 O,0,-2.30169,1.18952,1.52012
 C,0,0.23569,0.82708,0.28242
 C,0,-1.12249,3.02777,-1.33601
 H,0,-0.92798,3.59591,-2.25016
 H,0,-2.10314,2.55168,-1.41988
 H,0,-1.13854,3.71741,-0.4876
 N,0,-0.08065,2.0099,-1.1377
 H,0,-0.07122,1.43807,-1.98871
 H,0,0.8163,2.51011,-1.18421
 C,0,1.69287,0.45967,0.25094
 C,0,2.32299,-0.06152,-0.88807
 C,0,3.68719,-0.36217,-0.87152
 C,0,4.43783,-0.13667,0.28037
 C,0,3.82677,0.39194,1.41535
 C,0,2.46265,0.69229,1.39956
 H,0,1.75802,-0.23854,-1.79909
 H,0,4.16255,-0.77282,-1.75836
 H,0,5.49878,-0.37232,0.29348
 H,0,4.41054,0.57044,2.31459
 H,0,2.00288,1.1043,2.29536
 H,0,0.02255,1.70746,0.91213
 Br,0,-0.52741,-1.88792,-0.36586
 O,0,-3.07299,-0.40619,0.06938
 C,0,-4.39791,-0.05049,0.46209
 H,0,-5.09696,-0.68232,-0.09281
 H,0,-4.5431,-0.23106,1.53182
 H,0,-4.60411,0.99512,0.21281
 Recover connectivity data from disk.

 GradGradGradGradGradGradGradGradGradGradGradGradGradGradGradGradGradGrad
 Berny optimization.
 Initialization pass.
 Force constant matrix read from checkpoint file:
 "TS-68_hf.chk"
                           ----------------------------
                           !    Initial Parameters    !
                           ! (Angstroms and Degrees)  !
 --------------------------                            --------------------------
 ! Name  Definition              Value          Derivative Info.                !
 --------------------------------------------------------------------------------
 ! R1    R(1,2)                  1.4976         D2E/DX2 =    0.3075             !
 ! R2    R(1,4)                  1.3638         D2E/DX2 =    0.556              !
 ! R3    R(1,24)                 1.8744         D2E/DX2 =    0.2456             !
 ! R4    R(2,3)                  1.2248         D2E/DX2 =    0.778              !
 ! R5    R(2,25)                 1.3613         D2E/DX2 =    0.3913             !
 ! R6    R(4,9)                  1.8751         D2E/DX2 =    0.007              !
 ! R7    R(4,12)                 1.5031         D2E/DX2 =    0.3369             !
 ! R8    R(4,23)                 1.1032         D2E/DX2 =    0.3341             !
 ! R9    R(5,6)                  1.0937         D2E/DX2 =    0.354              !
 ! R10   R(5,7)                  1.0933         D2E/DX2 =    0.36               !
 ! R11   R(5,8)                  1.0935         D2E/DX2 =    0.3595             !
 ! R12   R(5,9)                  1.47           D2E/DX2 =    0.3569             !
 ! R13   R(9,10)                 1.0253         D2E/DX2 =    0.4382             !
 ! R14   R(9,11)                 1.0281         D2E/DX2 =    0.4281             !
 ! R15   R(12,13)                1.4022         D2E/DX2 =    0.4043             !
 ! R16   R(12,17)                1.4021         D2E/DX2 =    0.4047             !
 ! R17   R(13,14)                1.397          D2E/DX2 =    0.4154             !
 ! R18   R(13,18)                1.0865         D2E/DX2 =    0.3769             !
 ! R19   R(14,15)                1.3933         D2E/DX2 =    0.4257             !
 ! R20   R(14,19)                1.0868         D2E/DX2 =    0.376              !
 ! R21   R(15,16)                1.3932         D2E/DX2 =    0.4259             !
 ! R22   R(15,20)                1.0869         D2E/DX2 =    0.3757             !
 ! R23   R(16,17)                1.3969         D2E/DX2 =    0.4159             !
 ! R24   R(16,21)                1.0869         D2E/DX2 =    0.3758             !
 ! R25   R(17,22)                1.0879         D2E/DX2 =    0.3734             !
 ! R26   R(25,26)                1.4269         D2E/DX2 =    0.3661             !
 ! R27   R(26,27)                1.0935         D2E/DX2 =    0.3589             !
 ! R28   R(26,28)                1.0945         D2E/DX2 =    0.3561             !
 ! R29   R(26,29)                1.0945         D2E/DX2 =    0.3551             !
 ! A1    A(2,1,4)              115.8255         D2E/DX2 =    0.1958             !
 ! A2    A(2,1,24)             118.2285         D2E/DX2 =    0.1935             !
 ! A3    A(4,1,24)             125.9393         D2E/DX2 =    0.1904             !
 ! A4    A(1,2,3)              124.7361         D2E/DX2 =    0.202              !
 ! A5    A(1,2,25)             110.6804         D2E/DX2 =    0.2316             !
 ! A6    A(3,2,25)             124.5799         D2E/DX2 =    0.2335             !
 ! A7    A(1,4,9)              106.5222         D2E/DX2 =    0.0989             !
 ! A8    A(1,4,12)             121.6302         D2E/DX2 =    0.0708             !
 ! A9    A(1,4,23)             116.1982         D2E/DX2 =    0.0274             !
 ! A10   A(9,4,12)             107.5707         D2E/DX2 =    0.0797             !
 ! A11   A(9,4,23)              84.0482         D2E/DX2 =    0.0317             !
 ! A12   A(12,4,23)            113.2234         D2E/DX2 =    0.0281             !
 ! A13   A(6,5,7)              108.7589         D2E/DX2 =    0.0626             !
 ! A14   A(6,5,8)              108.874          D2E/DX2 =    0.0626             !
 ! A15   A(6,5,9)              110.2671         D2E/DX2 =    0.1415             !
 ! A16   A(7,5,8)              108.7228         D2E/DX2 =    0.0616             !
 ! A17   A(7,5,9)              110.1531         D2E/DX2 =    0.1385             !
 ! A18   A(8,5,9)              110.0261         D2E/DX2 =    0.1403             !
 ! A19   A(4,9,5)              131.1893         D2E/DX2 =    0.0479             !
 ! A20   A(4,9,10)             105.9768         D2E/DX2 =    0.0405             !
 ! A21   A(4,9,11)             101.1863         D2E/DX2 =    0.0388             !
 ! A22   A(5,9,10)             106.3035         D2E/DX2 =    0.0627             !
 ! A23   A(5,9,11)             105.9827         D2E/DX2 =    0.0557             !
 ! A24   A(10,9,11)            103.049          D2E/DX2 =    0.016              !
 ! A25   A(4,12,13)            122.9243         D2E/DX2 =    0.1335             !
 ! A26   A(4,12,17)            118.3279         D2E/DX2 =    0.1321             !
 ! A27   A(13,12,17)           118.7115         D2E/DX2 =    0.0954             !
 ! A28   A(12,13,14)           120.6107         D2E/DX2 =    0.0925             !
 ! A29   A(12,13,18)           120.5314         D2E/DX2 =    0.0951             !
 ! A30   A(14,13,18)           118.8579         D2E/DX2 =    0.0963             !
 ! A31   A(13,14,15)           120.0706         D2E/DX2 =    0.0914             !
 ! A32   A(13,14,19)           119.9189         D2E/DX2 =    0.0933             !
 ! A33   A(15,14,19)           120.0105         D2E/DX2 =    0.0935             !
 ! A34   A(14,15,16)           119.9096         D2E/DX2 =    0.0914             !
 ! A35   A(14,15,20)           120.0524         D2E/DX2 =    0.0936             !
 ! A36   A(16,15,20)           120.038          D2E/DX2 =    0.0936             !
 ! A37   A(15,16,17)           120.0455         D2E/DX2 =    0.0912             !
 ! A38   A(15,16,21)           120.0501         D2E/DX2 =    0.0935             !
 ! A39   A(17,16,21)           119.9044         D2E/DX2 =    0.0933             !
 ! A40   A(12,17,16)           120.6448         D2E/DX2 =    0.0923             !
 ! A41   A(12,17,22)           120.3535         D2E/DX2 =    0.0949             !
 ! A42   A(16,17,22)           119.0005         D2E/DX2 =    0.0957             !
 ! A43   A(2,25,26)            114.0982         D2E/DX2 =    0.3523             !
 ! A44   A(25,26,27)           108.0518         D2E/DX2 =    0.1595             !
 ! A45   A(25,26,28)           110.5495         D2E/DX2 =    0.1606             !
 ! A46   A(25,26,29)           110.5106         D2E/DX2 =    0.1606             !
 ! A47   A(27,26,28)           108.4105         D2E/DX2 =    0.0823             !
 ! A48   A(27,26,29)           108.4194         D2E/DX2 =    0.0825             !
 ! A49   A(28,26,29)           110.806          D2E/DX2 =    0.0816             !
 ! D1    D(4,1,2,3)            -27.0774         D2E/DX2 =    0.0168             !
 ! D2    D(4,1,2,25)           152.2549         D2E/DX2 =    0.0159             !
 ! D3    D(24,1,2,3)           152.0325         D2E/DX2 =    0.0178             !
 ! D4    D(24,1,2,25)          -28.6351         D2E/DX2 =    0.0168             !
 ! D5    D(2,1,4,9)            -75.3285         D2E/DX2 =    0.0182             !
 ! D6    D(2,1,4,12)           161.1309         D2E/DX2 =    0.0149             !
 ! D7    D(2,1,4,23)            16.1275         D2E/DX2 =    0.0143             !
 ! D8    D(24,1,4,9)           105.64           D2E/DX2 =    0.0156             !
 ! D9    D(24,1,4,12)          -17.9006         D2E/DX2 =    0.0122             !
 ! D10   D(24,1,4,23)         -162.9039         D2E/DX2 =    0.0149             !
 ! D11   D(1,2,25,26)         -179.7276         D2E/DX2 =    0.0247             !
 ! D12   D(3,2,25,26)           -0.394          D2E/DX2 =    0.0223             !
 ! D13   D(1,4,9,5)             72.2434         D2E/DX2 =    0.0154             !
 ! D14   D(1,4,9,10)           -57.4423         D2E/DX2 =    0.0176             !
 ! D15   D(1,4,9,11)          -164.6612         D2E/DX2 =    0.0181             !
 ! D16   D(12,4,9,5)          -155.8651         D2E/DX2 =    0.0157             !
 ! D17   D(12,4,9,10)           74.4492         D2E/DX2 =    0.0174             !
 ! D18   D(12,4,9,11)          -32.7697         D2E/DX2 =    0.0186             !
 ! D19   D(23,4,9,5)           -43.3552         D2E/DX2 =    0.0122             !
 ! D20   D(23,4,9,10)         -173.0409         D2E/DX2 =    0.0139             !
 ! D21   D(23,4,9,11)           79.7403         D2E/DX2 =    0.0149             !
 ! D22   D(1,4,12,13)           68.9325         D2E/DX2 =    0.0133             !
 ! D23   D(1,4,12,17)         -113.2871         D2E/DX2 =    0.0122             !
 ! D24   D(9,4,12,13)          -54.1185         D2E/DX2 =    0.0193             !
 ! D25   D(9,4,12,17)          123.6619         D2E/DX2 =    0.0182             !
 ! D26   D(23,4,12,13)        -145.1222         D2E/DX2 =    0.0125             !
 ! D27   D(23,4,12,17)          32.6582         D2E/DX2 =    0.0114             !
 ! D28   D(6,5,9,4)            174.3827         D2E/DX2 =    0.0106             !
 ! D29   D(6,5,9,10)           -56.0457         D2E/DX2 =    0.0141             !
 ! D30   D(6,5,9,11)            53.1305         D2E/DX2 =    0.0146             !
 ! D31   D(7,5,9,4)            -65.572          D2E/DX2 =    0.0107             !
 ! D32   D(7,5,9,10)            63.9996         D2E/DX2 =    0.0141             !
 ! D33   D(7,5,9,11)           173.1758         D2E/DX2 =    0.0144             !
 ! D34   D(8,5,9,4)             54.2755         D2E/DX2 =    0.0105             !
 ! D35   D(8,5,9,10)          -176.1529         D2E/DX2 =    0.0138             !
 ! D36   D(8,5,9,11)           -66.9767         D2E/DX2 =    0.0147             !
 ! D37   D(4,12,13,14)         178.741          D2E/DX2 =    0.0085             !
 ! D38   D(4,12,13,18)          -1.2625         D2E/DX2 =    0.0083             !
 ! D39   D(17,12,13,14)          0.9687         D2E/DX2 =    0.0086             !
 ! D40   D(17,12,13,18)       -179.0348         D2E/DX2 =    0.0086             !
 ! D41   D(4,12,17,16)        -178.8208         D2E/DX2 =    0.0082             !
 ! D42   D(4,12,17,22)           1.582          D2E/DX2 =    0.0087             !
 ! D43   D(13,12,17,16)         -0.9451         D2E/DX2 =    0.0086             !
 ! D44   D(13,12,17,22)        179.4577         D2E/DX2 =    0.0085             !
 ! D45   D(12,13,14,15)         -0.4365         D2E/DX2 =    0.0104             !
 ! D46   D(12,13,14,19)        179.5331         D2E/DX2 =    0.0099             !
 ! D47   D(18,13,14,15)        179.5669         D2E/DX2 =    0.0097             !
 ! D48   D(18,13,14,19)         -0.4634         D2E/DX2 =    0.0106             !
 ! D49   D(13,14,15,16)         -0.1381         D2E/DX2 =    0.0107             !
 ! D50   D(13,14,15,20)        179.8921         D2E/DX2 =    0.01               !
 ! D51   D(19,14,15,16)        179.8923         D2E/DX2 =    0.0099             !
 ! D52   D(19,14,15,20)         -0.0775         D2E/DX2 =    0.0108             !
 ! D53   D(14,15,16,17)          0.1618         D2E/DX2 =    0.0108             !
 ! D54   D(14,15,16,21)       -179.8899         D2E/DX2 =    0.0099             !
 ! D55   D(20,15,16,17)       -179.8684         D2E/DX2 =    0.01               !
 ! D56   D(20,15,16,21)          0.0799         D2E/DX2 =    0.0108             !
 ! D57   D(15,16,17,12)          0.3887         D2E/DX2 =    0.0105             !
 ! D58   D(15,16,17,22)        179.9913         D2E/DX2 =    0.0098             !
 ! D59   D(21,16,17,12)       -179.5596         D2E/DX2 =    0.0099             !
 ! D60   D(21,16,17,22)          0.043          D2E/DX2 =    0.0107             !
 ! D61   D(2,25,26,27)        -179.7742         D2E/DX2 =    0.0308             !
 ! D62   D(2,25,26,28)         -61.2895         D2E/DX2 =    0.0295             !
 ! D63   D(2,25,26,29)          61.7526         D2E/DX2 =    0.0294             !
 --------------------------------------------------------------------------------
 Trust Radius=1.00D-01 FncErr=1.00D-07 GrdErr=1.00D-06 EigMax=2.50D+02 EigMin=1.00D-04
 Number of steps in this run=     50 maximum allowed number of steps=    174.
 Search for a saddle point of order  1.
 GradGradGradGradGradGradGradGradGradGradGradGradGradGradGradGradGradGrad

                          Input orientation:                          
 ---------------------------------------------------------------------
 Center     Atomic      Atomic             Coordinates (Angstroms)
 Number     Number       Type             X           Y           Z
 ---------------------------------------------------------------------
      1          6           0       -0.742490   -0.121320    0.222480
      2          6           0       -2.097290    0.308040    0.694670
      3          8           0       -2.301690    1.189520    1.520120
      4          6           0        0.235690    0.827080    0.282420
      5          6           0       -1.122490    3.027770   -1.336010
      6          1           0       -0.927980    3.595910   -2.250160
      7          1           0       -2.103140    2.551680   -1.419880
      8          1           0       -1.138540    3.717410   -0.487600
      9          7           0       -0.080650    2.009900   -1.137700
     10          1           0       -0.071220    1.438070   -1.988710
     11          1           0        0.816300    2.510110   -1.184210
     12          6           0        1.692870    0.459670    0.250940
     13          6           0        2.322990   -0.061520   -0.888070
     14          6           0        3.687190   -0.362170   -0.871520
     15          6           0        4.437830   -0.136670    0.280370
     16          6           0        3.826770    0.391940    1.415350
     17          6           0        2.462650    0.692290    1.399560
     18          1           0        1.758020   -0.238540   -1.799090
     19          1           0        4.162550   -0.772820   -1.758360
     20          1           0        5.498780   -0.372320    0.293480
     21          1           0        4.410540    0.570440    2.314590
     22          1           0        2.002880    1.104300    2.295360
     23          1           0        0.022550    1.707460    0.912130
     24         35           0       -0.527410   -1.887920   -0.365860
     25          8           0       -3.072990   -0.406190    0.069380
     26          6           0       -4.397910   -0.050490    0.462090
     27          1           0       -5.096960   -0.682320   -0.092810
     28          1           0       -4.543100   -0.231060    1.531820
     29          1           0       -4.604110    0.995120    0.212810
 ---------------------------------------------------------------------
                    Distance matrix (angstroms):
                    1          2          3          4          5
     1  C    0.000000
     2  C    1.497597   0.000000
     3  O    2.415218   1.224808   0.000000
     4  C    1.363778   2.425314   2.846324   0.000000
     5  C    3.534128   3.531406   3.595435   3.050738   0.000000
     6  H    4.468350   4.566114   4.678975   3.928678   1.093749
     7  H    3.419597   3.083063   3.246306   3.367818   1.093330
     8  H    3.923891   3.733734   3.431339   3.291724   1.093463
     9  N    2.613469   3.212592   3.559501   1.875067   1.469972
    10  H    2.787770   3.547176   4.165172   2.371821   2.014530
    11  H    3.366456   4.107105   4.333500   2.306665   2.012442
    12  C    2.503865   3.819058   4.254410   1.503115   4.127929
    13  C    3.260991   4.709619   5.362103   2.552739   4.649268
    14  C    4.569126   6.030120   6.632825   3.828674   5.902581
    15  C    5.180666   6.563323   6.979749   4.311241   6.598752
    16  C    4.750212   5.968325   6.181030   3.790611   6.246019
    17  C    3.510043   4.630072   4.791733   2.495099   5.078488
    18  H    3.217613   4.623960   5.434865   2.790290   4.379562
    19  H    5.329878   6.809641   7.509035   4.705815   6.523382
    20  H    6.246719   7.637023   8.049306   5.398037   7.619519
    21  H    5.604389   6.711546   6.787376   4.650264   7.069637
    22  H    3.651853   4.472989   4.374652   2.692905   5.162802
    23  H    2.098890   2.549389   2.457642   1.103192   2.847537
    24  Br   1.874374   2.900256   4.021893   2.893754   5.045723
    25  O    2.352833   1.361287   2.290380   3.537471   4.191856
    26  C    3.663949   2.339976   2.655408   4.719392   4.841201
    27  H    4.401765   3.255604   3.730799   5.554840   5.577340
    28  H    4.021324   2.640726   2.653696   5.051484   5.526753
    29  H    4.019781   2.643561   2.654805   4.843217   4.318818
                    6          7          8          9         10
     6  H    0.000000
     7  H    1.777859   0.000000
     8  H    1.779246   1.777224   0.000000
     9  N    2.114465   2.112727   2.111244   0.000000
    10  H    2.336379   2.385874   2.930511   1.025328   0.000000
    11  H    2.314676   2.929232   2.400883   1.028053   1.607539
    12  C    4.791697   4.645195   4.378949   2.734393   3.014185
    13  C    5.079458   5.167423   5.140319   3.182857   3.031900
    14  C    6.234328   6.505316   6.330722   4.460290   4.314467
    15  C    7.009112   7.273401   6.821995   5.199553   5.287727
    16  C    6.805074   6.918586   6.271704   4.940019   5.279805
    17  C    5.766094   5.679173   5.067671   3.826507   4.296168
    18  H    4.703304   4.778879   5.075392   2.978863   2.488593
    19  H    6.726155   7.101108   7.062475   5.112093   4.781831
    20  H    7.969956   8.323134   7.835177   6.233241   6.285762
    21  H    7.647889   7.765282   6.967638   5.844753   6.273543
    22  H    5.954814   5.723401   4.943858   4.116687   4.771430
    23  H    3.803923   3.266426   2.710585   2.074590   2.914830
    24  Br   5.812352   4.827415   5.639860   3.998541   3.728802
    25  O    5.098837   3.450724   4.588725   4.030959   4.080153
    26  C    5.717775   3.947033   5.071733   5.044132   5.190614
    27  H    6.351205   4.602481   5.931490   5.788196   5.774821
    28  H    6.482142   4.733876   5.591020   5.662305   5.931091
    29  H    5.132666   3.367997   4.462243   4.828597   5.058655
                   11         12         13         14         15
    11  H    0.000000
    12  C    2.651855   0.000000
    13  C    2.995179   1.402153   0.000000
    14  C    4.073055   2.431594   1.397035   0.000000
    15  C    4.718678   2.809145   2.417322   1.393256   0.000000
    16  C    4.506361   2.431865   2.787961   2.412040   1.393199
    17  C    3.562416   1.402142   2.412672   2.787326   2.416836
    18  H    2.969847   2.166648   1.086501   2.144147   3.393510
    19  H    4.722782   3.414035   2.155767   1.086778   2.153343
    20  H    5.693645   3.896019   3.402690   2.153877   1.086884
    21  H    5.377963   3.414184   3.874825   3.397689   2.153787
    22  H    3.935947   2.165943   3.405266   3.875121   3.395464
    23  H    2.380951   2.187263   3.414972   4.571035   4.826451
    24  Br   4.670966   3.289569   3.425379   4.510705   5.304536
    25  O    5.020246   4.847277   5.491094   6.825486   7.518615
    26  C    6.037794   6.115754   6.855184   8.200275   8.838029
    27  H    6.808040   6.893772   7.488223   8.824408   9.557678
    28  H    6.604090   6.403521   7.282019   8.575016   9.068194
    29  H    5.798940   6.319819   7.093176   8.471344   9.112749
                   16         17         18         19         20
    16  C    0.000000
    17  C    1.396883   0.000000
    18  H    3.874256   3.405042   0.000000
    19  H    3.397330   3.874102   2.463509   0.000000
    20  H    2.153672   3.402189   4.288360   2.481120   0.000000
    21  H    1.086868   2.155552   4.961116   4.295901   2.481521
    22  H    2.146730   1.087933   4.315982   4.961895   4.290600
    23  H    4.056589   2.687424   3.761580   5.515696   5.890442
    24  Br   5.227748   4.326043   3.161929   5.017791   6.248739
    25  O    7.074979   5.798219   5.182465   7.471820   8.574766
    26  C    8.291551   6.964040   6.560775   8.873198   9.903357
    27  H    9.113810   7.827159   7.078071   9.408548  10.607310
    28  H    8.393832   7.067574   7.127351   9.322399  10.118932
    29  H    8.537545   7.172111   6.785747   9.157808  10.195332
                   21         22         23         24         25
    21  H    0.000000
    22  H    2.466212   0.000000
    23  H    4.744909   2.489746   0.000000
    24  Br   6.132838   4.736860   3.855188   0.000000
    25  O    7.873881   5.744652   3.841889   2.977404   0.000000
    26  C    9.022533   6.757554   4.778430   4.363762   1.426940
    27  H    9.887241   7.700850   5.738496   4.733795   2.049148
    28  H    9.023458   6.724287   4.998703   4.740479   2.081015
    29  H    9.266161   6.928294   4.733124   5.026556   2.080522
                   26         27         28         29
    26  C    0.000000
    27  H    1.093524   0.000000
    28  H    1.094535   1.774773   0.000000
    29  H    1.094513   1.774855   1.801951   0.000000
 Stoichiometry    C11H14BrNO2
 Framework group  C1[X(C11H14BrNO2)]
 Deg. of freedom    81
 Full point group                 C1      NOp   1
 Largest Abelian subgroup         C1      NOp   1
 Largest concise Abelian subgroup C1      NOp   1
                         Standard orientation:                         
 ---------------------------------------------------------------------
 Center     Atomic      Atomic             Coordinates (Angstroms)
 Number     Number       Type             X           Y           Z
 ---------------------------------------------------------------------
      1          6           0       -0.742491   -0.121320    0.222480
      2          6           0       -2.097291    0.308039    0.694670
      3          8           0       -2.301692    1.189518    1.520120
      4          6           0        0.235689    0.827081    0.282420
      5          6           0       -1.122494    3.027770   -1.336010
      6          1           0       -0.927984    3.595910   -2.250160
      7          1           0       -2.103143    2.551679   -1.419880
      8          1           0       -1.138544    3.717410   -0.487600
      9          7           0       -0.080653    2.009901   -1.137700
     10          1           0       -0.071222    1.438071   -1.988710
     11          1           0        0.816297    2.510112   -1.184210
     12          6           0        1.692869    0.459672    0.250940
     13          6           0        2.322989   -0.061517   -0.888070
     14          6           0        3.687190   -0.362166   -0.871520
     15          6           0        4.437829   -0.136665    0.280370
     16          6           0        3.826769    0.391945    1.415350
     17          6           0        2.462649    0.692293    1.399560
     18          1           0        1.758020   -0.238538   -1.799090
     19          1           0        4.162550   -0.772815   -1.758360
     20          1           0        5.498780   -0.372314    0.293480
     21          1           0        4.410539    0.570445    2.314590
     22          1           0        2.002878    1.104303    2.295360
     23          1           0        0.022548    1.707461    0.912130
     24         35           0       -0.527409   -1.887920   -0.365860
     25          8           0       -3.072990   -0.406192    0.069380
     26          6           0       -4.397911   -0.050494    0.462090
     27          1           0       -5.096960   -0.682324   -0.092810
     28          1           0       -4.543100   -0.231064    1.531820
     29          1           0       -4.604112    0.995116    0.212810
 ---------------------------------------------------------------------
 Rotational constants (GHZ):           0.6855917           0.3044402           0.2523100
 Standard basis: def2SVP (5D, 7F)
 There are   315 symmetry adapted cartesian basis functions of A   symmetry.
 There are   298 symmetry adapted basis functions of A   symmetry.
   298 basis functions,   528 primitive gaussians,   315 cartesian basis functions
    69 alpha electrons       69 beta electrons
       nuclear repulsion energy      1360.8047526770 Hartrees.
 NAtoms=   29 NActive=   29 NUniq=   29 SFac= 1.00D+00 NAtFMM=   60 NAOKFM=F Big=F
 Integral buffers will be    131072 words long.
 Raffenetti 2 integral format.
 Two-electron integral symmetry is turned on.
 Nuclear repulsion after empirical dispersion term =     1360.7843886899 Hartrees.
 ------------------------------------------------------------------------------
 Polarizable Continuum Model (PCM)
 =================================
 Model                : PCM.
 Atomic radii         : UFF (Universal Force Field).
 Polarization charges : Total charges.
 Charge compensation  : None.
 Solution method      : On-the-fly selection.
 Cavity type          : Scaled VdW (van der Waals Surface) (Alpha=1.100).
 Cavity algorithm     : GePol (No added spheres)
                        Default sphere list used, NSphG=   29.
                        Lebedev-Laikov grids with approx.  5.0 points / Ang**2.
                        Smoothing algorithm: York/Karplus (Gamma=1.0000).
                        Polarization charges: spherical gaussians, with
                                              point-specific exponents (IZeta= 3).
                        Self-potential: point-specific (ISelfS= 7).
                        Self-field    : sphere-specific E.n sum rule (ISelfD= 2).
 1st derivatives      : Analytical E(r).r(x)/FMM algorithm (CHGder, D1EAlg=3).
                        Cavity 1st derivative terms included.
 Solvent              : Toluene, Eps=   2.374100 Eps(inf)=   2.238315
 ------------------------------------------------------------------------------
 One-electron integrals computed using PRISM.
   1 Symmetry operations used in ECPInt.
 ECPInt:  NShTT=    9591 NPrTT=   36310 LenC2=    8963 LenP2D=   24222.
 LDataN:  DoStor=T MaxTD1= 4 Len=   56
 NBasis=   298 RedAO= T EigKep=  2.90D-04  NBF=   298
 NBsUse=   298 1.00D-06 EigRej= -1.00D+00 NBFU=   298
 ExpMin= 1.22D-01 ExpMax= 1.13D+05 ExpMxC= 1.70D+04 IAcc=3 IRadAn=         5 AccDes= 0.00D+00
 Harris functional with IExCor= 4639 and IRadAn=       5 diagonalized for initial guess.
 HarFok:  IExCor= 4639 AccDes= 0.00D+00 IRadAn=         5 IDoV= 1 UseB2=F ITyADJ=14
 ICtDFT=  3500011 ScaDFX=  1.000000  1.000000  1.000000  1.000000
 FoFCou: FMM=F IPFlag=           0 FMFlag=      100000 FMFlg1=           0
         NFxFlg=           0 DoJE=T BraDBF=F KetDBF=T FulRan=T
         wScrn=  0.000000 ICntrl=       500 IOpCl=  0 I1Cent=   200000004 NGrid=           0
         NMat0=    1 NMatS0=      1 NMatT0=    0 NMatD0=    1 NMtDS0=    0 NMtDT0=    0
 Petite list used in FoFCou.
 Requested convergence on RMS density matrix=1.00D-08 within 128 cycles.
 Requested convergence on MAX density matrix=1.00D-06.
 Requested convergence on             energy=1.00D-06.
 No special actions if energy rises.
 Inv3:  Mode=1 IEnd=    16511148.
 Iteration    1 A*A^-1 deviation from unit magnitude is 3.55D-15 for    582.
 Iteration    1 A*A^-1 deviation from orthogonality  is 2.07D-15 for   1646    194.
 Iteration    1 A^-1*A deviation from unit magnitude is 3.22D-15 for   1115.
 Iteration    1 A^-1*A deviation from orthogonality  is 2.11D-15 for   2306   1524.
 Error on total polarization charges =  0.00672
 SCF Done:  E(RwB97XD) =  -3205.97423548     A.U. after   15 cycles
            NFock= 15  Conv=0.55D-08     -V/T= 2.0029

 **********************************************************************

            Population analysis using the SCF Density.

 **********************************************************************

 Orbital symmetries:
       Occupied  (A) (A) (A) (A) (A) (A) (A) (A) (A) (A) (A) (A)
                 (A) (A) (A) (A) (A) (A) (A) (A) (A) (A) (A) (A)
                 (A) (A) (A) (A) (A) (A) (A) (A) (A) (A) (A) (A)
                 (A) (A) (A) (A) (A) (A) (A) (A) (A) (A) (A) (A)
                 (A) (A) (A) (A) (A) (A) (A) (A) (A) (A) (A) (A)
                 (A) (A) (A) (A) (A) (A) (A) (A) (A)
       Virtual   (A) (A) (A) (A) (A) (A) (A) (A) (A) (A) (A) (A)
                 (A) (A) (A) (A) (A) (A) (A) (A) (A) (A) (A) (A)
                 (A) (A) (A) (A) (A) (A) (A) (A) (A) (A) (A) (A)
                 (A) (A) (A) (A) (A) (A) (A) (A) (A) (A) (A) (A)
                 (A) (A) (A) (A) (A) (A) (A) (A) (A) (A) (A) (A)
                 (A) (A) (A) (A) (A) (A) (A) (A) (A) (A) (A) (A)
                 (A) (A) (A) (A) (A) (A) (A) (A) (A) (A) (A) (A)
                 (A) (A) (A) (A) (A) (A) (A) (A) (A) (A) (A) (A)
                 (A) (A) (A) (A) (A) (A) (A) (A) (A) (A) (A) (A)
                 (A) (A) (A) (A) (A) (A) (A) (A) (A) (A) (A) (A)
                 (A) (A) (A) (A) (A) (A) (A) (A) (A) (A) (A) (A)
                 (A) (A) (A) (A) (A) (A) (A) (A) (A) (A) (A) (A)
                 (A) (A) (A) (A) (A) (A) (A) (A) (A) (A) (A) (A)
                 (A) (A) (A) (A) (A) (A) (A) (A) (A) (A) (A) (A)
                 (A) (A) (A) (A) (A) (A) (A) (A) (A) (A) (A) (A)
                 (A) (A) (A) (A) (A) (A) (A) (A) (A) (A) (A) (A)
                 (A) (A) (A) (A) (A) (A) (A) (A) (A) (A) (A) (A)
                 (A) (A) (A) (A) (A) (A) (A) (A) (A) (A) (A) (A)
                 (A) (A) (A) (A) (A) (A) (A) (A) (A) (A) (A) (A)
                 (A)
 The electronic state is 1-A.
 Alpha  occ. eigenvalues -- -483.03562 -62.61748 -56.42516 -56.42164 -56.42159
 Alpha  occ. eigenvalues --  -19.28371 -19.22194 -14.49206 -10.40842 -10.34617
 Alpha  occ. eigenvalues --  -10.34442 -10.33945 -10.32197 -10.31102 -10.30957
 Alpha  occ. eigenvalues --  -10.30846 -10.30780 -10.30679 -10.29410  -8.78704
 Alpha  occ. eigenvalues --   -6.61239  -6.59948  -6.59924  -2.71620  -2.71241
 Alpha  occ. eigenvalues --   -2.71221  -2.70192  -2.70191  -1.17356  -1.08191
 Alpha  occ. eigenvalues --   -1.03405  -0.96264  -0.91396  -0.86340  -0.84457
 Alpha  occ. eigenvalues --   -0.81518  -0.80333  -0.78103  -0.71530  -0.70213
 Alpha  occ. eigenvalues --   -0.66956  -0.63598  -0.62451  -0.60292  -0.58658
 Alpha  occ. eigenvalues --   -0.56616  -0.56106  -0.55374  -0.54915  -0.54000
 Alpha  occ. eigenvalues --   -0.52304  -0.51252  -0.50991  -0.49480  -0.48200
 Alpha  occ. eigenvalues --   -0.47215  -0.46831  -0.45365  -0.44276  -0.43406
 Alpha  occ. eigenvalues --   -0.42732  -0.41892  -0.37612  -0.37392  -0.36597
 Alpha  occ. eigenvalues --   -0.34032  -0.33596  -0.32708  -0.24629
 Alpha virt. eigenvalues --    0.03801   0.05325   0.08579   0.10839   0.11983
 Alpha virt. eigenvalues --    0.14280   0.15222   0.16248   0.17326   0.18534
 Alpha virt. eigenvalues --    0.18614   0.19752   0.20461   0.21105   0.22031
 Alpha virt. eigenvalues --    0.22532   0.23004   0.23116   0.24679   0.25333
 Alpha virt. eigenvalues --    0.26277   0.27502   0.31706   0.33228   0.35799
 Alpha virt. eigenvalues --    0.36187   0.36604   0.37161   0.39246   0.39923
 Alpha virt. eigenvalues --    0.40572   0.43572   0.44812   0.47525   0.49001
 Alpha virt. eigenvalues --    0.49456   0.50237   0.50763   0.52461   0.53303
 Alpha virt. eigenvalues --    0.53957   0.55034   0.55533   0.55985   0.56834
 Alpha virt. eigenvalues --    0.57410   0.57951   0.59017   0.60121   0.61289
 Alpha virt. eigenvalues --    0.62621   0.63590   0.64284   0.64684   0.65741
 Alpha virt. eigenvalues --    0.66162   0.68069   0.69299   0.70511   0.71149
 Alpha virt. eigenvalues --    0.72010   0.72359   0.73119   0.73302   0.73724
 Alpha virt. eigenvalues --    0.74140   0.74695   0.74953   0.75673   0.75852
 Alpha virt. eigenvalues --    0.76835   0.77324   0.78117   0.78565   0.80566
 Alpha virt. eigenvalues --    0.81140   0.81677   0.81951   0.82860   0.83315
 Alpha virt. eigenvalues --    0.84722   0.85311   0.86268   0.87403   0.88377
 Alpha virt. eigenvalues --    0.89087   0.91869   0.93758   0.94809   0.96651
 Alpha virt. eigenvalues --    0.97778   0.98087   1.02213   1.04187   1.07109
 Alpha virt. eigenvalues --    1.07562   1.09196   1.12820   1.14078   1.15631
 Alpha virt. eigenvalues --    1.18360   1.21385   1.23060   1.23437   1.26828
 Alpha virt. eigenvalues --    1.27587   1.30575   1.32489   1.34046   1.35234
 Alpha virt. eigenvalues --    1.36474   1.36881   1.38120   1.39532   1.40852
 Alpha virt. eigenvalues --    1.43468   1.47627   1.49200   1.52825   1.56228
 Alpha virt. eigenvalues --    1.59299   1.60009   1.60368   1.61236   1.64025
 Alpha virt. eigenvalues --    1.65460   1.70485   1.71496   1.72366   1.75784
 Alpha virt. eigenvalues --    1.76335   1.78983   1.80819   1.81446   1.82270
 Alpha virt. eigenvalues --    1.82862   1.84112   1.84606   1.85134   1.85285
 Alpha virt. eigenvalues --    1.85886   1.86563   1.87074   1.88132   1.89631
 Alpha virt. eigenvalues --    1.90568   1.92140   1.94830   1.95701   1.97800
 Alpha virt. eigenvalues --    1.98191   2.01067   2.02268   2.03199   2.03418
 Alpha virt. eigenvalues --    2.04420   2.06380   2.07504   2.07936   2.09288
 Alpha virt. eigenvalues --    2.12308   2.13323   2.15881   2.17538   2.18799
 Alpha virt. eigenvalues --    2.20938   2.21539   2.23181   2.24019   2.26472
 Alpha virt. eigenvalues --    2.28453   2.30204   2.34318   2.37019   2.37351
 Alpha virt. eigenvalues --    2.38588   2.39064   2.41101   2.42342   2.42701
 Alpha virt. eigenvalues --    2.43030   2.44632   2.47196   2.51622   2.52639
 Alpha virt. eigenvalues --    2.54438   2.62087   2.64223   2.69584   2.71047
 Alpha virt. eigenvalues --    2.72207   2.72930   2.75479   2.76151   2.77155
 Alpha virt. eigenvalues --    2.78368   2.80474   2.82304   2.82498   2.82931
 Alpha virt. eigenvalues --    2.85024   2.89699   2.93791   2.95809   2.96073
 Alpha virt. eigenvalues --    2.97296   2.99460   3.01519   3.05180   3.05557
 Alpha virt. eigenvalues --    3.06918   3.08519   3.15330   3.19068   3.21403
 Alpha virt. eigenvalues --    3.25483   3.28800   3.30785   3.33953   3.49252
 Alpha virt. eigenvalues --    3.51178   3.57066   3.59107   3.65968   3.71090
 Alpha virt. eigenvalues --    3.73064   3.73903   3.79774   3.96744
          Condensed to atoms (all electrons):
               1          2          3          4          5          6
     1  C    5.657714   0.297228  -0.115092   0.523058   0.000496  -0.001176
     2  C    0.297228   4.477083   0.686142  -0.025878   0.004598   0.000034
     3  O   -0.115092   0.686142   7.781524   0.006134   0.001846   0.000093
     4  C    0.523058  -0.025878   0.006134   4.847298  -0.004816   0.001645
     5  C    0.000496   0.004598   0.001846  -0.004816   4.492175   0.404792
     6  H   -0.001176   0.000034   0.000093   0.001645   0.404792   0.619188
     7  H    0.004348   0.003300  -0.001579  -0.003662   0.402184  -0.024909
     8  H   -0.000097   0.000013   0.000340  -0.001218   0.404849  -0.023096
     9  N   -0.132513  -0.005717   0.000421   0.025537   0.317252  -0.015305
    10  H    0.006129  -0.001652  -0.000062   0.001738  -0.021719  -0.008613
    11  H    0.007775   0.000125  -0.000092  -0.002874  -0.020667  -0.011028
    12  C   -0.053556   0.009761   0.000336   0.337039   0.002319  -0.000095
    13  C   -0.013591  -0.000374  -0.000011  -0.075189  -0.000060  -0.000007
    14  C    0.000099   0.000009   0.000000   0.009083   0.000004  -0.000000
    15  C    0.000072   0.000000   0.000000  -0.000096  -0.000000  -0.000000
    16  C   -0.000539  -0.000009  -0.000001   0.011491   0.000001   0.000000
    17  C    0.003548  -0.000115   0.000020  -0.066031   0.000000  -0.000009
    18  H   -0.001906  -0.000077  -0.000000  -0.012428  -0.000134   0.000020
    19  H   -0.000005  -0.000000  -0.000000  -0.000220  -0.000000   0.000000
    20  H    0.000000   0.000000   0.000000   0.000020   0.000000  -0.000000
    21  H   -0.000002  -0.000000   0.000000  -0.000263  -0.000000   0.000000
    22  H    0.000928  -0.000080  -0.000038  -0.013083  -0.000012   0.000000
    23  H   -0.016547  -0.009750   0.017879   0.386008   0.000544  -0.000555
    24  Br   0.202645  -0.046223   0.001780  -0.072491  -0.000077   0.000007
    25  O   -0.130201   0.374867  -0.074879  -0.000513  -0.000705   0.000002
    26  C    0.012039  -0.034395   0.002464  -0.000234  -0.000096  -0.000002
    27  H    0.000047   0.004922   0.000810   0.000015   0.000001   0.000000
    28  H    0.001582  -0.004922   0.006328  -0.000226  -0.000016  -0.000000
    29  H   -0.000626  -0.004820   0.007449   0.000326   0.000271   0.000001
               7          8          9         10         11         12
     1  C    0.004348  -0.000097  -0.132513   0.006129   0.007775  -0.053556
     2  C    0.003300   0.000013  -0.005717  -0.001652   0.000125   0.009761
     3  O   -0.001579   0.000340   0.000421  -0.000062  -0.000092   0.000336
     4  C   -0.003662  -0.001218   0.025537   0.001738  -0.002874   0.337039
     5  C    0.402184   0.404849   0.317252  -0.021719  -0.020667   0.002319
     6  H   -0.024909  -0.023096  -0.015305  -0.008613  -0.011028  -0.000095
     7  H    0.582407  -0.015733  -0.023614  -0.004999   0.007505   0.000005
     8  H   -0.015733   0.581871  -0.024754   0.007108  -0.004563  -0.000059
     9  N   -0.023614  -0.024754   6.523078   0.325963   0.317816  -0.025615
    10  H   -0.004999   0.007108   0.325963   0.545208  -0.011866  -0.007583
    11  H    0.007505  -0.004563   0.317816  -0.011866   0.558589   0.001866
    12  C    0.000005  -0.000059  -0.025615  -0.007583   0.001866   5.306156
    13  C   -0.000034   0.000049  -0.003402   0.004698   0.001673   0.283531
    14  C   -0.000000   0.000001   0.000066   0.000026  -0.000423   0.070525
    15  C    0.000000  -0.000000  -0.000001   0.000003   0.000047  -0.137646
    16  C   -0.000000   0.000001  -0.000132   0.000023  -0.000186   0.068670
    17  C    0.000012  -0.000027  -0.001353   0.000041   0.001460   0.325532
    18  H   -0.000008  -0.000005   0.001334   0.002021  -0.000106  -0.075957
    19  H    0.000000   0.000000  -0.000001   0.000003   0.000001   0.014188
    20  H    0.000000   0.000000   0.000000  -0.000000  -0.000001  -0.001429
    21  H   -0.000000  -0.000000   0.000001  -0.000000  -0.000001   0.014091
    22  H    0.000000  -0.000002   0.000066  -0.000002   0.000035  -0.066074
    23  H   -0.000133   0.004921  -0.050473   0.004597  -0.000080  -0.032823
    24  Br  -0.000016   0.000003   0.000691   0.001229  -0.000093  -0.009338
    25  O    0.001234  -0.000008   0.000509   0.000022  -0.000010  -0.000056
    26  C    0.000174  -0.000000  -0.000037   0.000003   0.000001   0.000004
    27  H   -0.000011   0.000000   0.000001  -0.000001   0.000000  -0.000000
    28  H    0.000040  -0.000001   0.000006   0.000000  -0.000000  -0.000001
    29  H   -0.000131   0.000021  -0.000046   0.000003   0.000001   0.000003
              13         14         15         16         17         18
     1  C   -0.013591   0.000099   0.000072  -0.000539   0.003548  -0.001906
     2  C   -0.000374   0.000009   0.000000  -0.000009  -0.000115  -0.000077
     3  O   -0.000011   0.000000   0.000000  -0.000001   0.000020  -0.000000
     4  C   -0.075189   0.009083  -0.000096   0.011491  -0.066031  -0.012428
     5  C   -0.000060   0.000004  -0.000000   0.000001   0.000000  -0.000134
     6  H   -0.000007  -0.000000  -0.000000   0.000000  -0.000009   0.000020
     7  H   -0.000034  -0.000000   0.000000  -0.000000   0.000012  -0.000008
     8  H    0.000049   0.000001  -0.000000   0.000001  -0.000027  -0.000005
     9  N   -0.003402   0.000066  -0.000001  -0.000132  -0.001353   0.001334
    10  H    0.004698   0.000026   0.000003   0.000023   0.000041   0.002021
    11  H    0.001673  -0.000423   0.000047  -0.000186   0.001460  -0.000106
    12  C    0.283531   0.070525  -0.137646   0.068670   0.325532  -0.075957
    13  C    5.074348   0.352747   0.059589  -0.118523   0.040352   0.448868
    14  C    0.352747   4.981642   0.320068   0.062062  -0.115757  -0.051452
    15  C    0.059589   0.320068   5.061395   0.311557   0.064800   0.012930
    16  C   -0.118523   0.062062   0.311557   5.015656   0.334346  -0.001586
    17  C    0.040352  -0.115757   0.064800   0.334346   5.034419   0.011585
    18  H    0.448868  -0.051452   0.012930  -0.001586   0.011585   0.657754
    19  H   -0.062874   0.449133  -0.066785   0.012614  -0.001737  -0.011919
    20  H    0.012658  -0.063270   0.447682  -0.063603   0.012418  -0.000216
    21  H   -0.001670   0.012511  -0.066687   0.450455  -0.063903   0.000021
    22  H    0.012684  -0.001732   0.012683  -0.058411   0.451095  -0.000154
    23  H    0.006071  -0.000214  -0.000009   0.000598  -0.006068   0.000039
    24  Br   0.004909  -0.001002  -0.000006  -0.000061   0.001571   0.007471
    25  O   -0.000003  -0.000000   0.000000  -0.000000   0.000000  -0.000000
    26  C    0.000000   0.000000  -0.000000   0.000000  -0.000000  -0.000000
    27  H    0.000000  -0.000000  -0.000000   0.000000  -0.000000   0.000000
    28  H   -0.000000   0.000000  -0.000000  -0.000000   0.000000  -0.000000
    29  H    0.000000  -0.000000   0.000000   0.000000  -0.000000   0.000000
              19         20         21         22         23         24
     1  C   -0.000005   0.000000  -0.000002   0.000928  -0.016547   0.202645
     2  C   -0.000000   0.000000  -0.000000  -0.000080  -0.009750  -0.046223
     3  O   -0.000000   0.000000   0.000000  -0.000038   0.017879   0.001780
     4  C   -0.000220   0.000020  -0.000263  -0.013083   0.386008  -0.072491
     5  C   -0.000000   0.000000  -0.000000  -0.000012   0.000544  -0.000077
     6  H    0.000000  -0.000000   0.000000   0.000000  -0.000555   0.000007
     7  H    0.000000   0.000000  -0.000000   0.000000  -0.000133  -0.000016
     8  H    0.000000   0.000000  -0.000000  -0.000002   0.004921   0.000003
     9  N   -0.000001   0.000000   0.000001   0.000066  -0.050473   0.000691
    10  H    0.000003  -0.000000  -0.000000  -0.000002   0.004597   0.001229
    11  H    0.000001  -0.000001  -0.000001   0.000035  -0.000080  -0.000093
    12  C    0.014188  -0.001429   0.014091  -0.066074  -0.032823  -0.009338
    13  C   -0.062874   0.012658  -0.001670   0.012684   0.006071   0.004909
    14  C    0.449133  -0.063270   0.012511  -0.001732  -0.000214  -0.001002
    15  C   -0.066785   0.447682  -0.066687   0.012683  -0.000009  -0.000006
    16  C    0.012614  -0.063603   0.450455  -0.058411   0.000598  -0.000061
    17  C   -0.001737   0.012418  -0.063903   0.451095  -0.006068   0.001571
    18  H   -0.011919  -0.000216   0.000021  -0.000154   0.000039   0.007471
    19  H    0.650821  -0.011047  -0.000208   0.000020   0.000005  -0.000020
    20  H   -0.011047   0.648763  -0.011043  -0.000206  -0.000001  -0.000000
    21  H   -0.000208  -0.011043   0.647936  -0.011267   0.000005  -0.000000
    22  H    0.000020  -0.000206  -0.011267   0.643486   0.003364   0.000036
    23  H    0.000005  -0.000001   0.000005   0.003364   0.642427   0.004461
    24  Br  -0.000020  -0.000000  -0.000000   0.000036   0.004461  34.986391
    25  O    0.000000   0.000000   0.000000   0.000000   0.001105   0.006189
    26  C   -0.000000   0.000000  -0.000000  -0.000000  -0.000071  -0.000179
    27  H    0.000000  -0.000000   0.000000   0.000000  -0.000002  -0.000036
    28  H    0.000000  -0.000000  -0.000000  -0.000000  -0.000007  -0.000045
    29  H   -0.000000   0.000000   0.000000   0.000000  -0.000014  -0.000018
              25         26         27         28         29
     1  C   -0.130201   0.012039   0.000047   0.001582  -0.000626
     2  C    0.374867  -0.034395   0.004922  -0.004922  -0.004820
     3  O   -0.074879   0.002464   0.000810   0.006328   0.007449
     4  C   -0.000513  -0.000234   0.000015  -0.000226   0.000326
     5  C   -0.000705  -0.000096   0.000001  -0.000016   0.000271
     6  H    0.000002  -0.000002   0.000000  -0.000000   0.000001
     7  H    0.001234   0.000174  -0.000011   0.000040  -0.000131
     8  H   -0.000008  -0.000000   0.000000  -0.000001   0.000021
     9  N    0.000509  -0.000037   0.000001   0.000006  -0.000046
    10  H    0.000022   0.000003  -0.000001   0.000000   0.000003
    11  H   -0.000010   0.000001   0.000000  -0.000000   0.000001
    12  C   -0.000056   0.000004  -0.000000  -0.000001   0.000003
    13  C   -0.000003   0.000000   0.000000  -0.000000   0.000000
    14  C   -0.000000   0.000000  -0.000000   0.000000  -0.000000
    15  C    0.000000  -0.000000  -0.000000  -0.000000   0.000000
    16  C   -0.000000   0.000000   0.000000  -0.000000   0.000000
    17  C    0.000000  -0.000000  -0.000000   0.000000  -0.000000
    18  H   -0.000000  -0.000000   0.000000  -0.000000   0.000000
    19  H    0.000000  -0.000000   0.000000   0.000000  -0.000000
    20  H    0.000000   0.000000  -0.000000  -0.000000   0.000000
    21  H    0.000000  -0.000000   0.000000  -0.000000   0.000000
    22  H    0.000000  -0.000000   0.000000  -0.000000   0.000000
    23  H    0.001105  -0.000071  -0.000002  -0.000007  -0.000014
    24  Br   0.006189  -0.000179  -0.000036  -0.000045  -0.000018
    25  O    7.980898   0.269679  -0.020934  -0.027335  -0.029923
    26  C    0.269679   4.402454   0.396978   0.407161   0.404221
    27  H   -0.020934   0.396978   0.620644  -0.024609  -0.026009
    28  H   -0.027335   0.407161  -0.024609   0.624926  -0.030886
    29  H   -0.029923   0.404221  -0.026009  -0.030886   0.641618
 Mulliken charges:
               1
     1  C   -0.251857
     2  C    0.275930
     3  O   -0.321811
     4  C    0.129828
     5  C    0.016973
     6  H    0.059013
     7  H    0.073622
     8  H    0.070388
     9  N   -0.229779
    10  H    0.157680
    11  H    0.155095
    12  C   -0.023792
    13  C   -0.026437
    14  C   -0.024125
    15  C   -0.019596
    16  C   -0.024423
    17  C   -0.026199
    18  H    0.013906
    19  H    0.028028
    20  H    0.029273
    21  H    0.030024
    22  H    0.026665
    23  H    0.044723
    24  Br  -0.087777
    25  O   -0.349936
    26  C    0.139835
    27  H    0.048186
    28  H    0.048005
    29  H    0.038559
 Sum of Mulliken charges =  -0.00000
 Mulliken charges with hydrogens summed into heavy atoms:
               1
     1  C   -0.251857
     2  C    0.275930
     3  O   -0.321811
     4  C    0.174551
     5  C    0.219997
     9  N    0.082996
    12  C   -0.023792
    13  C   -0.012530
    14  C    0.003902
    15  C    0.009677
    16  C    0.005601
    17  C    0.000466
    24  Br  -0.087777
    25  O   -0.349936
    26  C    0.274585
 Electronic spatial extent (au):  <R**2>=           4488.8132
 Charge=              0.0000 electrons
 Dipole moment (field-independent basis, Debye):
    X=              2.0277    Y=              4.7612    Z=             -4.0584  Tot=              6.5766
 Quadrupole moment (field-independent basis, Debye-Ang):
   XX=            -88.4258   YY=            -95.1742   ZZ=            -96.3146
   XY=              0.0526   XZ=              4.2949   YZ=             -7.9822
 Traceless Quadrupole moment (field-independent basis, Debye-Ang):
   XX=              4.8791   YY=             -1.8694   ZZ=             -3.0097
   XY=              0.0526   XZ=              4.2949   YZ=             -7.9822
 Octapole moment (field-independent basis, Debye-Ang**2):
  XXX=            -56.0975  YYY=            -15.3034  ZZZ=            -26.3731  XYY=            -18.3619
  XXY=            -28.5827  XXZ=             -3.0497  XZZ=              4.6622  YZZ=             -8.6253
  YYZ=            -25.8627  XYZ=             19.4810
 Hexadecapole moment (field-independent basis, Debye-Ang**3):
 XXXX=          -3375.7848 YYYY=          -1077.4297 ZZZZ=           -586.2832 XXXY=             -7.3259
 XXXZ=             18.5854 YYYX=             11.4881 YYYZ=            -26.3614 ZZZX=             20.8965
 ZZZY=             -4.2170 XXYY=           -890.3048 XXZZ=           -727.0874 YYZZ=           -283.2402
 XXYZ=             -1.2291 YYXZ=             12.9028 ZZXY=             25.7829
 N-N= 1.360784388690D+03 E-N=-1.034600649453D+04  KE= 3.196797097174D+03
   1 Symmetry operations used in ECPInt.
 ECPInt:  NShTT=    9591 NPrTT=   36310 LenC2=    8963 LenP2D=   24222.
 LDataN:  DoStor=T MaxTD1= 5 Len=  102
 D1PCM: PCM CHGder 1st derivatives, ID1Alg=3 FixD1E=F DoIter=F DoCFld=F I1PDM=0.
 Calling FoFJK, ICntrl=      2127 FMM=F ISym2X=0 I1Cent= 0 IOpClX= 0 NMat=1 NMatS=1 NMatT=0.
 ***** Axes restored to original set *****
 -------------------------------------------------------------------
 Center     Atomic                   Forces (Hartrees/Bohr)
 Number     Number              X              Y              Z
 -------------------------------------------------------------------
      1        6          -0.043314961    0.001813993    0.027972961
      2        6           0.023102651   -0.015296103   -0.006249836
      3        8          -0.004473453   -0.010040101   -0.019282372
      4        6           0.008846045    0.002235821    0.023346288
      5        6          -0.002393143   -0.005968132    0.009595403
      6        1          -0.001005696    0.003118371   -0.003439158
      7        1          -0.002727040   -0.002255794    0.000850762
      8        1          -0.000372717    0.001156194    0.003176928
      9        7           0.027480496    0.028991454   -0.048449653
     10        1           0.000165233   -0.003985064    0.004312286
     11        1          -0.001314878   -0.002020254   -0.000490392
     12        6          -0.001713074    0.012017698   -0.008113750
     13        6           0.004216265   -0.000118348    0.003872187
     14        6          -0.004646720    0.002209071    0.003680035
     15        6          -0.001618064   -0.000007750   -0.000438583
     16        6          -0.006234690   -0.001269331   -0.003103118
     17        6           0.004989566   -0.001548266   -0.002389197
     18        1          -0.003287380   -0.000940492   -0.002637332
     19        1           0.001212213   -0.001265288   -0.003276923
     20        1           0.003739984   -0.000680501   -0.000063462
     21        1           0.001548866    0.000772243    0.003197642
     22        1          -0.003137213    0.001649378    0.001712030
     23        1           0.000523258   -0.014648632    0.009001641
     24       35           0.003187274   -0.007023811   -0.007995375
     25        8          -0.008081299    0.015597768    0.015963168
     26        6           0.004699951   -0.006335619   -0.003931181
     27        1           0.001886511   -0.003389210   -0.003133581
     28        1          -0.000735499    0.003108514    0.003611436
     29        1          -0.000542487    0.004122191    0.002701145
 -------------------------------------------------------------------
 Cartesian Forces:  Max     0.048449653 RMS     0.010899066

 GradGradGradGradGradGradGradGradGradGradGradGradGradGradGradGradGradGrad
 Berny optimization.
 FormGI is forming the generalized inverse of G from B-inverse, IUseBI=4.
 Internal  Forces:  Max     0.034761303 RMS     0.007096106
 Search for a saddle point.
 Step number   1 out of a maximum of   50
 All quantities printed in internal units (Hartrees-Bohrs-Radians)
 Swapping is turned off.
 Second derivative matrix not updated -- first step.
 ITU=  0
     Eigenvalues ---   -0.07035  -0.00032   0.00192   0.00305   0.00343
     Eigenvalues ---    0.00401   0.00871   0.01181   0.01596   0.01802
     Eigenvalues ---    0.01894   0.02062   0.02109   0.02461   0.02795
     Eigenvalues ---    0.02962   0.03159   0.03293   0.03316   0.04007
     Eigenvalues ---    0.05389   0.05679   0.05686   0.06177   0.06587
     Eigenvalues ---    0.08701   0.09924   0.09934   0.10351   0.10817
     Eigenvalues ---    0.11485   0.12213   0.13136   0.13696   0.14218
     Eigenvalues ---    0.14698   0.14770   0.14947   0.15482   0.17660
     Eigenvalues ---    0.19168   0.19391   0.20197   0.20639   0.21112
     Eigenvalues ---    0.21345   0.21590   0.21654   0.21970   0.23931
     Eigenvalues ---    0.24638   0.26928   0.28558   0.28993   0.32663
     Eigenvalues ---    0.34354   0.35194   0.35272   0.35364   0.35725
     Eigenvalues ---    0.35915   0.36178   0.36514   0.37396   0.37615
     Eigenvalues ---    0.37649   0.37795   0.38080   0.39127   0.40068
     Eigenvalues ---    0.42923   0.43527   0.43907   0.44847   0.45430
     Eigenvalues ---    0.49634   0.51084   0.51304   0.54870   0.59804
     Eigenvalues ---    0.81195
 Eigenvectors required to have negative eigenvalues:
                          R6        A19       A11       R2        D10
   1                   -0.80973  -0.25274   0.16942   0.16510   0.13985
                          A21       D26       D6        D27       R1
   1                    0.12863  -0.12637  -0.12399  -0.12066  -0.11495
 RFO step:  Lambda0=1.779516764D-04 Lambda=-3.43527679D-02.
 Linear search not attempted -- option 19 set.
 Maximum step size (   0.100) exceeded in Quadratic search.
    -- Step size scaled by   0.220
 Iteration  1 RMS(Cart)=  0.04205598 RMS(Int)=  0.00179665
 Iteration  2 RMS(Cart)=  0.00251354 RMS(Int)=  0.00005649
 Iteration  3 RMS(Cart)=  0.00000828 RMS(Int)=  0.00005633
 Iteration  4 RMS(Cart)=  0.00000000 RMS(Int)=  0.00005633
 Variable       Old X    -DE/DX   Delta X   Delta X   Delta X     New X
                                 (Linear)    (Quad)   (Total)
    R1        2.83005  -0.02110   0.00000  -0.01592  -0.01592   2.81413
    R2        2.57717   0.02911   0.00000   0.00582   0.00582   2.58298
    R3        3.54205   0.00949   0.00000   0.00899   0.00899   3.55104
    R4        2.31455  -0.01947   0.00000  -0.00268  -0.00268   2.31187
    R5        2.57246  -0.01189   0.00000  -0.00625  -0.00625   2.56621
    R6        3.54336   0.03476   0.00000   0.04018   0.04018   3.58354
    R7        2.84048  -0.00727   0.00000  -0.00535  -0.00535   2.83512
    R8        2.08473  -0.00665   0.00000  -0.00374  -0.00374   2.08099
    R9        2.06689   0.00432   0.00000   0.00278   0.00278   2.06966
   R10        2.06609   0.00337   0.00000   0.00236   0.00236   2.06845
   R11        2.06634   0.00319   0.00000   0.00173   0.00173   2.06807
   R12        2.77784   0.00050   0.00000  -0.00657  -0.00657   2.77128
   R13        1.93759  -0.00135   0.00000  -0.00127  -0.00127   1.93632
   R14        1.94274  -0.00211   0.00000  -0.00221  -0.00221   1.94053
   R15        2.64969  -0.00230   0.00000  -0.00079  -0.00079   2.64889
   R16        2.64966  -0.00223   0.00000  -0.00072  -0.00072   2.64894
   R17        2.64001  -0.00267   0.00000  -0.00139  -0.00139   2.63862
   R18        2.05319   0.00407   0.00000   0.00176   0.00176   2.05495
   R19        2.63287   0.00077   0.00000   0.00054   0.00054   2.63341
   R20        2.05371   0.00368   0.00000   0.00200   0.00200   2.05571
   R21        2.63276   0.00149   0.00000   0.00038   0.00038   2.63315
   R22        2.05391   0.00380   0.00000   0.00195   0.00195   2.05587
   R23        2.63973  -0.00313   0.00000  -0.00121  -0.00121   2.63851
   R24        2.05388   0.00360   0.00000   0.00196   0.00196   2.05584
   R25        2.05590   0.00336   0.00000   0.00189   0.00189   2.05779
   R26        2.69653  -0.00576   0.00000  -0.00436  -0.00436   2.69217
   R27        2.06646   0.00234   0.00000   0.00099   0.00099   2.06745
   R28        2.06837   0.00312   0.00000   0.00195   0.00195   2.07032
   R29        2.06833   0.00342   0.00000   0.00196   0.00196   2.07029
    A1        2.02154   0.00684   0.00000   0.00722   0.00721   2.02875
    A2        2.06348   0.00244   0.00000   0.00333   0.00332   2.06680
    A3        2.19805  -0.00926   0.00000  -0.01042  -0.01044   2.18762
    A4        2.17706   0.00026   0.00000  -0.00040  -0.00040   2.17666
    A5        1.93174   0.01691   0.00000   0.01040   0.01040   1.94214
    A6        2.17433  -0.01720   0.00000  -0.01001  -0.01001   2.16431
    A7        1.85916   0.01850   0.00000   0.01742   0.01752   1.87669
    A8        2.12285   0.00523   0.00000   0.01260   0.01269   2.13554
    A9        2.02804  -0.00631   0.00000  -0.01408  -0.01420   2.01384
   A10        1.87746  -0.02564   0.00000  -0.03128  -0.03129   1.84617
   A11        1.46692   0.00998   0.00000   0.01060   0.01070   1.47762
   A12        1.97612  -0.00099   0.00000   0.00210   0.00217   1.97829
   A13        1.89820  -0.00035   0.00000  -0.00153  -0.00153   1.89667
   A14        1.90021  -0.00043   0.00000   0.00038   0.00037   1.90058
   A15        1.92452   0.00365   0.00000   0.00704   0.00704   1.93156
   A16        1.89757   0.00025   0.00000  -0.00074  -0.00075   1.89682
   A17        1.92253  -0.00205   0.00000  -0.00392  -0.00393   1.91861
   A18        1.92032  -0.00109   0.00000  -0.00128  -0.00129   1.91903
   A19        2.28969  -0.02613   0.00000  -0.06070  -0.06069   2.22900
   A20        1.84964   0.00418   0.00000   0.01913   0.01890   1.86854
   A21        1.76603   0.00824   0.00000   0.01703   0.01714   1.78318
   A22        1.85535   0.01205   0.00000   0.01429   0.01411   1.86946
   A23        1.84975   0.00787   0.00000   0.01893   0.01902   1.86876
   A24        1.79854  -0.00265   0.00000   0.00320   0.00281   1.80136
   A25        2.14543  -0.00052   0.00000  -0.00002  -0.00003   2.14541
   A26        2.06521  -0.00086   0.00000  -0.00005  -0.00005   2.06516
   A27        2.07191   0.00141   0.00000   0.00018   0.00018   2.07209
   A28        2.10505  -0.00022   0.00000  -0.00009  -0.00010   2.10496
   A29        2.10367  -0.00115   0.00000  -0.00147  -0.00147   2.10220
   A30        2.07446   0.00137   0.00000   0.00156   0.00156   2.07602
   A31        2.09563   0.00013   0.00000   0.00046   0.00046   2.09609
   A32        2.09298  -0.00056   0.00000  -0.00069  -0.00069   2.09229
   A33        2.09458   0.00043   0.00000   0.00022   0.00022   2.09480
   A34        2.09282  -0.00124   0.00000  -0.00084  -0.00084   2.09198
   A35        2.09531   0.00056   0.00000   0.00035   0.00035   2.09566
   A36        2.09506   0.00068   0.00000   0.00049   0.00049   2.09555
   A37        2.09519   0.00024   0.00000   0.00009   0.00009   2.09528
   A38        2.09527   0.00037   0.00000   0.00033   0.00033   2.09560
   A39        2.09273  -0.00061   0.00000  -0.00042  -0.00042   2.09231
   A40        2.10565  -0.00031   0.00000   0.00021   0.00021   2.10586
   A41        2.10056  -0.00192   0.00000  -0.00251  -0.00251   2.09806
   A42        2.07695   0.00223   0.00000   0.00229   0.00229   2.07924
   A43        1.99139   0.00788   0.00000   0.00660   0.00660   1.99799
   A44        1.88586  -0.00613   0.00000  -0.00560  -0.00560   1.88026
   A45        1.92945   0.00227   0.00000   0.00226   0.00227   1.93172
   A46        1.92877   0.00174   0.00000   0.00202   0.00203   1.93080
   A47        1.89212   0.00289   0.00000   0.00359   0.00359   1.89571
   A48        1.89228   0.00308   0.00000   0.00392   0.00392   1.89620
   A49        1.93393  -0.00386   0.00000  -0.00611  -0.00611   1.92782
    D1       -0.47259   0.00527   0.00000   0.01019   0.01016  -0.46243
    D2        2.65735   0.00328   0.00000   0.00915   0.00912   2.66647
    D3        2.65347   0.00650   0.00000   0.01864   0.01867   2.67214
    D4       -0.49978   0.00451   0.00000   0.01760   0.01763  -0.48215
    D5       -1.31473  -0.01084   0.00000  -0.01904  -0.01895  -1.33369
    D6        2.81226   0.00378   0.00000  -0.00114  -0.00120   2.81106
    D7        0.28148   0.00798   0.00000  -0.00243  -0.00250   0.27898
    D8        1.84377  -0.01232   0.00000  -0.02840  -0.02829   1.81548
    D9       -0.31242   0.00231   0.00000  -0.01051  -0.01053  -0.32296
   D10       -2.84321   0.00651   0.00000  -0.01179  -0.01183  -2.85504
   D11       -3.13684  -0.00052   0.00000  -0.00574  -0.00575   3.14060
   D12       -0.00688  -0.00237   0.00000  -0.00670  -0.00670  -0.01358
   D13        1.26088  -0.00287   0.00000  -0.08468  -0.08460   1.17628
   D14       -1.00256  -0.00069   0.00000  -0.06895  -0.06880  -1.07136
   D15       -2.87388  -0.00204   0.00000  -0.08422  -0.08421  -2.95809
   D16       -2.72036  -0.00103   0.00000  -0.07822  -0.07822  -2.79858
   D17        1.29938   0.00114   0.00000  -0.06248  -0.06242   1.23696
   D18       -0.57194  -0.00020   0.00000  -0.07775  -0.07783  -0.64977
   D19       -0.75669   0.00044   0.00000  -0.07341  -0.07349  -0.83018
   D20       -3.02013   0.00262   0.00000  -0.05768  -0.05768  -3.07782
   D21        1.39173   0.00128   0.00000  -0.07295  -0.07309   1.31864
   D22        1.20310   0.00305   0.00000  -0.00641  -0.00644   1.19666
   D23       -1.97723   0.00402   0.00000  -0.00313  -0.00315  -1.98038
   D24       -0.94455  -0.00296   0.00000  -0.01135  -0.01132  -0.95587
   D25        2.15831  -0.00199   0.00000  -0.00806  -0.00803   2.15027
   D26       -2.53286  -0.00282   0.00000  -0.01047  -0.01047  -2.54333
   D27        0.56999  -0.00185   0.00000  -0.00718  -0.00718   0.56281
   D28        3.04355   0.00185   0.00000   0.00576   0.00569   3.04924
   D29       -0.97818  -0.00315   0.00000  -0.00846  -0.00847  -0.98665
   D30        0.92730   0.00198   0.00000   0.00865   0.00874   0.93604
   D31       -1.14445   0.00243   0.00000   0.00584   0.00576  -1.13869
   D32        1.11700  -0.00257   0.00000  -0.00839  -0.00841   1.10860
   D33        3.02249   0.00257   0.00000   0.00872   0.00880   3.03129
   D34        0.94729   0.00076   0.00000   0.00164   0.00156   0.94885
   D35       -3.07445  -0.00424   0.00000  -0.01259  -0.01260  -3.08705
   D36       -1.16896   0.00090   0.00000   0.00452   0.00461  -1.16435
   D37        3.11962   0.00083   0.00000   0.00198   0.00198   3.12160
   D38       -0.02204   0.00038   0.00000  -0.00123  -0.00123  -0.02327
   D39        0.01691  -0.00010   0.00000  -0.00131  -0.00131   0.01559
   D40       -3.12475  -0.00055   0.00000  -0.00453  -0.00453  -3.12927
   D41       -3.12101  -0.00111   0.00000  -0.00267  -0.00267  -3.12368
   D42        0.02761  -0.00080   0.00000  -0.00213  -0.00213   0.02548
   D43       -0.01649  -0.00022   0.00000   0.00047   0.00047  -0.01602
   D44        3.13213   0.00008   0.00000   0.00101   0.00101   3.13314
   D45       -0.00762   0.00025   0.00000   0.00100   0.00100  -0.00661
   D46        3.13344   0.00004   0.00000   0.00025   0.00025   3.13369
   D47        3.13403   0.00069   0.00000   0.00417   0.00417   3.13820
   D48       -0.00809   0.00048   0.00000   0.00341   0.00341  -0.00467
   D49       -0.00241  -0.00006   0.00000   0.00017   0.00017  -0.00224
   D50        3.13971  -0.00007   0.00000  -0.00020  -0.00020   3.13951
   D51        3.13971   0.00016   0.00000   0.00093   0.00093   3.14064
   D52       -0.00135   0.00015   0.00000   0.00055   0.00055  -0.00080
   D53        0.00282  -0.00026   0.00000  -0.00101  -0.00101   0.00181
   D54       -3.13967  -0.00000   0.00000  -0.00048  -0.00048  -3.14015
   D55       -3.13930  -0.00025   0.00000  -0.00063  -0.00063  -3.13993
   D56        0.00139   0.00001   0.00000  -0.00010  -0.00010   0.00129
   D57        0.00678   0.00039   0.00000   0.00068   0.00068   0.00747
   D58        3.14144   0.00008   0.00000   0.00013   0.00013   3.14157
   D59       -3.13391   0.00013   0.00000   0.00015   0.00015  -3.13375
   D60        0.00075  -0.00018   0.00000  -0.00040  -0.00040   0.00035
   D61       -3.13765   0.00003   0.00000  -0.00124  -0.00124  -3.13889
   D62       -1.06970   0.00114   0.00000   0.00103   0.00103  -1.06868
   D63        1.07779  -0.00101   0.00000  -0.00378  -0.00378   1.07401
         Item               Value     Threshold  Converged?
 Maximum Force            0.034761     0.000450     NO 
 RMS     Force            0.007096     0.000300     NO 
 Maximum Displacement     0.232079     0.001800     NO 
 RMS     Displacement     0.042635     0.001200     NO 
 Predicted change in Energy=-7.105384D-03
 GradGradGradGradGradGradGradGradGradGradGradGradGradGradGradGradGradGrad

                          Input orientation:                          
 ---------------------------------------------------------------------
 Center     Atomic      Atomic             Coordinates (Angstroms)
 Number     Number       Type             X           Y           Z
 ---------------------------------------------------------------------
      1          6           0       -0.755525   -0.114473    0.218573
      2          6           0       -2.101185    0.314842    0.690298
      3          8           0       -2.302066    1.197217    1.513551
      4          6           0        0.235313    0.824920    0.282437
      5          6           0       -1.129223    2.979992   -1.343161
      6          1           0       -0.956191    3.605563   -2.225330
      7          1           0       -2.070384    2.437503   -1.477413
      8          1           0       -1.218737    3.624807   -0.463466
      9          7           0       -0.027093    2.030523   -1.157606
     10          1           0        0.051591    1.487114   -2.022727
     11          1           0        0.842320    2.576804   -1.143728
     12          6           0        1.690354    0.460745    0.249610
     13          6           0        2.319658   -0.060860   -0.889145
     14          6           0        3.683205   -0.361078   -0.873154
     15          6           0        4.434849   -0.136023    0.278512
     16          6           0        3.823461    0.391943    1.413863
     17          6           0        2.460088    0.692692    1.397931
     18          1           0        1.751720   -0.240921   -1.798831
     19          1           0        4.158026   -0.772339   -1.761297
     20          1           0        5.496814   -0.371902    0.291144
     21          1           0        4.407322    0.570248    2.314333
     22          1           0        1.997613    1.104704    2.293554
     23          1           0        0.018108    1.697727    0.917807
     24         35           0       -0.544313   -1.876925   -0.398094
     25          8           0       -3.086488   -0.389745    0.076424
     26          6           0       -4.405710   -0.033763    0.479550
     27          1           0       -5.105614   -0.665037   -0.075939
     28          1           0       -4.545224   -0.215664    1.550866
     29          1           0       -4.613051    1.014755    0.239029
 ---------------------------------------------------------------------
                    Distance matrix (angstroms):
                    1          2          3          4          5
     1  C    0.000000
     2  C    1.489173   0.000000
     3  O    2.406094   1.223390   0.000000
     4  C    1.366857   2.426057   2.844739   0.000000
     5  C    3.486312   3.490371   3.565760   3.024709   0.000000
     6  H    4.455513   4.543209   4.646584   3.929447   1.095218
     7  H    3.334338   3.034076   3.246206   3.318695   1.094578
     8  H    3.829093   3.614659   3.312913   3.241913   1.094378
     9  N    2.650564   3.264992   3.606242   1.896328   1.466497
    10  H    2.870530   3.656388   4.257816   2.405418   2.021093
    11  H    3.413493   4.140572   4.341837   2.339123   2.022206
    12  C    2.512800   3.819851   4.251983   1.500282   4.102870
    13  C    3.269046   4.709526   5.358734   2.549843   4.620356
    14  C    4.577663   6.029959   6.629337   3.824910   5.877339
    15  C    5.190765   6.564494   6.977742   4.308077   6.580143
    16  C    4.759441   5.969163   6.179035   3.787135   6.231232
    17  C    3.518886   4.631276   4.790200   2.492274   5.062457
    18  H    3.220588   4.620553   5.428931   2.786967   4.345313
    19  H    5.338132   6.809552   7.505769   4.702739   6.496909
    20  H    6.258057   7.639406   8.048536   5.395910   7.603323
    21  H    5.613915   6.712926   6.786032   4.647485   7.059565
    22  H    3.656734   4.471516   4.370836   2.688600   5.149710
    23  H    2.090814   2.540774   2.447167   1.101211   2.841223
    24  Br   1.879130   2.900395   4.024231   2.893252   4.982460
    25  O    2.351461   1.357979   2.280154   3.542910   4.147436
    26  C    3.660393   2.340252   2.647601   4.723906   4.810442
    27  H    4.394671   3.251750   3.722143   5.556429   5.541098
    28  H    4.018341   2.644871   2.651298   5.054232   5.500606
    29  H    4.019463   2.646317   2.645439   4.852273   4.301457
                    6          7          8          9         10
     6  H    0.000000
     7  H    1.779093   0.000000
     8  H    1.781422   1.778505   0.000000
     9  N    2.117548   2.107830   2.107982   0.000000
    10  H    2.354676   2.388176   2.935091   1.024655   0.000000
    11  H    2.337274   2.935063   2.410191   1.026885   1.607891
    12  C    4.797855   4.586212   4.356900   2.719207   2.983705
    13  C    5.095020   5.085307   5.126946   3.154868   2.970751
    14  C    6.251929   6.426583   6.331204   4.423457   4.233905
    15  C    7.023675   7.212792   6.830623   5.163844   5.209916
    16  C    6.812940   6.876132   6.276904   4.911635   5.218865
    17  C    5.769211   5.642441   5.059233   3.808756   4.258270
    18  H    4.723359   4.678220   5.054767   2.955469   2.434476
    19  H    6.748079   7.012615   7.066034   5.073036   4.694282
    20  H    7.987124   8.263355   7.851225   6.195488   6.201644
    21  H    7.654342   7.734640   6.978469   5.818144   6.214751
    22  H    5.949754   5.704836   4.929198   4.106955   4.750108
    23  H    3.803736   3.262844   2.674199   2.102413   2.948258
    24  Br   5.793627   4.701927   5.543300   4.014041   3.783027
    25  O    5.079245   3.382338   4.460561   4.091506   4.216227
    26  C    5.697390   3.923087   4.942794   5.110171   5.333103
    27  H    6.330531   4.560976   5.801789   5.850421   5.917643
    28  H    6.460851   4.725950   5.465553   5.726664   6.066360
    29  H    5.114487   3.381648   4.339037   4.900345   5.205530
                   11         12         13         14         15
    11  H    0.000000
    12  C    2.671752   0.000000
    13  C    3.033910   1.401734   0.000000
    14  C    4.095728   2.430523   1.396298   0.000000
    15  C    4.721066   2.808776   2.417252   1.393539   0.000000
    16  C    4.494673   2.431123   2.787525   2.411878   1.393401
    17  C    3.553460   1.401759   2.412110   2.786444   2.416517
    18  H    3.032448   2.166152   1.087430   2.145216   3.394929
    19  H    4.753110   3.413744   2.155562   1.087837   2.154611
    20  H    5.693684   3.896686   3.403550   2.155199   1.087919
    21  H    5.356649   3.414233   3.875424   3.398792   2.155028
    22  H    3.913654   2.164901   3.404677   3.875277   3.397045
    23  H    2.387892   2.184724   3.413918   4.569371   4.824826
    24  Br   4.723814   3.298175   3.426594   4.516124   5.317950
    25  O    5.071953   4.855054   5.501536   6.836026   7.528328
    26  C    6.082097   6.120410   6.863282   8.207770   8.843437
    27  H    6.857668   6.896271   7.494063   8.830134   9.561690
    28  H    6.639603   6.405719   7.287264   8.579280   9.070113
    29  H    5.840640   6.327713   7.105784   8.482790   9.120874
                   16         17         18         19         20
    16  C    0.000000
    17  C    1.396242   0.000000
    18  H    3.874794   3.404806   0.000000
    19  H    3.398400   3.874278   2.464574   0.000000
    20  H    2.155010   3.402946   4.290791   2.482986   0.000000
    21  H    1.087904   2.155576   4.962695   4.298308   2.483533
    22  H    2.148395   1.088934   4.314949   4.963113   4.293531
    23  H    4.053622   2.684004   3.760837   5.515229   5.890016
    24  Br   5.244844   4.342241   3.148069   5.019006   6.263813
    25  O    7.081466   5.803666   5.191048   7.483754   8.586005
    26  C    8.292974   6.964937   6.568705   8.882819   9.910087
    27  H    9.114005   7.826593   7.083167   9.416314  10.612829
    28  H    8.391831   7.065613   7.132503   9.328819  10.121948
    29  H    8.540659   7.174682   6.799993   9.172066  10.204651
                   21         22         23         24         25
    21  H    0.000000
    22  H    2.468354   0.000000
    23  H    4.742014   2.482498   0.000000
    24  Br   6.153422   4.753574   3.850461   0.000000
    25  O    7.879531   5.744312   3.834577   2.983207   0.000000
    26  C    9.022239   6.751983   4.770775   4.367826   1.424634
    27  H    9.886115   7.694304   5.729110   4.730531   2.043495
    28  H    9.019347   6.715927   4.988569   4.750318   2.081393
    29  H    9.266693   6.923153   4.730203   5.032134   2.080735
                   26         27         28         29
    26  C    0.000000
    27  H    1.094048   0.000000
    28  H    1.095568   1.778333   0.000000
    29  H    1.095550   1.778630   1.799846   0.000000
 Stoichiometry    C11H14BrNO2
 Framework group  C1[X(C11H14BrNO2)]
 Deg. of freedom    81
 Full point group                 C1      NOp   1
 Largest Abelian subgroup         C1      NOp   1
 Largest concise Abelian subgroup C1      NOp   1
                         Standard orientation:                         
 ---------------------------------------------------------------------
 Center     Atomic      Atomic             Coordinates (Angstroms)
 Number     Number       Type             X           Y           Z
 ---------------------------------------------------------------------
      1          6           0       -0.751571   -0.114589    0.228358
      2          6           0       -2.096932    0.322901    0.693377
      3          8           0       -2.297067    1.215866    1.505316
      4          6           0        0.240821    0.823836    0.281396
      5          6           0       -1.118483    2.960695   -1.372384
      6          1           0       -0.943548    3.574866   -2.262157
      7          1           0       -2.060449    2.418176   -1.500731
      8          1           0       -1.207711    3.616636   -0.500924
[...]
 Alpha  occ. eigenvalues --   -0.52927  -0.51351  -0.50552  -0.49372  -0.48472
 Alpha  occ. eigenvalues --   -0.48241  -0.45865  -0.45593  -0.44247  -0.43460
 Alpha  occ. eigenvalues --   -0.42703  -0.41096  -0.37329  -0.35794  -0.35680
 Alpha  occ. eigenvalues --   -0.34031  -0.33577  -0.32072  -0.24685
 Alpha virt. eigenvalues --    0.04135   0.05173   0.09776   0.11587   0.12448
 Alpha virt. eigenvalues --    0.14179   0.15557   0.16296   0.17949   0.18385
 Alpha virt. eigenvalues --    0.19308   0.19496   0.20774   0.21697   0.22494
 Alpha virt. eigenvalues --    0.22678   0.22908   0.23870   0.24028   0.24842
 Alpha virt. eigenvalues --    0.26133   0.26731   0.30370   0.34350   0.35986
 Alpha virt. eigenvalues --    0.36287   0.37627   0.37940   0.39456   0.40091
 Alpha virt. eigenvalues --    0.42322   0.43443   0.45541   0.47463   0.48123
 Alpha virt. eigenvalues --    0.49416   0.50453   0.51027   0.52343   0.53852
 Alpha virt. eigenvalues --    0.54703   0.55302   0.55583   0.56055   0.57029
 Alpha virt. eigenvalues --    0.57628   0.57879   0.59641   0.60521   0.61812
 Alpha virt. eigenvalues --    0.62670   0.63004   0.64119   0.65117   0.65745
 Alpha virt. eigenvalues --    0.66543   0.67470   0.69071   0.70274   0.70390
 Alpha virt. eigenvalues --    0.71164   0.72234   0.72849   0.73382   0.73837
 Alpha virt. eigenvalues --    0.74130   0.74338   0.75095   0.75550   0.76124
 Alpha virt. eigenvalues --    0.76272   0.77412   0.77948   0.78494   0.79471
 Alpha virt. eigenvalues --    0.79537   0.81018   0.82269   0.82716   0.83350
 Alpha virt. eigenvalues --    0.84088   0.85000   0.86298   0.87611   0.88150
 Alpha virt. eigenvalues --    0.90180   0.91630   0.93169   0.94980   0.97048
 Alpha virt. eigenvalues --    0.99471   1.01162   1.02926   1.05868   1.08503
 Alpha virt. eigenvalues --    1.09225   1.11010   1.14458   1.15605   1.16553
 Alpha virt. eigenvalues --    1.20026   1.23587   1.23863   1.26261   1.27671
 Alpha virt. eigenvalues --    1.28963   1.32312   1.33563   1.34616   1.36016
 Alpha virt. eigenvalues --    1.36924   1.37752   1.38155   1.39750   1.41510
 Alpha virt. eigenvalues --    1.43198   1.47325   1.50180   1.56519   1.57273
 Alpha virt. eigenvalues --    1.58022   1.61063   1.61892   1.62462   1.62901
 Alpha virt. eigenvalues --    1.66603   1.68461   1.71530   1.72511   1.75626
 Alpha virt. eigenvalues --    1.77320   1.78205   1.81290   1.82397   1.83070
 Alpha virt. eigenvalues --    1.83500   1.83590   1.84091   1.84968   1.85675
 Alpha virt. eigenvalues --    1.86453   1.87827   1.88218   1.88763   1.91109
 Alpha virt. eigenvalues --    1.92339   1.93752   1.95647   1.96525   1.97250
 Alpha virt. eigenvalues --    1.99805   2.01107   2.02099   2.03754   2.04602
 Alpha virt. eigenvalues --    2.05941   2.06271   2.06854   2.07521   2.08818
 Alpha virt. eigenvalues --    2.10208   2.13608   2.14600   2.15740   2.17796
 Alpha virt. eigenvalues --    2.20071   2.20317   2.22132   2.24452   2.26167
 Alpha virt. eigenvalues --    2.28345   2.28936   2.33489   2.36097   2.37156
 Alpha virt. eigenvalues --    2.38384   2.39393   2.41495   2.41882   2.42448
 Alpha virt. eigenvalues --    2.43516   2.46515   2.48751   2.51627   2.52448
 Alpha virt. eigenvalues --    2.56171   2.62360   2.64570   2.68647   2.69950
 Alpha virt. eigenvalues --    2.71475   2.74133   2.75639   2.76172   2.76617
 Alpha virt. eigenvalues --    2.77514   2.79174   2.80187   2.80994   2.81601
 Alpha virt. eigenvalues --    2.86269   2.90739   2.95434   2.95809   2.96707
 Alpha virt. eigenvalues --    2.99853   3.01570   3.03598   3.04615   3.05346
 Alpha virt. eigenvalues --    3.08122   3.10899   3.15920   3.17631   3.21017
 Alpha virt. eigenvalues --    3.24891   3.29329   3.31784   3.33474   3.46880
 Alpha virt. eigenvalues --    3.55291   3.57307   3.60972   3.65712   3.71221
 Alpha virt. eigenvalues --    3.73630   3.76175   3.80207   3.97138
          Condensed to atoms (all electrons):
               1          2          3          4          5          6
     1  C    5.855895   0.278844  -0.147935   0.475520  -0.000559  -0.000493
     2  C    0.278844   4.439077   0.689611  -0.042263   0.005309   0.000082
     3  O   -0.147935   0.689611   7.844395   0.002330  -0.002758   0.000188
     4  C    0.475520  -0.042263   0.002330   4.918378  -0.027194   0.004802
     5  C   -0.000559   0.005309  -0.002758  -0.027194   4.535180   0.399624
     6  H   -0.000493   0.000082   0.000188   0.004802   0.399624   0.589022
     7  H    0.016942   0.000310  -0.001723  -0.016842   0.400930  -0.020675
     8  H   -0.011675   0.003225   0.013181   0.000125   0.401336  -0.017124
     9  N   -0.100216  -0.002650   0.000318   0.114936   0.300015  -0.018054
    10  H   -0.000953  -0.000638  -0.000074  -0.001086  -0.018670  -0.005454
    11  H    0.007821  -0.000041  -0.000184  -0.013860  -0.017194  -0.005006
    12  C   -0.053279   0.010145   0.001712   0.291241   0.006633  -0.000413
    13  C   -0.013394  -0.000341  -0.000006  -0.074198  -0.000015  -0.000027
    14  C   -0.000009   0.000014   0.000000   0.008208   0.000010  -0.000000
    15  C    0.000080   0.000001   0.000000  -0.000203  -0.000000   0.000000
    16  C   -0.000510  -0.000040  -0.000002   0.013669   0.000006  -0.000000
    17  C    0.003899  -0.000285  -0.000143  -0.059242  -0.000076  -0.000001
    18  H   -0.001955   0.000095  -0.000000  -0.010709  -0.000226   0.000008
    19  H    0.000001  -0.000000  -0.000000  -0.000227  -0.000000   0.000000
    20  H    0.000000   0.000000   0.000000   0.000020   0.000000  -0.000000
    21  H   -0.000001   0.000000   0.000000  -0.000297  -0.000000   0.000000
    22  H    0.001214  -0.000011  -0.000117  -0.016091  -0.000019  -0.000000
    23  H   -0.033455  -0.006301   0.032863   0.367678  -0.002303  -0.000146
    24  Br   0.173643  -0.031548   0.001935  -0.066597  -0.001771  -0.000003
    25  O   -0.145761   0.418385  -0.085079   0.003026  -0.000386  -0.000002
    26  C    0.012180  -0.038206   0.002315  -0.000279  -0.000020  -0.000000
    27  H    0.000363   0.004795   0.000933   0.000011  -0.000000  -0.000000
    28  H    0.000282  -0.004477   0.007130  -0.000060  -0.000008  -0.000000
    29  H    0.000627  -0.004954   0.009697   0.000077   0.000050   0.000003
               7          8          9         10         11         12
     1  C    0.016942  -0.011675  -0.100216  -0.000953   0.007821  -0.053279
     2  C    0.000310   0.003225  -0.002650  -0.000638  -0.000041   0.010145
     3  O   -0.001723   0.013181   0.000318  -0.000074  -0.000184   0.001712
     4  C   -0.016842   0.000125   0.114936  -0.001086  -0.013860   0.291241
     5  C    0.400930   0.401336   0.300015  -0.018670  -0.017194   0.006633
     6  H   -0.020675  -0.017124  -0.018054  -0.005454  -0.005006  -0.000413
     7  H    0.550313  -0.014135  -0.014846  -0.004472   0.005745   0.000774
     8  H   -0.014135   0.548358  -0.016053   0.005193  -0.006319   0.000560
     9  N   -0.014846  -0.016053   6.331529   0.341807   0.340599  -0.058208
    10  H   -0.004472   0.005193   0.341807   0.511902  -0.013612  -0.009553
    11  H    0.005745  -0.006319   0.340599  -0.013612   0.513476   0.009356
    12  C    0.000774   0.000560  -0.058208  -0.009553   0.009356   5.324873
    13  C   -0.000078   0.000056  -0.009707   0.009608  -0.001000   0.287802
    14  C    0.000000  -0.000000   0.000088  -0.000366  -0.000248   0.062904
    15  C    0.000000  -0.000000   0.000016  -0.000001   0.000013  -0.134065
    16  C   -0.000000   0.000001  -0.000366   0.000069  -0.000106   0.060290
    17  C    0.000000  -0.000054   0.001433  -0.000085   0.001390   0.354955
    18  H    0.000057   0.000001   0.000464   0.003603  -0.000157  -0.075100
    19  H    0.000000   0.000000   0.000002   0.000013  -0.000000   0.014357
    20  H   -0.000000   0.000000   0.000000  -0.000001  -0.000000  -0.001441
    21  H   -0.000000   0.000000   0.000002   0.000000  -0.000001   0.014210
    22  H    0.000001  -0.000003   0.000323  -0.000021   0.000061  -0.064195
    23  H   -0.000187   0.004405  -0.028268   0.003680  -0.003190  -0.017367
    24  Br   0.003653   0.000140   0.003470   0.002176  -0.000197  -0.013385
    25  O    0.000620   0.000103   0.000035  -0.000001  -0.000001   0.000044
    26  C   -0.000000  -0.000044   0.000001  -0.000000  -0.000000  -0.000001
    27  H   -0.000000  -0.000000  -0.000000   0.000000   0.000000  -0.000000
    28  H    0.000014  -0.000020   0.000002   0.000000  -0.000000  -0.000002
    29  H   -0.000078   0.000117  -0.000009   0.000000   0.000000   0.000001
              13         14         15         16         17         18
     1  C   -0.013394  -0.000009   0.000080  -0.000510   0.003899  -0.001955
     2  C   -0.000341   0.000014   0.000001  -0.000040  -0.000285   0.000095
     3  O   -0.000006   0.000000   0.000000  -0.000002  -0.000143  -0.000000
     4  C   -0.074198   0.008208  -0.000203   0.013669  -0.059242  -0.010709
     5  C   -0.000015   0.000010  -0.000000   0.000006  -0.000076  -0.000226
     6  H   -0.000027  -0.000000   0.000000  -0.000000  -0.000001   0.000008
     7  H   -0.000078   0.000000   0.000000  -0.000000   0.000000   0.000057
     8  H    0.000056  -0.000000  -0.000000   0.000001  -0.000054   0.000001
     9  N   -0.009707   0.000088   0.000016  -0.000366   0.001433   0.000464
    10  H    0.009608  -0.000366  -0.000001   0.000069  -0.000085   0.003603
    11  H   -0.001000  -0.000248   0.000013  -0.000106   0.001390  -0.000157
    12  C    0.287802   0.062904  -0.134065   0.060290   0.354955  -0.075100
    13  C    5.106979   0.363475   0.055048  -0.116389   0.029476   0.436184
    14  C    0.363475   4.965419   0.327154   0.059745  -0.112011  -0.045628
    15  C    0.055048   0.327154   5.056074   0.316828   0.060838   0.012198
    16  C   -0.116389   0.059745   0.316828   5.021344   0.332149  -0.001541
    17  C    0.029476  -0.112011   0.060838   0.332149   5.026814   0.011106
    18  H    0.436184  -0.045628   0.012198  -0.001541   0.011106   0.646821
    19  H   -0.061140   0.447017  -0.066512   0.012368  -0.001668  -0.012018
    20  H    0.012597  -0.062826   0.447004  -0.063103   0.012293  -0.000201
    21  H   -0.001604   0.012204  -0.066292   0.447862  -0.062126   0.000022
    22  H    0.013020  -0.001669   0.012378  -0.057966   0.449052  -0.000160
    23  H    0.007942  -0.000208  -0.000024   0.000599  -0.011498  -0.000064
    24  Br   0.001030  -0.000388  -0.000035   0.000016   0.000132   0.016908
    25  O    0.000002  -0.000000   0.000000  -0.000000  -0.000004   0.000002
    26  C   -0.000000   0.000000  -0.000000   0.000000   0.000000  -0.000000
    27  H    0.000000  -0.000000  -0.000000   0.000000  -0.000000  -0.000000
    28  H   -0.000000   0.000000   0.000000  -0.000000   0.000000   0.000000
    29  H    0.000000  -0.000000  -0.000000   0.000000  -0.000000   0.000000
              19         20         21         22         23         24
     1  C    0.000001   0.000000  -0.000001   0.001214  -0.033455   0.173643
     2  C   -0.000000   0.000000   0.000000  -0.000011  -0.006301  -0.031548
     3  O   -0.000000   0.000000   0.000000  -0.000117   0.032863   0.001935
     4  C   -0.000227   0.000020  -0.000297  -0.016091   0.367678  -0.066597
     5  C   -0.000000   0.000000  -0.000000  -0.000019  -0.002303  -0.001771
     6  H    0.000000  -0.000000   0.000000  -0.000000  -0.000146  -0.000003
     7  H    0.000000  -0.000000  -0.000000   0.000001  -0.000187   0.003653
     8  H    0.000000   0.000000   0.000000  -0.000003   0.004405   0.000140
     9  N    0.000002   0.000000   0.000002   0.000323  -0.028268   0.003470
    10  H    0.000013  -0.000001   0.000000  -0.000021   0.003680   0.002176
    11  H   -0.000000  -0.000000  -0.000001   0.000061  -0.003190  -0.000197
    12  C    0.014357  -0.001441   0.014210  -0.064195  -0.017367  -0.013385
    13  C   -0.061140   0.012597  -0.001604   0.013020   0.007942   0.001030
    14  C    0.447017  -0.062826   0.012204  -0.001669  -0.000208  -0.000388
    15  C   -0.066512   0.447004  -0.066292   0.012378  -0.000024  -0.000035
    16  C    0.012368  -0.063103   0.447862  -0.057966   0.000599   0.000016
    17  C   -0.001668   0.012293  -0.062126   0.449052  -0.011498   0.000132
    18  H   -0.012018  -0.000201   0.000022  -0.000160  -0.000064   0.016908
    19  H    0.647865  -0.010699  -0.000205   0.000020   0.000005  -0.000024
    20  H   -0.010699   0.644078  -0.010679  -0.000198  -0.000001   0.000000
    21  H   -0.000205  -0.010679   0.645333  -0.011099   0.000009   0.000000
    22  H    0.000020  -0.000198  -0.011099   0.643463   0.004134   0.000005
    23  H    0.000005  -0.000001   0.000009   0.004134   0.627069   0.004603
    24  Br  -0.000024   0.000000   0.000000   0.000005   0.004603  35.018606
    25  O   -0.000000   0.000000   0.000000  -0.000001   0.001535   0.007671
    26  C   -0.000000   0.000000  -0.000000   0.000000  -0.000097  -0.000130
    27  H    0.000000  -0.000000   0.000000   0.000000  -0.000003  -0.000066
    28  H    0.000000   0.000000  -0.000000  -0.000000   0.000023  -0.000014
    29  H   -0.000000  -0.000000  -0.000000   0.000000  -0.000058  -0.000040
              25         26         27         28         29
     1  C   -0.145761   0.012180   0.000363   0.000282   0.000627
     2  C    0.418385  -0.038206   0.004795  -0.004477  -0.004954
     3  O   -0.085079   0.002315   0.000933   0.007130   0.009697
     4  C    0.003026  -0.000279   0.000011  -0.000060   0.000077
     5  C   -0.000386  -0.000020  -0.000000  -0.000008   0.000050
     6  H   -0.000002  -0.000000  -0.000000  -0.000000   0.000003
     7  H    0.000620  -0.000000  -0.000000   0.000014  -0.000078
     8  H    0.000103  -0.000044  -0.000000  -0.000020   0.000117
     9  N    0.000035   0.000001  -0.000000   0.000002  -0.000009
    10  H   -0.000001  -0.000000   0.000000   0.000000   0.000000
    11  H   -0.000001  -0.000000   0.000000  -0.000000   0.000000
    12  C    0.000044  -0.000001  -0.000000  -0.000002   0.000001
    13  C    0.000002  -0.000000   0.000000  -0.000000   0.000000
    14  C   -0.000000   0.000000  -0.000000   0.000000  -0.000000
    15  C    0.000000  -0.000000  -0.000000   0.000000  -0.000000
    16  C   -0.000000   0.000000   0.000000  -0.000000   0.000000
    17  C   -0.000004   0.000000  -0.000000   0.000000  -0.000000
    18  H    0.000002  -0.000000  -0.000000   0.000000   0.000000
    19  H   -0.000000  -0.000000   0.000000   0.000000  -0.000000
    20  H    0.000000   0.000000  -0.000000   0.000000  -0.000000
    21  H    0.000000  -0.000000   0.000000  -0.000000  -0.000000
    22  H   -0.000001   0.000000   0.000000  -0.000000   0.000000
    23  H    0.001535  -0.000097  -0.000003   0.000023  -0.000058
    24  Br   0.007671  -0.000130  -0.000066  -0.000014  -0.000040
    25  O    7.947420   0.281231  -0.024193  -0.028859  -0.029953
    26  C    0.281231   4.395390   0.397797   0.404837   0.400707
    27  H   -0.024193   0.397797   0.626718  -0.025448  -0.025514
    28  H   -0.028859   0.404837  -0.025448   0.643647  -0.034764
    29  H   -0.029953   0.400707  -0.025514  -0.034764   0.652050
 Mulliken charges:
               1
     1  C   -0.317119
     2  C    0.281862
     3  O   -0.368587
     4  C    0.129127
     5  C    0.022109
     6  H    0.073669
     7  H    0.093678
     8  H    0.088626
     9  N   -0.186665
    10  H    0.176936
    11  H    0.182655
    12  C   -0.012848
    13  C   -0.045321
    14  C   -0.022884
    15  C   -0.020499
    16  C   -0.024921
    17  C   -0.036342
    18  H    0.020291
    19  H    0.030846
    20  H    0.033156
    21  H    0.032663
    22  H    0.027881
    23  H    0.048625
    24  Br  -0.119789
    25  O   -0.345835
    26  C    0.144321
    27  H    0.044609
    28  H    0.037716
    29  H    0.032041
 Sum of Mulliken charges =  -0.00000
 Mulliken charges with hydrogens summed into heavy atoms:
               1
     1  C   -0.317119
     2  C    0.281862
     3  O   -0.368587
     4  C    0.177752
     5  C    0.278081
     9  N    0.172926
    12  C   -0.012848
    13  C   -0.025030
    14  C    0.007961
    15  C    0.012657
    16  C    0.007742
    17  C   -0.008462
    24  Br  -0.119789
    25  O   -0.345835
    26  C    0.258686
 Electronic spatial extent (au):  <R**2>=           4406.5564
 Charge=              0.0000 electrons
 Dipole moment (field-independent basis, Debye):
    X=              4.1791    Y=              3.4160    Z=             -5.3094  Tot=              7.5712
 Quadrupole moment (field-independent basis, Debye-Ang):
   XX=            -92.8048   YY=           -100.9260   ZZ=            -88.3236
   XY=              3.0035   XZ=              0.8825   YZ=             -6.9749
 Traceless Quadrupole moment (field-independent basis, Debye-Ang):
   XX=              1.2133   YY=             -6.9079   ZZ=              5.6945
   XY=              3.0035   XZ=              0.8825   YZ=             -6.9749
 Octapole moment (field-independent basis, Debye-Ang**2):
  XXX=            -42.6744  YYY=            -39.6301  ZZZ=            -38.1895  XYY=              6.2912
  XXY=            -29.7425  XXZ=             13.5657  XZZ=            -11.3962  YZZ=              6.6864
  YYZ=            -26.7994  XYZ=             14.6935
 Hexadecapole moment (field-independent basis, Debye-Ang**3):
 XXXX=          -3411.8510 YYYY=           -978.1028 ZZZZ=           -718.4742 XXXY=            -17.1938
 XXXZ=              4.5462 YYYX=             68.8334 YYYZ=            -28.5762 ZZZX=            -14.4722
 ZZZY=            -21.5006 XXYY=           -834.4391 XXZZ=           -714.8859 YYZZ=           -264.4086
 XXYZ=             17.7718 YYXZ=              8.4186 ZZXY=             25.5245
 N-N= 1.371997977102D+03 E-N=-1.036836588445D+04  KE= 3.196657896810D+03
 Unable to Open any file for archive entry.
 1\1\GINC-NODE-007\FTS\RwB97XD\def2SVP\C11H14Br1N1O2\JP2658\01-Jan-2024
 \0\\# wb97xd def2svp geom=allchk scrf=(iefpcm,solvent=toluene) opt=(re
 adfc,ts,noeigen,maxcycles=50,maxstep=10)\\TS-68.out\\0,1\C,-0.88340159
 52,0.1391274044,-0.1428347975\C,-2.1221610708,0.4477960828,0.500292967
 9\O,-2.3164693966,1.4398588066,1.2019261675\C,0.2104579792,1.031823279
 4,0.0422488456\C,-1.0382941946,2.802082722,-1.527959681\H,-0.962665753
 3,3.5684200759,-2.3101562372\H,-1.6664348701,1.9727849876,-1.875803468
 \H,-1.4912138151,3.2153764098,-0.6195538076\N,0.2842158556,2.263400450
 4,-1.1976698436\H,0.7221854589,1.8475256026,-2.0224045341\H,0.92158301
 33,2.9916323236,-0.8680528181\C,1.6388954111,0.5676709941,0.1326897265
 \C,2.3345688289,0.0081183743,-0.9471414975\C,3.6563029672,-0.409703175
 ,-0.8013618277\C,4.3026300121,-0.2813190458,0.4272855905\C,3.619810281
 7,0.2725376621,1.5094077161\C,2.3016156132,0.6984923433,1.3595297221\H
 ,1.838359752,-0.1258228143,-1.911007092\H,4.1813814551,-0.8460048823,-
 1.6538332065\H,5.3369575771,-0.612842208,0.5409623827\H,4.1163860151,0
 .3774998428,2.4764245164\H,1.7718509755,1.1318181089,2.2117387866\H,-0
 .0456099734,1.6875522874,0.8839596576\Br,-0.7637733381,-1.3369748882,-
 1.3433098939\O,-3.1080266629,-0.4528878093,0.2875266076\C,-4.335722410
 9,-0.1976301577,0.9326085137\H,-5.0148218688,-1.0054216771,0.633500956
 8\H,-4.2225091587,-0.1953466242,2.0275077989\H,-4.7564570873,0.7738055
 239,0.631068748\\Version=ES64L-G16RevC.01\State=1-A\HF=-3206.002546\RM
 SD=4.183e-09\RMSF=7.840e-06\Dipole=1.6449756,2.1311713,-1.274773\Quadr
 upole=0.8111948,0.6920474,-1.5032422,1.8495713,1.6662948,-6.8534675\PG
 =C01 [X(C11H14Br1N1O2)]\\@
 The archive entry for this job was punched.


  DISAPPOINTMENT IS THE NURSE OF WISDOM.               
                              SIR BOYLE ROCHE                 
 Job cpu time:       0 days  3 hours  5 minutes 35.9 seconds.
 Elapsed time:       0 days  0 hours 15 minutes 52.1 seconds.
 File lengths (MBytes):  RWF=    159 Int=      0 D2E=      0 Chk=     16 Scr=      1
 Normal termination of Gaussian 16 at Mon Jan  1 11:31:50 2024.
