Unloading slurm/anatra/current
  ERROR: No such file or directory on
    '/cm/local/modulefiles/slurm/anatra/current'
environment: line 0: unalias: gv: not found
environment: line 0: unalias: sl: not found
 Entering Gaussian System, Link 0=g16
 Initial command:
 /apps/gaussian/g16/C.01/g16/l1.exe "/local/jobs/1149248/Gau-2099741.inp" -scrdir="/local/jobs/1149248/"
 Entering Link 1 = /apps/gaussian/g16/C.01/g16/l1.exe PID=   2099742.
  
 Copyright (c) 1988-2019, Gaussian, Inc.  All Rights Reserved.
  
 This is part of the Gaussian(R) 16 program.  It is based on
 the Gaussian(R) 09 system (copyright 2009, Gaussian, Inc.),
 the Gaussian(R) 03 system (copyright 2003, Gaussian, Inc.),
 the Gaussian(R) 98 system (copyright 1998, Gaussian, Inc.),
 the Gaussian(R) 94 system (copyright 1995, Gaussian, Inc.),
 the Gaussian 92(TM) system (copyright 1992, Gaussian, Inc.),
 the Gaussian 90(TM) system (copyright 1990, Gaussian, Inc.),
 the Gaussian 88(TM) system (copyright 1988, Gaussian, Inc.),
 the Gaussian 86(TM) system (copyright 1986, Carnegie Mellon
 University), and the Gaussian 82(TM) system (copyright 1983,
 Carnegie Mellon University). Gaussian is a federally registered
 trademark of Gaussian, Inc.
  
 This software contains proprietary and confidential information,
 including trade secrets, belonging to Gaussian, Inc.
  
 This software is provided under written license and may be
 used, copied, transmitted, or stored only in accord with that
 written license.
  
 The following legend is applicable only to US Government
 contracts under FAR:
  
                    RESTRICTED RIGHTS LEGEND
  
 Use, reproduction and disclosure by the US Government is
 subject to restrictions as set forth in subparagraphs (a)
 and (c) of the Commercial Computer Software - Restricted
 Rights clause in FAR 52.227-19.
  
 Gaussian, Inc.
 340 Quinnipiac St., Bldg. 40, Wallingford CT 06492
  
  
 ---------------------------------------------------------------
 Warning -- This program may not be used in any manner that
 competes with the business of Gaussian, Inc. or will provide
 assistance to any competitor of Gaussian, Inc.  The licensee
 of this program is prohibited from giving any competitor of
 Gaussian, Inc. access to this program.  By using this program,
 the user acknowledges that Gaussian, Inc. is engaged in the
 business of creating and licensing software in the field of
 computational chemistry and represents and warrants to the
 licensee that it is not a competitor of Gaussian, Inc. and that
 it will not use this program in any manner prohibited above.
 ---------------------------------------------------------------
  

 Cite this work as:
 Gaussian 16, Revision C.01,
 M. J. Frisch, G. W. Trucks, H. B. Schlegel, G. E. Scuseria, 
 M. A. Robb, J. R. Cheeseman, G. Scalmani, V. Barone, 
 G. A. Petersson, H. Nakatsuji, X. Li, M. Caricato, A. V. Marenich, 
 J. Bloino, B. G. Janesko, R. Gomperts, B. Mennucci, H. P. Hratchian, 
 J. V. Ortiz, A. F. Izmaylov, J. L. Sonnenberg, D. Williams-Young, 
 F. Ding, F. Lipparini, F. Egidi, J. Goings, B. Peng, A. Petrone, 
 T. Henderson, D. Ranasinghe, V. G. Zakrzewski, J. Gao, N. Rega, 
 G. Zheng, W. Liang, M. Hada, M. Ehara, K. Toyota, R. Fukuda, 
 J. Hasegawa, M. Ishida, T. Nakajima, Y. Honda, O. Kitao, H. Nakai, 
 T. Vreven, K. Throssell, J. A. Montgomery, Jr., J. E. Peralta, 
 F. Ogliaro, M. J. Bearpark, J. J. Heyd, E. N. Brothers, K. N. Kudin, 
 V. N. Staroverov, T. A. Keith, R. Kobayashi, J. Normand, 
 K. Raghavachari, A. P. Rendell, J. C. Burant, S. S. Iyengar, 
 J. Tomasi, M. Cossi, J. M. Millam, M. Klene, C. Adamo, R. Cammi, 
 J. W. Ochterski, R. L. Martin, K. Morokuma, O. Farkas, 
 J. B. Foresman, and D. J. Fox, Gaussian, Inc., Wallingford CT, 2019.
 
 ******************************************
 Gaussian 16:  ES64L-G16RevC.01  3-Jul-2019
                 9-Dec-2023 
 ******************************************
 %chk=boscalid_OPLS3e_1_freq.chk
 %nprocshared=12
 Will use up to   12 processors via shared memory.
 %mem=48GB
 -----------------------------------------------------------
 # m062x 6-31g(d) scrf=(iefpcm,solvent=benzene) freq=noraman
 -----------------------------------------------------------
 1/10=4,30=1,38=1/1,3;
 2/12=2,17=6,18=5,40=1/2;
 3/5=1,6=6,7=1,11=2,25=1,30=1,70=2201,71=2,72=12,74=-55,140=1/1,2,3;
 4//1;
 5/5=2,38=5,53=12,98=1/2;
 8/6=4,10=90,11=11/1;
 11/6=1,8=1,9=11,15=111,16=1/1,2,10;
 10/6=1/2;
 6/7=2,8=2,9=2,10=2,28=1/1;
 7/8=1,10=1,25=1/1,2,3,16;
 1/10=4,30=1/3;
 99//99;
 ------------
 Structure193
 ------------
 Symbolic Z-matrix:
 Charge =  0 Multiplicity = 1
 C                     1.1181    0.1384    0.4005 
 C                     0.9109    0.1994    1.7827 
 C                    -0.3568    0.468     2.2941 
 C                    -1.4239    0.6706    1.4232 
 C                    -1.2344    0.6012    0.0459 
 C                     0.0334    0.3307   -0.4626 
 H                     1.7389    0.0504    2.4609 
 H                    -0.5149    0.5215    3.3612 
 Cl                   -2.9927    1.0066    2.0557 
 H                    -2.0693    0.7518   -0.623 
 H                     0.1741    0.2595   -1.5323 
 C                     5.0155   -0.7987   -1.1535 
 C                     4.3624   -1.671    -0.289 
 C                     3.1049   -1.3399    0.2094 
 C                     2.4784   -0.1377   -0.1448 
 C                     3.1489    0.7549   -1.0124 
 C                     4.4154    0.406    -1.5129 
 H                     5.9899   -1.0509   -1.5465 
 H                     4.8269   -2.6061   -0.0103 
 H                     2.602    -2.0342    0.8677 
 N                     2.5126    1.9796   -1.3081 
 H                     4.9614    1.0541   -2.1799 
 H                     1.6152    2.0874   -0.8646 
 C                     2.909     3.021    -2.0638 
 O                     3.9746    3.1095   -2.668 
 C                     0.2204    6.326    -2.1383 
 C                     1.5094    6.5162   -1.6435 
 C                     2.3807    5.4268   -1.6215 
 C                     1.9476    4.174    -2.0787 
 C                     0.6381    4.0725   -2.5903 
 N                    -0.2139    5.1308   -2.6071 
 H                    -0.489     7.1414   -2.1769 
 H                     1.8309    7.4857   -1.2905 
 H                     3.3911    5.5556   -1.2543 
 Cl                    0.0155    2.5963   -3.2495 
 

 GradGradGradGradGradGradGradGradGradGradGradGradGradGradGradGradGradGrad
 Berny optimization.
 Initialization pass.
 Trust Radius=3.00D-01 FncErr=1.00D-07 GrdErr=1.00D-07 EigMax=2.50D+02 EigMin=1.00D-04
 Number of steps in this run=      2 maximum allowed number of steps=      2.
 GradGradGradGradGradGradGradGradGradGradGradGradGradGradGradGradGradGrad

                          Input orientation:                          
 ---------------------------------------------------------------------
 Center     Atomic      Atomic             Coordinates (Angstroms)
 Number     Number       Type             X           Y           Z
 ---------------------------------------------------------------------
      1          6           0        1.118100    0.138400    0.400500
      2          6           0        0.910900    0.199400    1.782700
      3          6           0       -0.356800    0.468000    2.294100
      4          6           0       -1.423900    0.670600    1.423200
      5          6           0       -1.234400    0.601200    0.045900
      6          6           0        0.033400    0.330700   -0.462600
      7          1           0        1.738900    0.050400    2.460900
      8          1           0       -0.514900    0.521500    3.361200
      9         17           0       -2.992700    1.006600    2.055700
     10          1           0       -2.069300    0.751800   -0.623000
     11          1           0        0.174100    0.259500   -1.532300
     12          6           0        5.015500   -0.798700   -1.153500
     13          6           0        4.362400   -1.671000   -0.289000
     14          6           0        3.104900   -1.339900    0.209400
     15          6           0        2.478400   -0.137700   -0.144800
     16          6           0        3.148900    0.754900   -1.012400
     17          6           0        4.415400    0.406000   -1.512900
     18          1           0        5.989900   -1.050900   -1.546500
     19          1           0        4.826900   -2.606100   -0.010300
     20          1           0        2.602000   -2.034200    0.867700
     21          7           0        2.512600    1.979600   -1.308100
     22          1           0        4.961400    1.054100   -2.179900
     23          1           0        1.615200    2.087400   -0.864600
     24          6           0        2.909000    3.021000   -2.063800
     25          8           0        3.974600    3.109500   -2.668000
     26          6           0        0.220400    6.326000   -2.138300
     27          6           0        1.509400    6.516200   -1.643500
     28          6           0        2.380700    5.426800   -1.621500
     29          6           0        1.947600    4.174000   -2.078700
     30          6           0        0.638100    4.072500   -2.590300
     31          7           0       -0.213900    5.130800   -2.607100
     32          1           0       -0.489000    7.141400   -2.176900
     33          1           0        1.830900    7.485700   -1.290500
     34          1           0        3.391100    5.555600   -1.254300
     35         17           0        0.015500    2.596300   -3.249500
 ---------------------------------------------------------------------
                    Distance matrix (angstroms):
                    1          2          3          4          5
     1  C    0.000000
     2  C    1.398975   0.000000
     3  C    2.422744   1.393104   0.000000
     4  C    2.791221   2.408850   1.392198   0.000000
     5  C    2.423671   2.789306   2.417091   1.392006   0.000000
     6  C    1.399462   2.414253   2.787562   2.407384   1.392501
     7  H    2.153691   1.080620   2.143402   3.385967   3.869899
     8  H    3.402822   2.151352   1.080074   2.145776   3.393412
     9  Cl   4.515765   3.995522   2.700906   1.724554   2.700975
    10  H    3.403429   3.869642   3.394506   2.147107   1.080354
    11  H    2.154418   3.396426   3.868677   3.384906   2.142743
    12  C    4.299163   5.144435   6.507848   7.089718   6.516098
    13  C    3.778203   4.438827   5.789523   6.472711   6.049729
    14  C    2.483800   3.107789   4.426945   5.101514   4.756483
    15  C    1.491308   2.507179   3.788597   4.282513   3.790412
    16  C    2.549609   3.623508   4.827545   5.181675   4.511867
    17  C    3.821635   4.815099   6.104997   6.541263   5.864145
    18  H    5.379561   6.200247   7.572177   8.169890   7.579953
    19  H    4.632087   5.140110   6.452216   7.201679   6.857790
    20  H    2.672158   2.947204   4.129179   4.881843   4.726378
    21  N    2.872971   3.909936   4.847085   4.966841   4.215841
    22  H    4.718890   5.730555   6.974485   7.341761   6.599033
    23  H    2.376171   3.326978   4.060619   4.059246   3.340362
    24  C    4.193981   5.171981   6.014528   6.038011   5.241567
    25  O    5.138358   6.137073   7.096547   7.199302   6.386744
    26  C    6.748167   7.306590   7.368548   6.882700   6.297659
    27  C    6.708754   7.211034   7.454403   7.223568   6.735706
    28  C    5.800846   6.408947   6.885893   6.809304   6.255844
    29  C    4.808385   5.637606   6.177870   5.992005   5.234878
    30  C    4.965121   5.847944   6.151391   5.650925   4.744020
    31  N    5.978624   6.697330   6.766379   6.131949   5.347626
    32  H    7.633333   8.113539   8.033778   7.463646   6.947710
    33  H    7.573004   7.961226   8.178233   8.025178   7.653651
    34  H    6.103355   6.638045   7.247177   7.363182   6.901583
    35  Cl   4.536463   5.645344   5.949771   5.254933   4.049980
                    6          7          8          9         10
     6  C    0.000000
     7  H    3.396196   0.000000
     8  H    3.867620   2.472264   0.000000
     9  Cl   3.994491   4.844228   2.842384   0.000000
    10  H    2.150442   4.950231   4.282878   2.844824   0.000000
    11  H    1.081260   4.293946   4.948708   4.843607   2.470229
    12  C    5.155018   4.951865   7.260218   8.814156   7.271855
    13  C    4.772544   4.172280   6.474494   8.170964   6.881009
    14  C    3.560421   2.977943   5.147971   6.789375   5.642734
    15  C    2.509665   2.715127   4.656869   6.007042   4.658483
    16  C    3.191953   3.814215   5.710191   6.869923   5.232710
    17  C    4.506742   4.804289   6.933834   8.244730   6.554604
    18  H    6.209956   5.945008   8.298818   9.894254   8.309831
    19  H    5.639771   4.764406   7.048668   8.858109   7.694704
    20  H    3.736329   2.762026   4.739642   6.477536   5.639595
    21  N    3.095186   4.304159   5.752754   6.524585   4.792772
    22  H    5.268549   5.738375   7.808797   9.011674   7.207362
    23  H    2.397851   3.901746   4.984652   5.561387   3.926543
    24  C    4.250956   5.537735   6.884854   7.473831   5.657618
    25  O    5.302695   6.376681   7.950133   8.676336   6.802169
    26  C    6.227886   7.927272   8.029781   7.497310   6.213740
    27  C    6.467883   7.661941   8.067295   8.019269   6.861255
    28  C    5.729145   6.781119   7.567943   7.869777   6.531089
    29  C    4.587690   6.136416   6.999798   7.178597   5.474121
    30  C    4.346704   6.550089   7.025622   6.645883   4.714587
    31  N    5.263174   7.436970   7.546976   6.817071   5.153135
    32  H    7.042539   8.760994   8.631008   7.862518   6.763057
    33  H    7.423641   8.328574   8.697193   8.743164   7.810411
    34  H    6.261032   6.843954   7.867772   8.508960   7.300069
    35  Cl   3.591667   6.485398   6.948919   6.302504   3.827150
                   11         12         13         14         15
    11  H    0.000000
    12  C    4.970154   0.000000
    13  C    4.776451   1.390973   0.000000
    14  C    3.765792   2.408482   1.392600   0.000000
    15  C    2.718956   2.809141   2.433364   1.401158   0.000000
    16  C    3.060254   2.432648   2.807291   2.425473   1.413872
    17  C    4.243874   1.393051   2.411363   2.780628   2.432956
    18  H    5.961617   1.080513   2.148159   3.389680   3.889644
    19  H    5.672451   2.146898   1.080669   2.148677   3.409771
    20  H    4.112877   3.381818   2.137493   1.080888   2.153403
    21  N    2.911630   3.742641   4.217488   3.697662   2.416070
    22  H    4.895816   2.118795   3.370530   3.858313   3.424516
    23  H    2.421531   4.469349   4.690841   3.888324   2.492849
    24  C    3.922761   4.456018   5.222753   4.921714   3.720936
    25  O    4.884272   4.318705   5.353803   5.369634   4.376010
    26  C    6.096868   8.644314   9.193916   8.520449   7.131061
    27  C    6.398569   8.126537   8.775222   8.227829   6.889082
    28  C    5.619433   6.776286   7.488755   7.047332   5.757938
    29  C    4.332109   5.915721   6.572542   6.080941   4.755258
    30  C    3.984172   6.704820   7.221785   6.574002   5.205090
    31  N    5.003529   8.038566   8.519424   7.798530   6.408470
    32  H    6.943757   9.715557  10.235167   9.515408   8.119125
    33  H    7.417642   8.876471   9.552835   9.042344   7.736156
    34  H    6.202826   6.559418   7.355201   7.054945   5.871769
    35  Cl   2.904232   6.396815   6.772736   6.082931   4.814540
                   16         17         18         19         20
    16  C    0.000000
    17  C    1.405793   0.000000
    18  H    3.408439   2.145399   0.000000
    19  H    3.887957   3.391148   2.476111   0.000000
    20  H    3.407779   3.861380   4.274705   2.459295   0.000000
    21  N    1.411455   2.477662   4.618699   5.298010   4.566474
    22  H    2.176633   1.078443   2.426939   4.257032   4.938849
    23  H    2.037066   3.329943   5.426962   5.750981   4.578452
    24  C    2.509622   3.067728   5.132243   6.289631   5.851751
    25  O    2.994484   2.972789   4.756903   6.360650   6.390841
    26  C    6.393819   7.282551   9.383816  10.272811   9.197880
    27  C    6.023191   6.767306   8.794617   9.843247   8.978265
    28  C    4.773655   5.418508   7.415696   8.550283   7.868393
    29  C    3.777613   4.539602   6.627443   7.651039   6.902989
    30  C    4.449759   5.373268   7.482012   8.294947   7.287417
    31  N    5.744562   6.704583   8.821872   9.592323   8.446346
    32  H    7.441623   8.358208  10.463619  11.312237  10.149655
    33  H    6.864265   7.539977   9.499282  10.604686   9.791880
    34  H    4.812889   5.256847   7.105279   8.379881   7.920267
    35  Cl   4.267735   5.212707   7.203869   7.791467   6.714376
                   21         22         23         24         25
    21  N    0.000000
    22  H    2.759204   0.000000
    23  H    1.006797   3.740959   0.000000
    24  C    1.346376   2.845087   1.995898   0.000000
    25  O    2.294220   2.331670   3.140654   1.228167   0.000000
    26  C    4.983433   7.090257   4.640421   4.261120   4.971969
    27  C    4.658288   6.483715   4.498016   3.788397   4.328096
    28  C    3.463929   5.108065   3.508629   2.502519   3.000926
    29  C    2.393416   4.339010   2.436889   1.501306   2.364141
    30  C    3.088368   5.288676   2.805956   2.557311   3.473563
    31  N    4.364775   6.601948   3.955275   3.807747   4.651118
    32  H    6.033954   8.170807   5.629627   5.341993   6.034991
    33  H    5.548167   7.208089   5.419369   4.657664   5.063999
    34  H    3.682721   4.856550   3.915878   2.704054   2.884861
    35  Cl   3.222555   5.290024   2.916465   3.155724   4.034351
                   26         27         28         29         30
    26  C    0.000000
    27  C    1.393745   0.000000
    28  C    2.396360   1.395149   0.000000
    29  C    2.760050   2.422255   1.402182   0.000000
    30  C    2.336031   2.761750   2.410261   1.409549   0.000000
    31  N    1.355320   2.411975   2.791231   2.422139   1.358744
    32  H    1.081488   2.160785   3.388731   3.840850   3.295361
    33  H    2.158096   1.080695   2.156597   3.406205   3.842159
    34  H    3.380578   2.148261   1.082743   2.161515   3.400513
    35  Cl   3.897103   4.491836   4.031908   2.755525   1.732438
                   31         32         33         34         35
    31  N    0.000000
    32  H    2.074431   0.000000
    33  H    3.385291   2.507226   0.000000
    34  H    3.873829   4.291984   2.482100   0.000000
    35  Cl   2.624689   4.697119   5.571319   4.912530   0.000000
 Stoichiometry    C18H12Cl2N2O
 Framework group  C1[X(C18H12Cl2N2O)]
 Deg. of freedom    99
 Full point group                 C1      NOp   1
 Largest Abelian subgroup         C1      NOp   1
 Largest concise Abelian subgroup C1      NOp   1
                         Standard orientation:                         
 ---------------------------------------------------------------------
 Center     Atomic      Atomic             Coordinates (Angstroms)
 Number     Number       Type             X           Y           Z
 ---------------------------------------------------------------------
      1          6           0       -2.056701    0.420141   -0.083260
      2          6           0       -2.860185   -0.057496   -1.124128
      3          6           0       -3.239500   -1.397382   -1.163669
      4          6           0       -2.820694   -2.263466   -0.157330
      5          6           0       -2.030687   -1.799152    0.890517
      6          6           0       -1.654518   -0.458964    0.928628
      7          1           0       -3.180165    0.610713   -1.910798
      8          1           0       -3.854385   -1.767078   -1.971011
      9         17           0       -3.287078   -3.922995   -0.207681
     10          1           0       -1.716452   -2.475973    1.671757
     11          1           0       -1.055941   -0.097081    1.753170
     12          6           0       -0.988028    4.581290    0.076668
     13          6           0       -2.321644    4.186301    0.060505
     14          6           0       -2.642274    2.832572   -0.002354
     15          6           0       -1.642227    1.852293   -0.049309
     16          6           0       -0.286962    2.255140   -0.047073
     17          6           0        0.023066    3.624560    0.022392
     18          1           0       -0.732224    5.629797    0.128686
     19          1           0       -3.106608    4.927813    0.103353
     20          1           0       -3.682541    2.539066    0.001755
     21          7           0        0.694387    1.245611   -0.147126
     22          1           0        1.042249    3.977040    0.030337
     23          1           0        0.314241    0.314867   -0.200470
     24          6           0        2.037676    1.321530   -0.197504
     25          8           0        2.703147    2.353546   -0.175508
     26          6           0        4.041895   -2.409992   -0.662264
     27          6           0        4.199343   -1.433027   -1.643730
     28          6           0        3.536762   -0.215857   -1.482723
     29          6           0        2.725038   -0.003337   -0.359310
     30          6           0        2.641869   -1.031480    0.601331
     31          7           0        3.281595   -2.219763    0.443471
     32          1           0        4.537520   -3.367823   -0.743068
     33          1           0        4.824837   -1.609523   -2.507157
     34          1           0        3.656349    0.562220   -2.226113
     35         17           0        1.729590   -0.857910    2.063851
 ---------------------------------------------------------------------
 Rotational constants (GHZ):           0.2279962           0.1941572           0.1198480
 Standard basis: 6-31G(d) (6D, 7F)
 There are   377 symmetry adapted cartesian basis functions of A   symmetry.
 There are   377 symmetry adapted basis functions of A   symmetry.
   377 basis functions,   740 primitive gaussians,   377 cartesian basis functions
    88 alpha electrons       88 beta electrons
       nuclear repulsion energy      2044.2042106614 Hartrees.
 NAtoms=   35 NActive=   35 NUniq=   35 SFac= 1.00D+00 NAtFMM=   60 NAOKFM=F Big=F
 Integral buffers will be    131072 words long.
 Raffenetti 2 integral format.
 Two-electron integral symmetry is turned on.
 Force inversion solution in PCM.
 ------------------------------------------------------------------------------
 Polarizable Continuum Model (PCM)
 =================================
 Model                : PCM.
 Atomic radii         : UFF (Universal Force Field).
 Polarization charges : Total charges.
 Charge compensation  : None.
 Solution method      : Matrix inversion.
 Cavity type          : Scaled VdW (van der Waals Surface) (Alpha=1.100).
 Cavity algorithm     : GePol (No added spheres)
                        Default sphere list used, NSphG=   35.
                        Lebedev-Laikov grids with approx.  5.0 points / Ang**2.
                        Smoothing algorithm: York/Karplus (Gamma=1.0000).
                        Polarization charges: spherical gaussians, with
                                              point-specific exponents (IZeta= 3).
                        Self-potential: point-specific (ISelfS= 7).
                        Self-field    : sphere-specific E.n sum rule (ISelfD= 2).
 1st derivatives      : Analytical E(r).r(x)/FMM algorithm (CHGder, D1EAlg=3).
                        Cavity 1st derivative terms included.
 2nd derivatives      : Analytical E(r).r(xy)/FMM algorithm (CHGder, D2EAlg=3).
                        Cavity 2nd derivative terms included.
 Solvent              : Benzene, Eps=   2.270600 Eps(inf)=   2.253301
 ------------------------------------------------------------------------------
 One-electron integrals computed using PRISM.
 NBasis=   377 RedAO= T EigKep=  3.65D-04  NBF=   377
 NBsUse=   377 1.00D-06 EigRej= -1.00D+00 NBFU=   377
 ExpMin= 1.43D-01 ExpMax= 2.52D+04 ExpMxC= 3.78D+03 IAcc=3 IRadAn=         5 AccDes= 0.00D+00
 Harris functional with IExCor= 1009 and IRadAn=       5 diagonalized for initial guess.
 HarFok:  IExCor= 1009 AccDes= 0.00D+00 IRadAn=         5 IDoV= 1 UseB2=F ITyADJ=14
 ICtDFT=  3500011 ScaDFX=  1.000000  1.000000  1.000000  1.000000
 FoFCou: FMM=F IPFlag=           0 FMFlag=      100000 FMFlg1=           0
         NFxFlg=           0 DoJE=T BraDBF=F KetDBF=T FulRan=T
         wScrn=  0.000000 ICntrl=       500 IOpCl=  0 I1Cent=   200000004 NGrid=           0
         NMat0=    1 NMatS0=      1 NMatT0=    0 NMatD0=    1 NMtDS0=    0 NMtDT0=    0
 Petite list used in FoFCou.
 Requested convergence on RMS density matrix=1.00D-08 within 128 cycles.
 Requested convergence on MAX density matrix=1.00D-06.
 Requested convergence on             energy=1.00D-06.
 No special actions if energy rises.
 Inv3:  Mode=1 IEnd=    23992752.
 Iteration    1 A*A^-1 deviation from unit magnitude is 3.00D-15 for   1831.
 Iteration    1 A*A^-1 deviation from orthogonality  is 2.87D-15 for   1799    368.
 Iteration    1 A^-1*A deviation from unit magnitude is 3.00D-15 for    546.
 Iteration    1 A^-1*A deviation from orthogonality  is 1.88D-15 for   2744   2206.
 Error on total polarization charges =  0.00836
 SCF Done:  E(RM062X) =  -1797.86679223     A.U. after   14 cycles
            NFock= 14  Conv=0.72D-08     -V/T= 2.0056
 DoSCS=F DFT=T ScalE2(SS,OS)=  1.000000  1.000000
 Range of M.O.s used for correlation:     1   377
 NBasis=   377 NAE=    88 NBE=    88 NFC=     0 NFV=     0
 NROrb=    377 NOA=    88 NOB=    88 NVA=   289 NVB=   289
 Symmetrizing basis deriv contribution to polar:
 IMax=3 JMax=2 DiffMx= 0.00D+00
 G2DrvN: will do    36 centers at a time, making    1 passes.
 Calling FoFCou, ICntrl=  3107 FMM=F I1Cent=   0 AccDes= 0.00D+00.
 NEqPCM:  Using equilibrium solvation (IEInf=0, Eps=   2.2706, EpsInf=   2.2533)
 G2PCM: DoFxE=T DoFxN=T DoGrad=T DoDP/DQ/DG/TGxP=FFFF NFrqRd=   0 IEInf=0 SqF1=F DoCFld=F IF1Alg=4.
 End of G2Drv F.D. properties file   721 does not exist.
 End of G2Drv F.D. properties file   722 does not exist.
 End of G2Drv F.D. properties file   788 does not exist.
          IDoAtm=11111111111111111111111111111111111
 NEqPCM:  Using equilibrium solvation (IEInf=0, Eps=   2.2706, EpsInf=   2.2533)
          Differentiating once with respect to electric field.
                with respect to dipole field.
          Differentiating once with respect to nuclear coordinates.
 Keep R1 ints in memory in canonical form, NReq=2565553412.
          There are   108 degrees of freedom in the 1st order CPHF.  IDoFFX=6 NUNeed=     3.
    105 vectors produced by pass  0 Test12= 2.54D-14 1.00D-09 XBig12= 1.96D+02 4.90D+00.
 AX will form   105 AO Fock derivatives at one time.
    105 vectors produced by pass  1 Test12= 2.54D-14 1.00D-09 XBig12= 1.96D+01 6.29D-01.
    105 vectors produced by pass  2 Test12= 2.54D-14 1.00D-09 XBig12= 3.52D-01 6.69D-02.
    105 vectors produced by pass  3 Test12= 2.54D-14 1.00D-09 XBig12= 3.01D-03 5.59D-03.
    105 vectors produced by pass  4 Test12= 2.54D-14 1.00D-09 XBig12= 1.91D-05 3.78D-04.
    105 vectors produced by pass  5 Test12= 2.54D-14 1.00D-09 XBig12= 8.27D-08 3.36D-05.
     89 vectors produced by pass  6 Test12= 2.54D-14 1.00D-09 XBig12= 2.97D-10 1.22D-06.
      3 vectors produced by pass  7 Test12= 2.54D-14 1.00D-09 XBig12= 9.33D-13 9.02D-08.
      3 vectors produced by pass  8 Test12= 2.54D-14 1.00D-09 XBig12= 3.10D-15 4.63D-09.
 InvSVY:  IOpt=1 It=  1 EMax= 8.88D-15
 Solved reduced A of dimension   725 with   108 vectors.
 Isotropic polarizability for W=    0.000000      246.56 Bohr**3.
 End of Minotr F.D. properties file   721 does not exist.
 End of Minotr F.D. properties file   722 does not exist.
 End of Minotr F.D. properties file   788 does not exist.

 **********************************************************************

            Population analysis using the SCF Density.

 **********************************************************************

 Orbital symmetries:
       Occupied  (A) (A) (A) (A) (A) (A) (A) (A) (A) (A) (A) (A)
                 (A) (A) (A) (A) (A) (A) (A) (A) (A) (A) (A) (A)
                 (A) (A) (A) (A) (A) (A) (A) (A) (A) (A) (A) (A)
                 (A) (A) (A) (A) (A) (A) (A) (A) (A) (A) (A) (A)
                 (A) (A) (A) (A) (A) (A) (A) (A) (A) (A) (A) (A)
                 (A) (A) (A) (A) (A) (A) (A) (A) (A) (A) (A) (A)
                 (A) (A) (A) (A) (A) (A) (A) (A) (A) (A) (A) (A)
                 (A) (A) (A) (A)
       Virtual   (A) (A) (A) (A) (A) (A) (A) (A) (A) (A) (A) (A)
                 (A) (A) (A) (A) (A) (A) (A) (A) (A) (A) (A) (A)
                 (A) (A) (A) (A) (A) (A) (A) (A) (A) (A) (A) (A)
                 (A) (A) (A) (A) (A) (A) (A) (A) (A) (A) (A) (A)
                 (A) (A) (A) (A) (A) (A) (A) (A) (A) (A) (A) (A)
                 (A) (A) (A) (A) (A) (A) (A) (A) (A) (A) (A) (A)
                 (A) (A) (A) (A) (A) (A) (A) (A) (A) (A) (A) (A)
                 (A) (A) (A) (A) (A) (A) (A) (A) (A) (A) (A) (A)
                 (A) (A) (A) (A) (A) (A) (A) (A) (A) (A) (A) (A)
                 (A) (A) (A) (A) (A) (A) (A) (A) (A) (A) (A) (A)
                 (A) (A) (A) (A) (A) (A) (A) (A) (A) (A) (A) (A)
                 (A) (A) (A) (A) (A) (A) (A) (A) (A) (A) (A) (A)
                 (A) (A) (A) (A) (A) (A) (A) (A) (A) (A) (A) (A)
                 (A) (A) (A) (A) (A) (A) (A) (A) (A) (A) (A) (A)
                 (A) (A) (A) (A) (A) (A) (A) (A) (A) (A) (A) (A)
                 (A) (A) (A) (A) (A) (A) (A) (A) (A) (A) (A) (A)
                 (A) (A) (A) (A) (A) (A) (A) (A) (A) (A) (A) (A)
                 (A) (A) (A) (A) (A) (A) (A) (A) (A) (A) (A) (A)
                 (A) (A) (A) (A) (A) (A) (A) (A) (A) (A) (A) (A)
                 (A) (A) (A) (A) (A) (A) (A) (A) (A) (A) (A) (A)
                 (A) (A) (A) (A) (A) (A) (A) (A) (A) (A) (A) (A)
                 (A) (A) (A) (A) (A) (A) (A) (A) (A) (A) (A) (A)
                 (A) (A) (A) (A) (A) (A) (A) (A) (A) (A) (A) (A)
                 (A) (A) (A) (A) (A) (A) (A) (A) (A) (A) (A) (A)
                 (A)
 The electronic state is 1-A.
 Alpha  occ. eigenvalues -- -102.68604-102.67507 -19.62650 -14.81351 -14.78823
 Alpha  occ. eigenvalues --  -10.67633 -10.66860 -10.62277 -10.61326 -10.61012
 Alpha  occ. eigenvalues --  -10.59722 -10.59405 -10.57932 -10.57825 -10.57407
 Alpha  occ. eigenvalues --  -10.57294 -10.57283 -10.57142 -10.57113 -10.56024
 Alpha  occ. eigenvalues --  -10.55630 -10.55463 -10.55242  -9.83367  -9.82292
 Alpha  occ. eigenvalues --   -7.55766  -7.55111  -7.55071  -7.54690  -7.54034
 Alpha  occ. eigenvalues --   -7.54014  -1.17455  -1.07872  -1.06846  -1.00820
 Alpha  occ. eigenvalues --   -0.97462  -0.96863  -0.94541  -0.92805  -0.87642
 Alpha  occ. eigenvalues --   -0.86939  -0.86365  -0.84515  -0.81636  -0.76405
 Alpha  occ. eigenvalues --   -0.72862  -0.72212  -0.71399  -0.71004  -0.67463
 Alpha  occ. eigenvalues --   -0.66227  -0.63527  -0.61445  -0.59574  -0.58998
 Alpha  occ. eigenvalues --   -0.57729  -0.55926  -0.55202  -0.53878  -0.53237
 Alpha  occ. eigenvalues --   -0.52144  -0.51746  -0.50830  -0.50641  -0.50139
 Alpha  occ. eigenvalues --   -0.49779  -0.49205  -0.48925  -0.47720  -0.46008
 Alpha  occ. eigenvalues --   -0.44911  -0.44570  -0.43226  -0.42515  -0.41927
 Alpha  occ. eigenvalues --   -0.40686  -0.40201  -0.39726  -0.38209  -0.37743
 Alpha  occ. eigenvalues --   -0.36801  -0.35478  -0.33327  -0.32621  -0.32189
 Alpha  occ. eigenvalues --   -0.31833  -0.29555  -0.27533
 Alpha virt. eigenvalues --   -0.01689  -0.00964  -0.00130   0.01032   0.02297
 Alpha virt. eigenvalues --    0.03821   0.07112   0.07947   0.08799   0.14145
 Alpha virt. eigenvalues --    0.14574   0.15220   0.16484   0.17226   0.17924
 Alpha virt. eigenvalues --    0.18120   0.19326   0.20410   0.20861   0.21320
 Alpha virt. eigenvalues --    0.21915   0.22191   0.23397   0.24455   0.25825
 Alpha virt. eigenvalues --    0.26790   0.26926   0.28597   0.30315   0.31069
 Alpha virt. eigenvalues --    0.31425   0.31513   0.32713   0.34942   0.35309
 Alpha virt. eigenvalues --    0.36456   0.36588   0.38497   0.39251   0.40714
 Alpha virt. eigenvalues --    0.41669   0.44824   0.44947   0.45173   0.46019
 Alpha virt. eigenvalues --    0.46880   0.47302   0.48022   0.48395   0.49019
 Alpha virt. eigenvalues --    0.51758   0.52779   0.53401   0.55279   0.55531
 Alpha virt. eigenvalues --    0.56530   0.57581   0.57908   0.58777   0.59523
 Alpha virt. eigenvalues --    0.59778   0.60021   0.60902   0.61567   0.61648
 Alpha virt. eigenvalues --    0.62441   0.63068   0.63253   0.63853   0.63989
 Alpha virt. eigenvalues --    0.64115   0.64712   0.64866   0.65315   0.65760
 Alpha virt. eigenvalues --    0.65965   0.66921   0.67562   0.68202   0.69294
 Alpha virt. eigenvalues --    0.70127   0.70489   0.71123   0.71740   0.73806
 Alpha virt. eigenvalues --    0.74742   0.75252   0.76500   0.77410   0.78849
 Alpha virt. eigenvalues --    0.79909   0.81917   0.83136   0.85182   0.86032
 Alpha virt. eigenvalues --    0.86823   0.87026   0.87378   0.87574   0.88678
 Alpha virt. eigenvalues --    0.89036   0.89612   0.90178   0.90773   0.91141
 Alpha virt. eigenvalues --    0.91646   0.92071   0.93055   0.93262   0.94022
 Alpha virt. eigenvalues --    0.94442   0.94911   0.95831   0.96762   0.97272
 Alpha virt. eigenvalues --    0.97894   0.98218   0.99261   1.00116   1.00761
 Alpha virt. eigenvalues --    1.00967   1.01713   1.03539   1.04587   1.05594
 Alpha virt. eigenvalues --    1.07188   1.08165   1.09350   1.10066   1.11579
 Alpha virt. eigenvalues --    1.11990   1.12866   1.13457   1.14355   1.15587
 Alpha virt. eigenvalues --    1.17099   1.18503   1.19128   1.20239   1.21347
 Alpha virt. eigenvalues --    1.21843   1.23752   1.25137   1.26768   1.28312
 Alpha virt. eigenvalues --    1.29876   1.30840   1.31671   1.32952   1.35260
 Alpha virt. eigenvalues --    1.38050   1.39305   1.41071   1.42162   1.44527
 Alpha virt. eigenvalues --    1.46537   1.46814   1.48250   1.49523   1.49783
 Alpha virt. eigenvalues --    1.50506   1.51346   1.51711   1.52752   1.53156
 Alpha virt. eigenvalues --    1.54216   1.54614   1.55270   1.56593   1.58149
 Alpha virt. eigenvalues --    1.58777   1.59344   1.61378   1.65480   1.70605
 Alpha virt. eigenvalues --    1.71850   1.75750   1.76773   1.78878   1.79043
 Alpha virt. eigenvalues --    1.82551   1.83011   1.84092   1.85087   1.85527
 Alpha virt. eigenvalues --    1.86413   1.86577   1.86915   1.89579   1.91075
 Alpha virt. eigenvalues --    1.93694   1.95435   1.96840   1.97302   1.98609
 Alpha virt. eigenvalues --    2.00300   2.01565   2.02908   2.05739   2.06381
 Alpha virt. eigenvalues --    2.07745   2.10237   2.10517   2.11565   2.12366
 Alpha virt. eigenvalues --    2.13642   2.14691   2.15138   2.16395   2.17030
 Alpha virt. eigenvalues --    2.17765   2.18074   2.18556   2.22076   2.23760
 Alpha virt. eigenvalues --    2.24379   2.25371   2.28244   2.28579   2.30685
 Alpha virt. eigenvalues --    2.31905   2.32316   2.33775   2.34617   2.34988
 Alpha virt. eigenvalues --    2.36579   2.38760   2.40415   2.40640   2.44805
 Alpha virt. eigenvalues --    2.46669   2.52661   2.53290   2.57414   2.58292
 Alpha virt. eigenvalues --    2.60226   2.62348   2.62786   2.64712   2.65201
 Alpha virt. eigenvalues --    2.66643   2.67851   2.69780   2.70736   2.72648
 Alpha virt. eigenvalues --    2.73276   2.74221   2.75399   2.76025   2.76791
 Alpha virt. eigenvalues --    2.77701   2.77896   2.81061   2.84154   2.85041
 Alpha virt. eigenvalues --    2.88334   2.93490   2.99183   3.01031   3.03660
 Alpha virt. eigenvalues --    3.10289   3.14760   3.30037   3.35520   3.38602
 Alpha virt. eigenvalues --    3.46068   4.06241   4.06947   4.08123   4.10584
 Alpha virt. eigenvalues --    4.11931   4.13420   4.15042   4.16208   4.17820
 Alpha virt. eigenvalues --    4.21033   4.22187   4.25243   4.31416   4.34349
 Alpha virt. eigenvalues --    4.36371   4.38033   4.39149   4.41890   4.45458
 Alpha virt. eigenvalues --    4.53049   4.66634   4.69036   4.81093
          Condensed to atoms (all electrons):
               1          2          3          4          5          6
     1  C    4.893206   0.558259  -0.028362  -0.031160  -0.030002   0.531446
     2  C    0.558259   4.917002   0.514851  -0.040479  -0.039845  -0.047977
     3  C   -0.028362   0.514851   4.959916   0.534283  -0.043124  -0.040842
     4  C   -0.031160  -0.040479   0.534283   4.980181   0.536402  -0.039712
     5  C   -0.030002  -0.039845  -0.043124   0.536402   4.947935   0.515056
     6  C    0.531446  -0.047977  -0.040842  -0.039712   0.515056   4.977119
     7  H   -0.040786   0.368576  -0.035529   0.004064   0.000244   0.004832
     8  H    0.003135  -0.028050   0.368983  -0.040841   0.003598   0.000606
     9  Cl   0.000543   0.004183  -0.073808   0.241527  -0.073446   0.004296
    10  H    0.003146   0.000602   0.003590  -0.040076   0.368964  -0.028164
    11  H   -0.043491   0.004519   0.000303   0.004018  -0.034368   0.369780
    12  C    0.000029   0.000006  -0.000000   0.000000  -0.000000   0.000012
    13  C    0.006318   0.000201   0.000002  -0.000000   0.000002  -0.000121
    14  C   -0.061752  -0.006938   0.000280   0.000016  -0.000111   0.003175
    15  C    0.314422  -0.047849   0.006004   0.000609   0.006091  -0.055175
    16  C   -0.056982   0.003223  -0.000111   0.000014   0.000286  -0.005542
    17  C    0.008819  -0.000101   0.000002  -0.000000   0.000002  -0.000005
    18  H    0.000007   0.000000   0.000000  -0.000000   0.000000  -0.000000
    19  H   -0.000182  -0.000006  -0.000000   0.000000  -0.000000   0.000001
    20  H   -0.004820   0.003415  -0.000091  -0.000008  -0.000030   0.000348
    21  N   -0.023764   0.000018   0.000016   0.000027  -0.000399  -0.005753
    22  H   -0.000087   0.000001  -0.000000   0.000000  -0.000000  -0.000002
    23  H    0.018170   0.000277  -0.000221  -0.000204   0.000385   0.014820
    24  C    0.000434   0.000007  -0.000001  -0.000001  -0.000022  -0.000063
    25  O   -0.000003  -0.000000   0.000000   0.000000  -0.000000  -0.000004
    26  C    0.000000  -0.000000   0.000000   0.000000  -0.000000   0.000000
    27  C    0.000000   0.000000   0.000000  -0.000000  -0.000000  -0.000000
    28  C   -0.000004  -0.000000  -0.000000   0.000000   0.000000   0.000002
    29  C   -0.000091   0.000000  -0.000000   0.000001   0.000010   0.000038
    30  C   -0.000040   0.000000   0.000001  -0.000004  -0.000017  -0.000122
    31  N   -0.000000   0.000000   0.000000   0.000000  -0.000003  -0.000011
    32  H   -0.000000  -0.000000   0.000000   0.000000  -0.000000   0.000000
    33  H    0.000000  -0.000000   0.000000  -0.000000  -0.000000  -0.000000
    34  H   -0.000000  -0.000000   0.000000   0.000000   0.000000  -0.000000
    35  Cl  -0.000244  -0.000016   0.000001   0.000002   0.000016  -0.003568
               7          8          9         10         11         12
     1  C   -0.040786   0.003135   0.000543   0.003146  -0.043491   0.000029
     2  C    0.368576  -0.028050   0.004183   0.000602   0.004519   0.000006
     3  C   -0.035529   0.368983  -0.073808   0.003590   0.000303  -0.000000
     4  C    0.004064  -0.040841   0.241527  -0.040076   0.004018   0.000000
     5  C    0.000244   0.003598  -0.073446   0.368964  -0.034368  -0.000000
     6  C    0.004832   0.000606   0.004296  -0.028164   0.369780   0.000012
     7  H    0.511536  -0.004318  -0.000136   0.000014  -0.000137  -0.000006
     8  H   -0.004318   0.497116  -0.000451  -0.000141   0.000014  -0.000000
     9  Cl  -0.000136  -0.000451  16.890786  -0.000505  -0.000135   0.000000
    10  H    0.000014  -0.000141  -0.000505   0.492052  -0.004321   0.000000
    11  H   -0.000137   0.000014  -0.000135  -0.004321   0.505254  -0.000011
    12  C   -0.000006  -0.000000   0.000000   0.000000  -0.000011   4.901046
    13  C   -0.000075  -0.000000   0.000000  -0.000000  -0.000009   0.548057
    14  C    0.003282  -0.000004  -0.000000   0.000001   0.000170  -0.034644
    15  C   -0.004408  -0.000158   0.000008  -0.000152  -0.004768  -0.037046
    16  C    0.000207   0.000001  -0.000000  -0.000004   0.002340  -0.018731
    17  C   -0.000018  -0.000000   0.000000  -0.000000  -0.000053   0.510189
    18  H   -0.000000  -0.000000  -0.000000  -0.000000  -0.000000   0.370313
    19  H    0.000002   0.000000  -0.000000   0.000000   0.000000  -0.037724
    20  H    0.000820   0.000003   0.000000   0.000000   0.000017   0.004163
    21  N   -0.000010   0.000000  -0.000000  -0.000001  -0.000567   0.005579
    22  H    0.000000   0.000000  -0.000000   0.000000   0.000004  -0.039199
    23  H    0.000006  -0.000001   0.000003   0.000005  -0.000821  -0.000086
    24  C    0.000001  -0.000000   0.000000   0.000000  -0.000077   0.000295
    25  O    0.000000  -0.000000  -0.000000  -0.000000  -0.000001   0.000600
    26  C   -0.000000   0.000000  -0.000000   0.000000  -0.000000   0.000000
    27  C    0.000000  -0.000000   0.000000   0.000000   0.000000   0.000000
    28  C    0.000000  -0.000000  -0.000000   0.000000   0.000001  -0.000000
    29  C   -0.000000   0.000000  -0.000000  -0.000000   0.000033   0.000004
    30  C    0.000000  -0.000000   0.000000  -0.000006  -0.000279  -0.000000
    31  N    0.000000  -0.000000   0.000000  -0.000001   0.000004   0.000000
    32  H    0.000000  -0.000000  -0.000000   0.000000  -0.000000   0.000000
    33  H   -0.000000   0.000000  -0.000000  -0.000000  -0.000000  -0.000000
    34  H    0.000000  -0.000000  -0.000000   0.000000   0.000000  -0.000000
    35  Cl   0.000000   0.000000  -0.000000   0.000571   0.003044  -0.000001
              13         14         15         16         17         18
     1  C    0.006318  -0.061752   0.314422  -0.056982   0.008819   0.000007
     2  C    0.000201  -0.006938  -0.047849   0.003223  -0.000101   0.000000
     3  C    0.000002   0.000280   0.006004  -0.000111   0.000002   0.000000
     4  C   -0.000000   0.000016   0.000609   0.000014  -0.000000  -0.000000
     5  C    0.000002  -0.000111   0.006091   0.000286   0.000002   0.000000
     6  C   -0.000121   0.003175  -0.055175  -0.005542  -0.000005  -0.000000
     7  H   -0.000075   0.003282  -0.004408   0.000207  -0.000018  -0.000000
     8  H   -0.000000  -0.000004  -0.000158   0.000001  -0.000000  -0.000000
     9  Cl   0.000000  -0.000000   0.000008  -0.000000   0.000000  -0.000000
    10  H   -0.000000   0.000001  -0.000152  -0.000004  -0.000000  -0.000000
    11  H   -0.000009   0.000170  -0.004768   0.002340  -0.000053  -0.000000
    12  C    0.548057  -0.034644  -0.037046  -0.018731   0.510189   0.370313
    13  C    4.896751   0.531672  -0.033559  -0.043516  -0.034786  -0.037749
    14  C    0.531672   4.937214   0.548792  -0.012898  -0.055438   0.003998
    15  C   -0.033559   0.548792   4.929350   0.523962  -0.041796   0.000833
    16  C   -0.043516  -0.012898   0.523962   4.597186   0.541354   0.002775
    17  C   -0.034786  -0.055438  -0.041796   0.541354   5.020132  -0.034149
    18  H   -0.037749   0.003998   0.000833   0.002775  -0.034149   0.521552
    19  H    0.368255  -0.034607   0.003356   0.000876   0.003743  -0.004102
    20  H   -0.035278   0.367532  -0.042442   0.004100   0.000417  -0.000161
    21  N   -0.000094   0.006505  -0.062236   0.221916  -0.080537  -0.000095
    22  H    0.004127   0.000307   0.004338  -0.022922   0.354560  -0.004474
    23  H   -0.000015   0.000085  -0.014592  -0.019372   0.004923   0.000002
    24  C    0.000000  -0.000077   0.005347  -0.026309  -0.001516  -0.000001
    25  O   -0.000003  -0.000003   0.000317  -0.001225  -0.005984  -0.000003
    26  C   -0.000000   0.000000   0.000000  -0.000000   0.000000   0.000000
    27  C    0.000000   0.000000   0.000000   0.000002  -0.000000  -0.000000
    28  C   -0.000000   0.000000   0.000006  -0.000027   0.000004   0.000000
    29  C    0.000000   0.000001  -0.000382   0.005008   0.000602  -0.000000
    30  C   -0.000000  -0.000000   0.000015   0.000219  -0.000016  -0.000000
    31  N    0.000000  -0.000000  -0.000000   0.000005   0.000000  -0.000000
    32  H    0.000000  -0.000000  -0.000000   0.000000   0.000000  -0.000000
    33  H   -0.000000   0.000000   0.000000  -0.000000  -0.000000   0.000000
    34  H   -0.000000  -0.000000   0.000000   0.000004   0.000000   0.000000
    35  Cl   0.000000  -0.000003   0.000124   0.000551  -0.000032  -0.000000
              19         20         21         22         23         24
     1  C   -0.000182  -0.004820  -0.023764  -0.000087   0.018170   0.000434
     2  C   -0.000006   0.003415   0.000018   0.000001   0.000277   0.000007
     3  C   -0.000000  -0.000091   0.000016  -0.000000  -0.000221  -0.000001
     4  C    0.000000  -0.000008   0.000027   0.000000  -0.000204  -0.000001
     5  C   -0.000000  -0.000030  -0.000399  -0.000000   0.000385  -0.000022
     6  C    0.000001   0.000348  -0.005753  -0.000002   0.014820  -0.000063
     7  H    0.000002   0.000820  -0.000010   0.000000   0.000006   0.000001
     8  H    0.000000   0.000003   0.000000   0.000000  -0.000001  -0.000000
     9  Cl  -0.000000   0.000000  -0.000000  -0.000000   0.000003   0.000000
    10  H    0.000000   0.000000  -0.000001   0.000000   0.000005   0.000000
    11  H    0.000000   0.000017  -0.000567   0.000004  -0.000821  -0.000077
    12  C   -0.037724   0.004163   0.005579  -0.039199  -0.000086   0.000295
    13  C    0.368255  -0.035278  -0.000094   0.004127  -0.000015   0.000000
    14  C   -0.034607   0.367532   0.006505   0.000307   0.000085  -0.000077
    15  C    0.003356  -0.042442  -0.062236   0.004338  -0.014592   0.005347
    16  C    0.000876   0.004100   0.221916  -0.022922  -0.019372  -0.026309
    17  C    0.003743   0.000417  -0.080537   0.354560   0.004923  -0.001516
    18  H   -0.004102  -0.000161  -0.000095  -0.004474   0.000002  -0.000001
    19  H    0.530442  -0.004328   0.000006  -0.000144   0.000000  -0.000000
    20  H   -0.004328   0.526733  -0.000082   0.000011  -0.000017   0.000001
    21  N    0.000006  -0.000082   7.402040  -0.010662   0.283833   0.225337
    22  H   -0.000144   0.000011  -0.010662   0.479526  -0.000170   0.003412
    23  H    0.000000  -0.000017   0.283833  -0.000170   0.351627  -0.026060
    24  C   -0.000000   0.000001   0.225337   0.003412  -0.026060   4.417973
    25  O    0.000000  -0.000000  -0.098233   0.016237   0.002857   0.593554
    26  C   -0.000000  -0.000000   0.000007   0.000000  -0.000019   0.000206
    27  C    0.000000  -0.000000  -0.000123   0.000000  -0.000066   0.005822
    28  C   -0.000000   0.000000   0.001112  -0.000004   0.000149  -0.036856
    29  C    0.000000  -0.000000  -0.113974   0.000420   0.005208   0.303421
    30  C    0.000000  -0.000000  -0.007346  -0.000003   0.003082  -0.031848
    31  N    0.000000  -0.000000  -0.000056   0.000000  -0.000186   0.004052
    32  H   -0.000000  -0.000000  -0.000000   0.000000  -0.000000   0.000013
    33  H   -0.000000   0.000000   0.000001  -0.000000   0.000000  -0.000055
    34  H   -0.000000   0.000000   0.000413  -0.000001   0.000003  -0.004156
    35  Cl   0.000000  -0.000000  -0.004680   0.000006   0.001490   0.006959
              25         26         27         28         29         30
     1  C   -0.000003   0.000000   0.000000  -0.000004  -0.000091  -0.000040
     2  C   -0.000000  -0.000000   0.000000  -0.000000   0.000000   0.000000
     3  C    0.000000   0.000000   0.000000  -0.000000  -0.000000   0.000001
     4  C    0.000000   0.000000  -0.000000   0.000000   0.000001  -0.000004
     5  C   -0.000000  -0.000000  -0.000000   0.000000   0.000010  -0.000017
     6  C   -0.000004   0.000000  -0.000000   0.000002   0.000038  -0.000122
     7  H    0.000000  -0.000000   0.000000   0.000000  -0.000000   0.000000
     8  H   -0.000000   0.000000  -0.000000  -0.000000   0.000000  -0.000000
     9  Cl  -0.000000  -0.000000   0.000000  -0.000000  -0.000000   0.000000
    10  H   -0.000000   0.000000   0.000000   0.000000  -0.000000  -0.000006
    11  H   -0.000001  -0.000000   0.000000   0.000001   0.000033  -0.000279
    12  C    0.000600   0.000000   0.000000  -0.000000   0.000004  -0.000000
    13  C   -0.000003  -0.000000   0.000000  -0.000000   0.000000  -0.000000
    14  C   -0.000003   0.000000   0.000000   0.000000   0.000001  -0.000000
    15  C    0.000317   0.000000   0.000000   0.000006  -0.000382   0.000015
    16  C   -0.001225  -0.000000   0.000002  -0.000027   0.005008   0.000219
    17  C   -0.005984   0.000000  -0.000000   0.000004   0.000602  -0.000016
    18  H   -0.000003   0.000000  -0.000000   0.000000  -0.000000  -0.000000
    19  H    0.000000  -0.000000   0.000000  -0.000000   0.000000   0.000000
    20  H   -0.000000  -0.000000  -0.000000   0.000000  -0.000000  -0.000000
    21  N   -0.098233   0.000007  -0.000123   0.001112  -0.113974  -0.007346
    22  H    0.016237   0.000000   0.000000  -0.000004   0.000420  -0.000003
    23  H    0.002857  -0.000019  -0.000066   0.000149   0.005208   0.003082
    24  C    0.593554   0.000206   0.005822  -0.036856   0.303421  -0.031848
    25  O    8.097678  -0.000001   0.000224   0.003950  -0.093129   0.000392
    26  C   -0.000001   4.775737   0.506103  -0.037493  -0.030425  -0.070484
    27  C    0.000224   0.506103   4.968889   0.528314  -0.029582  -0.038759
    28  C    0.003950  -0.037493   0.528314   4.893280   0.516807  -0.040308
    29  C   -0.093129  -0.030425  -0.029582   0.516807   5.155392   0.451840
    30  C    0.000392  -0.070484  -0.038759  -0.040308   0.451840   4.987336
    31  N   -0.000036   0.457950  -0.031648  -0.049872  -0.037383   0.394984
    32  H   -0.000000   0.388008  -0.053582   0.002989   0.000457   0.004569
    33  H   -0.000001  -0.031590   0.363368  -0.033780   0.004785   0.000368
    34  H    0.002889   0.004052  -0.035933   0.374914  -0.043325   0.004498
    35  Cl  -0.000291   0.004056   0.000059   0.003262  -0.094792   0.285207
              31         32         33         34         35
     1  C   -0.000000  -0.000000   0.000000  -0.000000  -0.000244
     2  C    0.000000  -0.000000  -0.000000  -0.000000  -0.000016
     3  C    0.000000   0.000000   0.000000   0.000000   0.000001
     4  C    0.000000   0.000000  -0.000000   0.000000   0.000002
     5  C   -0.000003  -0.000000  -0.000000   0.000000   0.000016
     6  C   -0.000011   0.000000  -0.000000  -0.000000  -0.003568
     7  H    0.000000   0.000000  -0.000000   0.000000   0.000000
     8  H   -0.000000  -0.000000   0.000000  -0.000000   0.000000
     9  Cl   0.000000  -0.000000  -0.000000  -0.000000  -0.000000
    10  H   -0.000001   0.000000  -0.000000   0.000000   0.000571
    11  H    0.000004  -0.000000  -0.000000   0.000000   0.003044
    12  C    0.000000   0.000000  -0.000000  -0.000000  -0.000001
    13  C    0.000000   0.000000  -0.000000  -0.000000   0.000000
    14  C   -0.000000  -0.000000   0.000000  -0.000000  -0.000003
    15  C   -0.000000  -0.000000   0.000000   0.000000   0.000124
    16  C    0.000005   0.000000  -0.000000   0.000004   0.000551
    17  C    0.000000   0.000000  -0.000000   0.000000  -0.000032
    18  H   -0.000000  -0.000000   0.000000   0.000000  -0.000000
    19  H    0.000000  -0.000000  -0.000000  -0.000000   0.000000
    20  H   -0.000000  -0.000000   0.000000   0.000000  -0.000000
    21  N   -0.000056  -0.000000   0.000001   0.000413  -0.004680
    22  H    0.000000   0.000000  -0.000000  -0.000001   0.000006
    23  H   -0.000186  -0.000000   0.000000   0.000003   0.001490
    24  C    0.004052   0.000013  -0.000055  -0.004156   0.006959
    25  O   -0.000036  -0.000000  -0.000001   0.002889  -0.000291
    26  C    0.457950   0.388008  -0.031590   0.004052   0.004056
    27  C   -0.031648  -0.053582   0.363368  -0.035933   0.000059
    28  C   -0.049872   0.002989  -0.033780   0.374914   0.003262
    29  C   -0.037383   0.000457   0.004785  -0.043325  -0.094792
    30  C    0.394984   0.004569   0.000368   0.004498   0.285207
    31  N    6.837951  -0.047570   0.003934  -0.000215  -0.080761
    32  H   -0.047570   0.501301  -0.001195  -0.000132  -0.000135
    33  H    0.003934  -0.001195   0.495898  -0.004150   0.000013
    34  H   -0.000215  -0.000132  -0.004150   0.482864  -0.000094
    35  Cl  -0.080761  -0.000135   0.000013  -0.000094  16.832758
 Mulliken charges:
               1
     1  C   -0.016161
     2  C   -0.163882
     3  C   -0.166140
     4  C   -0.108658
     5  C   -0.157624
     6  C   -0.194470
     7  H    0.191838
     8  H    0.200509
     9  Cl   0.007138
    10  H    0.204428
    11  H    0.199536
    12  C   -0.172845
    13  C   -0.170180
    14  C   -0.196554
    15  C    0.000990
    16  C    0.303611
    17  C   -0.190314
    18  H    0.181254
    19  H    0.174412
    20  H    0.179695
    21  N   -0.738198
    22  H    0.214720
    23  H    0.374905
    24  C    0.560208
    25  O   -0.519780
    26  C    0.033894
    27  C   -0.183085
    28  C   -0.126443
    29  C   -0.000942
    30  C    0.056721
    31  N   -0.451137
    32  H    0.205278
    33  H    0.202405
    34  H    0.218370
    35  Cl   0.046502
 Sum of Mulliken charges =  -0.00000
 Mulliken charges with hydrogens summed into heavy atoms:
               1
     1  C   -0.016161
     2  C    0.027956
     3  C    0.034369
     4  C   -0.108658
     5  C    0.046805
     6  C    0.005066
     9  Cl   0.007138
    12  C    0.008409
    13  C    0.004232
    14  C   -0.016860
    15  C    0.000990
    16  C    0.303611
    17  C    0.024406
    21  N   -0.363292
    24  C    0.560208
    25  O   -0.519780
    26  C    0.239172
    27  C    0.019320
    28  C    0.091927
    29  C   -0.000942
    30  C    0.056721
    31  N   -0.451137
    35  Cl   0.046502
 APT charges:
               1
     1  C    0.083674
     2  C   -0.041765
     3  C   -0.122651
     4  C    0.487750
     5  C   -0.128092
     6  C   -0.089776
     7  H    0.055966
     8  H    0.059824
     9  Cl  -0.413363
    10  H    0.066985
    11  H    0.074925
    12  C    0.022069
    13  C   -0.115747
    14  C   -0.023414
    15  C   -0.027761
    16  C    0.511422
    17  C   -0.163256
    18  H    0.033085
    19  H    0.023778
    20  H    0.046048
    21  N   -1.162611
    22  H    0.105534
    23  H    0.262767
    24  C    1.511522
    25  O   -0.928081
    26  C    0.266764
    27  C   -0.158057
    28  C    0.122404
    29  C   -0.267010
    30  C    0.660945
    31  N   -0.556975
    32  H    0.033704
    33  H    0.057598
    34  H    0.075477
    35  Cl  -0.363682
 Sum of APT charges =   0.00000
 APT charges with hydrogens summed into heavy atoms:
               1
     1  C    0.083674
     2  C    0.014201
     3  C   -0.062827
     4  C    0.487750
     5  C   -0.061108
     6  C   -0.014852
     9  Cl  -0.413363
    12  C    0.055155
    13  C   -0.091969
    14  C    0.022634
    15  C   -0.027761
    16  C    0.511422
    17  C   -0.057722
    21  N   -0.899844
    24  C    1.511522
    25  O   -0.928081
    26  C    0.300468
    27  C   -0.100460
    28  C    0.197881
    29  C   -0.267010
    30  C    0.660945
    31  N   -0.556975
    35  Cl  -0.363682
 Electronic spatial extent (au):  <R**2>=           8746.9499
 Charge=             -0.0000 electrons
 Dipole moment (field-independent basis, Debye):
    X=             -1.0213    Y=              0.0122    Z=             -3.2674  Tot=              3.4233
 Quadrupole moment (field-independent basis, Debye-Ang):
   XX=           -136.8230   YY=           -147.2605   ZZ=           -139.0522
   XY=            -16.3710   XZ=             -9.4343   YZ=              4.0279
 Traceless Quadrupole moment (field-independent basis, Debye-Ang):
   XX=              4.2222   YY=             -6.2153   ZZ=              1.9930
   XY=            -16.3710   XZ=             -9.4343   YZ=              4.0279
 Octapole moment (field-independent basis, Debye-Ang**2):
  XXX=             32.8990  YYY=             44.0000  ZZZ=             -4.6684  XYY=             -8.4365
  XXY=            -24.6512  XXZ=            -69.6193  XZZ=             12.1710  YZZ=            -17.0537
  YYZ=             -3.2811  XYZ=             19.7648
 Hexadecapole moment (field-independent basis, Debye-Ang**3):
 XXXX=          -5698.0954 YYYY=          -4629.0347 ZZZZ=           -841.6126 XXXY=           -269.6894
 XXXZ=           -135.5833 YYYX=           -155.3719 YYYZ=             40.1904 ZZZX=            -27.4894
 ZZZY=             -5.7988 XXYY=          -1787.4660 XXZZ=          -1028.5801 YYZZ=          -1010.1132
 XXYZ=            100.4210 YYXZ=            -51.7861 ZZXY=             43.7452
 N-N= 2.044204210661D+03 E-N=-8.312154817416D+03  KE= 1.787796162859D+03
  Exact polarizability:     247.135     -10.600     323.223     -10.586      -2.635     169.326
 Approx polarizability:     263.626      -4.008     343.491      -7.144      -9.496     216.663
 D2PCM: PCM CHGder 2nd derivatives, FixD1E=F FixD2E=F DoIter=F DoCFld=F I1PDM=0
 Calling FoFJK, ICntrl=    100127 FMM=F ISym2X=0 I1Cent= 0 IOpClX= 0 NMat=1 NMatS=1 NMatT=0.
 Full mass-weighted force constant matrix:
 Low frequencies ---  -12.8274   -8.6572   -0.0012   -0.0002    0.0007    5.0541
 Low frequencies ---   16.6713   29.6454   44.8228
 Diagonal vibrational polarizability:
       50.2767267      32.1619397     375.7305005
 Harmonic frequencies (cm**-1), IR intensities (KM/Mole), Raman scattering
 activities (A**4/AMU), depolarization ratios for plane and unpolarized
 incident light, reduced masses (AMU), force constants (mDyne/A),
 and normal coordinates:
                      1                      2                      3
                      A                      A                      A
 Frequencies --     15.3034                28.6484                38.5541
 Red. masses --      6.0273                10.0998                 8.8046
 Frc consts  --      0.0008                 0.0049                 0.0077
 IR Inten    --      2.3582                 2.3560                 1.1788
  Atom  AN      X      Y      Z        X      Y      Z        X      Y      Z
     1   6     0.00  -0.03  -0.05    -0.02   0.06  -0.01     0.04  -0.01  -0.08
     2   6    -0.17   0.02   0.06    -0.07   0.03   0.05     0.13  -0.08  -0.11
     3   6    -0.21   0.03   0.08     0.01   0.00   0.07     0.10  -0.07  -0.04
     4   6    -0.08  -0.01  -0.02     0.14   0.02   0.03    -0.01   0.00   0.07
     5   6     0.11  -0.07  -0.13     0.17   0.06  -0.01    -0.08   0.06   0.09
     6   6     0.14  -0.08  -0.15     0.08   0.09  -0.03    -0.04   0.05   0.01
     7   1    -0.29   0.05   0.13    -0.16   0.01   0.07     0.21  -0.13  -0.19
     8   1    -0.37   0.08   0.17    -0.02  -0.03   0.11     0.16  -0.12  -0.07
     9  17    -0.15   0.01   0.02     0.30  -0.03   0.02    -0.11   0.02   0.20
    10   1     0.22  -0.10  -0.21     0.28   0.08  -0.04    -0.17   0.12   0.17
    11   1     0.27  -0.12  -0.23     0.13   0.12  -0.08    -0.10   0.10   0.03
    12   6    -0.01  -0.03  -0.01     0.02   0.05  -0.04    -0.02  -0.00  -0.01
    13   6    -0.01  -0.04   0.03     0.01   0.07   0.01    -0.02  -0.02  -0.12
    14   6     0.00  -0.04   0.00    -0.01   0.08   0.01     0.00  -0.02  -0.16
    15   6     0.01  -0.04  -0.05    -0.03   0.07  -0.04     0.02  -0.01  -0.10
    16   6     0.01  -0.02  -0.09    -0.02   0.05  -0.10     0.01   0.01  -0.00
    17   6    -0.01  -0.02  -0.07     0.00   0.04  -0.10    -0.01   0.01   0.05
    18   1    -0.02  -0.03   0.01     0.04   0.05  -0.04    -0.04   0.00   0.04
    19   1    -0.01  -0.05   0.08     0.03   0.08   0.06    -0.03  -0.03  -0.17
    20   1     0.01  -0.05   0.04    -0.02   0.09   0.06     0.01  -0.04  -0.23
    21   7     0.02  -0.00  -0.16    -0.04   0.03  -0.18     0.03   0.02   0.02
    22   1    -0.01  -0.01  -0.10     0.01   0.02  -0.14    -0.01   0.03   0.14
    23   1     0.03  -0.00  -0.32    -0.07   0.05  -0.37     0.04   0.03  -0.08
    24   6     0.03   0.01   0.06    -0.03  -0.02   0.09     0.03   0.03   0.13
    25   8     0.03   0.00   0.26     0.02  -0.06   0.35     0.03   0.03   0.27
    26   6     0.06   0.03   0.02    -0.16  -0.08  -0.05     0.05   0.07  -0.13
    27   6     0.03   0.02   0.00    -0.14  -0.07  -0.03     0.08   0.16  -0.04
    28   6     0.02   0.02   0.00    -0.10  -0.05  -0.01     0.08   0.15   0.04
    29   6     0.04   0.02   0.01    -0.08  -0.04   0.00     0.04   0.05   0.03
    30   6     0.07   0.03   0.02    -0.11  -0.06  -0.02     0.01  -0.03  -0.07
    31   7     0.07   0.03   0.02    -0.15  -0.08  -0.04     0.02  -0.02  -0.14
    32   1     0.07   0.03   0.02    -0.19  -0.09  -0.07     0.06   0.08  -0.20
    33   1     0.02   0.02  -0.00    -0.16  -0.08  -0.04     0.11   0.23  -0.04
    34   1     0.00   0.01  -0.01    -0.08  -0.04  -0.00     0.11   0.21   0.11
    35  17     0.09   0.06   0.03    -0.11  -0.04  -0.02    -0.08  -0.18  -0.11
                      4                      5                      6
                      A                      A                      A
 Frequencies --     58.8273                63.0128                85.1223
 Red. masses --      5.4919                 7.0590                 6.1339
 Frc consts  --      0.0112                 0.0165                 0.0262
 IR Inten    --      0.6528                 1.7460                 1.2797
  Atom  AN      X      Y      Z        X      Y      Z        X      Y      Z
     1   6     0.06  -0.03  -0.06     0.02  -0.01  -0.05    -0.08   0.03   0.10
     2   6     0.19  -0.07  -0.15     0.05  -0.02  -0.07     0.02   0.03   0.02
     3   6     0.18  -0.07  -0.13     0.05  -0.02  -0.06     0.04   0.03  -0.02
     4   6     0.03  -0.02  -0.03     0.02  -0.01  -0.03    -0.06   0.03   0.02
     5   6    -0.07   0.01   0.03    -0.01   0.01  -0.02    -0.19   0.04   0.12
     6   6    -0.04   0.00   0.01    -0.01   0.00  -0.03    -0.18   0.04   0.15
     7   1     0.29  -0.09  -0.21     0.08  -0.03  -0.09     0.11   0.03  -0.01
     8   1     0.28  -0.10  -0.19     0.08  -0.03  -0.08     0.15   0.02  -0.10
     9  17    -0.06   0.00   0.04    -0.01  -0.00  -0.01     0.02   0.01  -0.09
    10   1    -0.18   0.04   0.10    -0.04   0.02   0.00    -0.28   0.04   0.15
    11   1    -0.12   0.03   0.05    -0.03   0.01  -0.02    -0.24   0.03   0.19
    12   6    -0.02  -0.02   0.14    -0.03   0.00  -0.00     0.03   0.01  -0.18
    13   6    -0.02  -0.05   0.22    -0.02  -0.00  -0.18     0.02   0.04  -0.02
    14   6     0.00  -0.05   0.13    -0.01  -0.01  -0.19    -0.02   0.04   0.10
    15   6     0.02  -0.02  -0.02    -0.00  -0.00  -0.05    -0.04   0.02   0.07
    16   6     0.01   0.01  -0.08    -0.00   0.01   0.10    -0.04  -0.02  -0.06
    17   6    -0.01   0.01  -0.02    -0.02   0.01   0.14     0.00  -0.02  -0.19
    18   1    -0.04  -0.02   0.20    -0.04   0.01   0.03     0.06   0.01  -0.29
    19   1    -0.03  -0.06   0.36    -0.03  -0.00  -0.31     0.04   0.06   0.00
    20   1     0.01  -0.07   0.18    -0.01  -0.01  -0.31    -0.03   0.07   0.20
    21   7     0.01   0.02  -0.20     0.00   0.01   0.17    -0.06  -0.05  -0.08
    22   1    -0.01   0.03  -0.09    -0.02   0.01   0.28     0.01  -0.04  -0.30
    23   1     0.00   0.02  -0.26     0.01   0.01   0.14    -0.08  -0.04  -0.08
    24   6     0.01   0.01  -0.04     0.00   0.01   0.10    -0.06  -0.06   0.04
    25   8     0.03  -0.01   0.09     0.01   0.00   0.11    -0.06  -0.07   0.17
    26   6    -0.06  -0.04   0.03    -0.14  -0.04  -0.11     0.15   0.05  -0.00
    27   6    -0.06  -0.08  -0.01    -0.23  -0.05  -0.14     0.02   0.03  -0.05
    28   6    -0.03  -0.06  -0.05    -0.17  -0.03  -0.07    -0.07  -0.01  -0.05
    29   6    -0.00  -0.00  -0.04    -0.04  -0.00   0.02    -0.02  -0.04  -0.01
    30   6    -0.01   0.04  -0.00     0.02   0.00   0.02     0.09  -0.02   0.02
    31   7    -0.04   0.02   0.04    -0.03  -0.02  -0.04     0.18   0.02   0.02
    32   1    -0.08  -0.05   0.06    -0.17  -0.05  -0.16     0.24   0.10   0.01
    33   1    -0.08  -0.13  -0.01    -0.33  -0.07  -0.21    -0.01   0.06  -0.07
    34   1    -0.03  -0.09  -0.08    -0.23  -0.04  -0.09    -0.17  -0.03  -0.08
    35  17     0.01   0.14  -0.00     0.21   0.06   0.14     0.11  -0.05   0.03
                      7                      8                      9
                      A                      A                      A
 Frequencies --     94.7954               131.7070               141.8395
 Red. masses --      5.5810                 7.7061                 6.6870
 Frc consts  --      0.0295                 0.0788                 0.0793
 IR Inten    --      0.2444                 1.5713                 1.7918
  Atom  AN      X      Y      Z        X      Y      Z        X      Y      Z
     1   6    -0.10   0.05  -0.13    -0.07  -0.03   0.04    -0.06   0.02  -0.09
     2   6    -0.11  -0.00  -0.09    -0.10  -0.03   0.06    -0.06  -0.01  -0.08
     3   6    -0.08  -0.02  -0.03    -0.14  -0.02   0.08    -0.04  -0.02  -0.04
     4   6    -0.03   0.03  -0.00    -0.15  -0.02   0.08    -0.03   0.02  -0.02
     5   6    -0.04   0.10  -0.03    -0.22   0.00   0.13    -0.05   0.06  -0.02
     6   6    -0.07   0.10  -0.09    -0.17  -0.01   0.10    -0.06   0.06  -0.06
     7   1    -0.14  -0.05  -0.12    -0.07  -0.04   0.03    -0.06  -0.03  -0.10
     8   1    -0.08  -0.07  -0.00    -0.11  -0.02   0.06    -0.03  -0.05  -0.04
     9  17     0.08   0.00   0.08     0.07  -0.08  -0.07     0.04  -0.00   0.04
    10   1    -0.01   0.14  -0.01    -0.27   0.01   0.16    -0.06   0.09   0.00
    11   1    -0.07   0.16  -0.12    -0.18  -0.01   0.10    -0.07   0.09  -0.07
    12   6     0.06  -0.01   0.23     0.11  -0.06   0.06     0.01  -0.00   0.01
    13   6     0.04   0.06   0.07     0.10  -0.01  -0.08    -0.00   0.02   0.14
    14   6    -0.02   0.08  -0.11     0.06  -0.00  -0.10    -0.02   0.03   0.06
    15   6    -0.06   0.04  -0.13     0.03  -0.05  -0.02    -0.04   0.02  -0.08
    16   6    -0.04  -0.03  -0.00     0.04  -0.08   0.04    -0.03  -0.01  -0.12
    17   6     0.02  -0.05   0.19     0.08  -0.09   0.12    -0.01  -0.01  -0.13
    18   1     0.10  -0.03   0.40     0.15  -0.07   0.12     0.03  -0.01   0.03
    19   1     0.07   0.09   0.09     0.12   0.01  -0.16     0.01   0.03   0.29
    20   1    -0.03   0.13  -0.22     0.05   0.04  -0.18    -0.03   0.04   0.13
    21   7    -0.07  -0.06  -0.05     0.05  -0.06  -0.03    -0.03  -0.02  -0.06
    22   1     0.03  -0.09   0.30     0.09  -0.13   0.21    -0.01  -0.02  -0.20
    23   1    -0.09  -0.04  -0.10     0.08  -0.06  -0.09    -0.01  -0.03   0.02
    24   6    -0.07  -0.07  -0.05     0.06   0.01   0.01    -0.02   0.01  -0.01
    25   8    -0.06  -0.07  -0.04     0.02   0.03   0.12    -0.06   0.04  -0.12
    26   6     0.16   0.03   0.07    -0.09  -0.03  -0.05    -0.13  -0.05  -0.10
    27   6     0.05  -0.02   0.01     0.09   0.01   0.02     0.10   0.09   0.08
    28   6    -0.05  -0.06  -0.05     0.17   0.05   0.01     0.16   0.11   0.17
    29   6    -0.04  -0.06  -0.05     0.09   0.05  -0.05     0.04   0.02   0.09
    30   6     0.06  -0.01   0.01    -0.02   0.04  -0.07    -0.04  -0.05   0.01
    31   7     0.16   0.03   0.07    -0.13  -0.01  -0.08    -0.16  -0.10  -0.12
    32   1     0.26   0.08   0.13    -0.20  -0.09  -0.08    -0.27  -0.12  -0.23
    33   1     0.05  -0.02   0.00     0.16  -0.01   0.07     0.20   0.17   0.13
    34   1    -0.13  -0.10  -0.10     0.28   0.07   0.05     0.28   0.20   0.28
    35  17     0.03  -0.02  -0.01    -0.00   0.20  -0.08     0.16  -0.07   0.14
                     10                     11                     12
                      A                      A                      A
 Frequencies --    180.8338               182.7722               227.7965
 Red. masses --      6.8600                 5.7662                 6.9808
 Frc consts  --      0.1322                 0.1135                 0.2134
 IR Inten    --      2.0218                 1.1475                 0.9259
  Atom  AN      X      Y      Z        X      Y      Z        X      Y      Z
     1   6    -0.05   0.03   0.09    -0.05  -0.02  -0.02    -0.07   0.02  -0.10
     2   6     0.06   0.02   0.02    -0.02  -0.05  -0.04    -0.08   0.03  -0.11
     3   6     0.16  -0.01  -0.06     0.03  -0.08  -0.06    -0.08   0.01  -0.12
     4   6     0.16  -0.02  -0.07     0.03  -0.08  -0.06    -0.06   0.01  -0.12
     5   6     0.19  -0.04  -0.07     0.04  -0.06  -0.08    -0.06   0.02  -0.14
     6   6     0.07  -0.01   0.02    -0.02  -0.04  -0.06    -0.08   0.01  -0.12
     7   1     0.04   0.04   0.05    -0.04  -0.07  -0.04    -0.10   0.03  -0.10
     8   1     0.19  -0.01  -0.08     0.03  -0.08  -0.06    -0.10   0.02  -0.12
     9  17    -0.07   0.05   0.04    -0.03  -0.08   0.05     0.06  -0.03   0.12
    10   1     0.23  -0.07  -0.11     0.07  -0.05  -0.08    -0.06   0.02  -0.14
    11   1     0.05  -0.02   0.03    -0.03  -0.05  -0.04    -0.10   0.01  -0.10
    12   6     0.05  -0.00  -0.04     0.25  -0.02  -0.06    -0.05   0.03  -0.16
    13   6     0.03   0.07  -0.10     0.23   0.07   0.05    -0.05   0.01   0.11
    14   6    -0.05   0.08   0.01     0.09   0.10   0.07    -0.03   0.00   0.18
    15   6    -0.09   0.03   0.12    -0.01  -0.01   0.01    -0.02   0.01   0.04
    16   6    -0.07  -0.05   0.10     0.01  -0.08  -0.01    -0.01   0.01   0.11
    17   6     0.00  -0.06   0.08     0.15  -0.11  -0.07    -0.04   0.03  -0.10
    18   1     0.11  -0.02  -0.11     0.35  -0.04  -0.11    -0.06   0.04  -0.34
    19   1     0.07   0.13  -0.23     0.29   0.14   0.10    -0.06  -0.00   0.21
    20   1    -0.07   0.14  -0.01     0.06   0.21   0.12    -0.02  -0.02   0.27
    21   7    -0.14  -0.10   0.02    -0.02  -0.08   0.06     0.05   0.02   0.34
    22   1     0.02  -0.12   0.10     0.18  -0.22  -0.12    -0.05   0.05  -0.17
    23   1    -0.18  -0.08  -0.09     0.03  -0.10   0.13     0.05   0.02   0.41
    24   6    -0.14  -0.11  -0.03    -0.04   0.03   0.05     0.06  -0.02   0.10
    25   8    -0.16  -0.11   0.07    -0.10   0.08  -0.02     0.11  -0.06   0.07
    26   6     0.03  -0.01   0.00    -0.05   0.11  -0.03     0.05  -0.05   0.00
    27   6     0.19   0.05   0.09    -0.14   0.09  -0.07     0.05  -0.06   0.00
    28   6     0.08   0.01   0.01    -0.10   0.10   0.00     0.04  -0.05  -0.03
    29   6    -0.09  -0.07  -0.10     0.00   0.08   0.07     0.02  -0.04  -0.04
    30   6    -0.09  -0.06  -0.10     0.00   0.08   0.06     0.03  -0.04  -0.05
    31   7    -0.09  -0.06  -0.07     0.02   0.09   0.02     0.02  -0.05  -0.01
    32   1     0.03  -0.01   0.01    -0.05   0.11  -0.07     0.06  -0.05   0.02
    33   1     0.37   0.13   0.21    -0.24   0.07  -0.13     0.07  -0.06   0.02
    34   1     0.16   0.04   0.05    -0.17   0.11   0.00     0.07  -0.06  -0.04
    35  17     0.06   0.11  -0.03    -0.08   0.01   0.02     0.00   0.09  -0.09
                     13                     14                     15
                      A                      A                      A
 Frequencies --    250.2604               275.2351               294.3491
 Red. masses --      8.9596                 6.3245                 5.8470
 Frc consts  --      0.3306                 0.2823                 0.2985
 IR Inten    --      4.1832                 1.8729                 1.3140
  Atom  AN      X      Y      Z        X      Y      Z        X      Y      Z
     1   6     0.02  -0.02  -0.02     0.15  -0.05  -0.09    -0.04   0.03  -0.04
     2   6     0.01   0.09  -0.04     0.07  -0.02  -0.04    -0.03  -0.10   0.01
     3   6    -0.01   0.12  -0.02    -0.07   0.03   0.08     0.07  -0.12   0.15
     4   6     0.04   0.18  -0.00    -0.07   0.06   0.10     0.13  -0.06   0.16
     5   6     0.05   0.10   0.01    -0.03   0.04   0.08     0.13   0.04   0.12
     6   6     0.05   0.07   0.01     0.09   0.00  -0.03     0.01   0.10   0.01
     7   1     0.05   0.15  -0.00     0.11  -0.03  -0.06    -0.11  -0.20  -0.04
     8   1    -0.03   0.08   0.01    -0.13   0.02   0.13     0.07  -0.22   0.20
     9  17     0.08   0.23   0.01     0.03   0.05  -0.04    -0.09  -0.01  -0.12
    10   1     0.01   0.05  -0.02    -0.06   0.05   0.10     0.22   0.14   0.18
    11   1     0.05   0.13  -0.01     0.13   0.02  -0.06    -0.02   0.20  -0.01
    12   6    -0.04  -0.23  -0.03     0.03  -0.06  -0.01    -0.01   0.04   0.06
    13   6    -0.05  -0.19   0.01     0.04  -0.11   0.08    -0.02   0.06   0.14
    14   6    -0.04  -0.18   0.01     0.06  -0.11  -0.03    -0.03   0.07  -0.11
    15   6     0.01  -0.10  -0.01     0.09  -0.05  -0.10    -0.05   0.05  -0.16
    16   6     0.01  -0.19   0.00     0.05  -0.01  -0.04    -0.03   0.02  -0.09
    17   6    -0.01  -0.20  -0.03     0.06  -0.02  -0.09    -0.03   0.03  -0.15
    18   1    -0.04  -0.23  -0.05    -0.02  -0.05   0.02     0.02   0.03   0.18
    19   1    -0.03  -0.18   0.04     0.02  -0.14   0.21    -0.00   0.06   0.36
    20   1    -0.02  -0.23   0.02     0.07  -0.14  -0.02    -0.04   0.10  -0.13
    21   7    -0.01  -0.21   0.06    -0.02  -0.04   0.13    -0.02  -0.01   0.19
    22   1    -0.04  -0.15  -0.04     0.06  -0.00  -0.11    -0.03   0.02  -0.18
    23   1     0.04  -0.24   0.10    -0.05  -0.02   0.11    -0.02  -0.02   0.30
    24   6    -0.03  -0.04   0.05    -0.05  -0.09   0.03    -0.01  -0.02   0.09
    25   8    -0.23   0.09   0.01     0.05  -0.16  -0.02    -0.04  -0.00   0.02
    26   6    -0.06  -0.05  -0.05     0.07   0.16  -0.00     0.00  -0.07  -0.03
    27   6    -0.09  -0.06  -0.06     0.05   0.20   0.02    -0.02  -0.05  -0.01
    28   6     0.07   0.02   0.03    -0.17   0.07  -0.04     0.05  -0.01   0.04
    29   6     0.15   0.05   0.08    -0.20  -0.09  -0.05     0.05  -0.01   0.04
    30   6     0.12   0.03   0.06    -0.17  -0.06  -0.04     0.08  -0.04   0.01
    31   7     0.06   0.01   0.03    -0.08  -0.00  -0.07     0.06  -0.05   0.01
    32   1    -0.17  -0.09  -0.11     0.24   0.25   0.03    -0.04  -0.08  -0.08
    33   1    -0.23  -0.13  -0.15     0.21   0.31   0.12    -0.07  -0.05  -0.05
    34   1     0.06   0.01   0.02    -0.25   0.13   0.01     0.07  -0.01   0.04
    35  17    -0.04   0.03  -0.05    -0.03   0.07   0.06     0.00   0.05  -0.07
                     16                     17                     18
                      A                      A                      A
 Frequencies --    321.1924               339.8601               358.4430
 Red. masses --      7.9538                 6.6239                 4.0923
 Frc consts  --      0.4835                 0.4508                 0.3098
 IR Inten    --      8.3838                 1.1424                 0.7912
  Atom  AN      X      Y      Z        X      Y      Z        X      Y      Z
     1   6    -0.16   0.02   0.09    -0.16  -0.01  -0.01     0.01   0.00  -0.15
     2   6    -0.12   0.03   0.06    -0.15  -0.03  -0.01     0.01  -0.08  -0.12
     3   6     0.07  -0.01  -0.07     0.06  -0.08  -0.01    -0.02  -0.07   0.08
     4   6     0.14  -0.01  -0.10     0.15   0.00   0.02    -0.03   0.00   0.15
     5   6     0.06  -0.01  -0.04     0.08   0.04   0.05     0.03   0.07   0.08
     6   6    -0.11   0.03   0.08    -0.08   0.08   0.02     0.05   0.07  -0.11
     7   1    -0.17   0.06   0.11    -0.23  -0.06   0.01    -0.01  -0.17  -0.19
     8   1     0.12  -0.04  -0.09     0.10  -0.20   0.02    -0.03  -0.18   0.14
     9  17    -0.02   0.05   0.02    -0.03   0.09  -0.03    -0.01   0.01  -0.06
    10   1     0.07  -0.03  -0.06     0.10   0.08   0.07     0.08   0.16   0.14
    11   1    -0.18   0.06   0.11    -0.12   0.20  -0.00     0.08   0.17  -0.18
    12   6    -0.03  -0.06   0.05     0.04  -0.11  -0.04     0.00   0.01  -0.15
    13   6    -0.04  -0.02  -0.04     0.02  -0.05   0.02    -0.00   0.02  -0.07
    14   6    -0.06  -0.01  -0.04    -0.03  -0.03   0.03    -0.02   0.01   0.23
    15   6    -0.07  -0.03   0.02    -0.07  -0.06  -0.02    -0.03   0.01   0.04
    16   6    -0.04  -0.07  -0.05    -0.04  -0.12   0.02    -0.02  -0.01   0.09
    17   6    -0.05  -0.08   0.00    -0.01  -0.14  -0.01    -0.01  -0.02   0.19
    18   1    -0.00  -0.08   0.12     0.08  -0.12  -0.08     0.01   0.02  -0.39
    19   1    -0.02   0.01  -0.08     0.06  -0.01   0.06     0.01   0.04  -0.23
    20   1    -0.06  -0.00  -0.07    -0.04   0.00   0.05    -0.02   0.01   0.39
    21   7     0.06   0.01  -0.12     0.09   0.02   0.06    -0.01   0.00  -0.08
    22   1    -0.04  -0.10  -0.00     0.00  -0.19  -0.01    -0.00  -0.04   0.30
    23   1     0.10  -0.02   0.05     0.21  -0.03  -0.02    -0.01   0.01  -0.14
    24   6     0.10  -0.08   0.04     0.10   0.13  -0.06    -0.00  -0.02  -0.02
    25   8     0.34  -0.23  -0.10     0.17   0.09   0.05     0.04  -0.05  -0.02
    26   6    -0.02   0.07  -0.14     0.01   0.06   0.13    -0.02  -0.00  -0.04
    27   6    -0.07   0.14  -0.08     0.07  -0.04   0.04    -0.02   0.01  -0.02
    28   6    -0.01   0.12   0.10    -0.04  -0.07  -0.15     0.03   0.03   0.03
    29   6     0.02  -0.07   0.14    -0.03   0.08  -0.15     0.01  -0.01   0.02
    30   6     0.06  -0.08   0.10    -0.13   0.12  -0.09     0.03  -0.00   0.03
    31   7     0.10  -0.04  -0.01    -0.15   0.12  -0.02     0.04   0.01   0.01
    32   1    -0.04   0.07  -0.28     0.10   0.09   0.31    -0.07  -0.02  -0.08
    33   1    -0.14   0.20  -0.15     0.18  -0.09   0.13    -0.05   0.01  -0.05
    34   1    -0.05   0.25   0.23    -0.03  -0.16  -0.24     0.05   0.06   0.07
    35  17    -0.07   0.09   0.03     0.03  -0.09   0.06    -0.02   0.01   0.01
                     19                     20                     21
                      A                      A                      A
 Frequencies --    414.6970               420.9115               434.0856
 Red. masses --      5.3204                 2.9921                 5.7557
 Frc consts  --      0.5391                 0.3123                 0.6390
 IR Inten    --      7.2045                 1.0427                 0.3744
  Atom  AN      X      Y      Z        X      Y      Z        X      Y      Z
     1   6     0.02  -0.01   0.03     0.02   0.00  -0.01     0.02   0.06  -0.05
     2   6     0.14  -0.02  -0.05    -0.17   0.05   0.11    -0.09   0.04   0.04
     3   6    -0.05   0.03   0.03     0.16  -0.04  -0.10    -0.01   0.01   0.04
     4   6    -0.12   0.03   0.05     0.01  -0.01  -0.00     0.20  -0.07  -0.11
     5   6     0.03  -0.03  -0.03    -0.16   0.04   0.10     0.04   0.04  -0.03
     6   6     0.04  -0.03   0.01     0.18  -0.05  -0.11    -0.18   0.11   0.06
     7   1     0.30  -0.03  -0.12    -0.39   0.10   0.25    -0.25   0.04   0.10
     8   1    -0.06   0.06   0.02     0.35  -0.08  -0.22    -0.16   0.05   0.13
     9  17     0.02  -0.00  -0.00    -0.00  -0.00  -0.00    -0.04  -0.05   0.01
    10   1     0.11  -0.08  -0.11    -0.37   0.11   0.24     0.00   0.11   0.04
    11   1     0.08  -0.07  -0.00     0.36  -0.10  -0.23    -0.37   0.17   0.18
    12   6     0.01  -0.00   0.03    -0.00   0.01  -0.00    -0.06   0.03  -0.05
    13   6    -0.01   0.04   0.05    -0.00  -0.00   0.01    -0.02  -0.08   0.01
    14   6    -0.06   0.05  -0.08     0.01  -0.00  -0.01     0.11  -0.09   0.04
    15   6    -0.07   0.02   0.03     0.01   0.00  -0.01     0.16   0.02  -0.07
    16   6    -0.06  -0.02   0.04     0.01   0.01   0.01     0.15   0.07  -0.00
    17   6    -0.03  -0.03  -0.09     0.00   0.01  -0.01     0.06   0.12   0.06
    18   1     0.05  -0.01   0.06    -0.01   0.01  -0.00    -0.17   0.06  -0.10
    19   1     0.02   0.07   0.10    -0.01  -0.01   0.03    -0.09  -0.15   0.04
    20   1    -0.07   0.09  -0.19     0.01  -0.01  -0.01     0.14  -0.21   0.12
    21   7    -0.05  -0.03   0.09    -0.01  -0.01   0.04     0.00  -0.06   0.02
    22   1    -0.02  -0.07  -0.18     0.00   0.02  -0.01     0.02   0.24   0.15
    23   1    -0.06  -0.01  -0.13    -0.03   0.01  -0.13    -0.12  -0.01   0.02
[...]
 13,-0.00057593,0.00044074,0.00031733,0.00018498,-0.00013850,-0.0000320
 1,0.00001871,-0.00000610,0.00000857,-0.00000554,-0.00000290,0.00001698
 ,0.00002494,-0.00003853,0.00002954,0.00038613,-0.00246550,-0.00031161,
 -0.00009608,0.00011999,0.00003830,-0.00003714,0.00131688,-0.00007180,-
 0.00074760,0.00714252,0.00097021,0.00372591,-0.00419673,-0.00158241,0.
 01925535,-0.00184230,0.00586517,-0.01351850,0.00867076,-0.01221264,-0.
 01031714,-0.02694870,-0.00462936,-0.08347491,-0.00155618,-0.09683688,0
 .13434518,0.08406704,0.22494028,-0.00011979,0.00006243,0.00003241,0.00
 004727,-0.00001053,0.00004782,0.00007167,-0.00001152,-0.00002608,-0.00
 017413,0.00003844,0.00001983,-0.00003060,-0.00002018,-0.00003134,0.000
 02487,0.00005185,0.00000477,-0.00000331,-0.00000584,0.00001716,0.00001
 004,0.00000364,-0.00000987,0.00016257,-0.00005275,-0.00005387,0.000023
 03,0.00004215,0.00002285,-0.00002681,-0.00003403,-0.00003904,0.0001058
 4,-0.00005010,-0.00006816,-0.00003876,0.00013302,-0.00004463,0.0000372
 6,-0.00000798,-0.00004486,-0.00025868,0.00027394,0.00001588,0.00097395
 ,-0.00072843,0.00012248,-0.00020564,0.00015324,0.00001420,-0.00002903,
 0.00001554,0.00000247,0.00000309,0.00002472,-0.00000622,-0.00000927,0.
 00004622,-0.00002939,-0.00051344,0.00306113,-0.00038224,0.00013979,-0.
 00006830,0.00000919,-0.00027789,0.00002194,0.00011520,-0.00053641,-0.0
 0751123,-0.00580275,-0.00213739,0.00191095,0.00209923,-0.13718526,-0.0
 7091073,-0.04376748,0.00455459,-0.03516313,-0.01486909,-0.00173414,0.0
 1781181,0.00617585,-0.04544091,0.02144770,-0.01709749,-0.17593745,0.07
 518224,-0.01697764,0.33904223,-0.00017299,0.00004406,0.00011562,0.0000
 5096,0.00003386,0.00003061,-0.00002487,0.00001970,0.00009792,0.0002620
 8,-0.00005499,-0.00016295,-0.00005964,-0.00001233,0.00015549,0.0001516
 0,-0.00032339,-0.00031893,0.00000886,-0.00001184,0.00003920,-0.0000024
 5,-0.00001210,0.00002285,-0.00018396,0.00004460,0.00011563,0.00009421,
 0.00003905,-0.00008720,-0.00007523,0.00039959,-0.00007507,-0.00008877,
 0.00000777,0.00003292,0.00004876,-0.00006267,0.00002368,0.00003060,0.0
 0005671,-0.00002316,0.00001560,-0.00009194,0.00002574,-0.00047432,0.00
 033876,-0.00018198,0.00010904,-0.00003165,0.00000248,0.00001520,-0.000
 01120,-0.00001651,0.00000871,-0.00002009,0.00000407,-0.00001404,-0.000
 00843,0.00000111,0.00046044,-0.00027983,0.00081086,-0.00007677,0.00003
 398,0.00001469,0.00000321,-0.00066543,-0.00008541,-0.00018391,0.004789
 79,-0.00218398,0.00212738,-0.00218182,0.00022898,-0.02505753,-0.262751
 09,-0.05967289,-0.10727478,0.01808072,-0.03888083,0.01587859,-0.090020
 13,-0.01474939,0.08663294,0.04202497,0.03563453,0.05382309,-0.18342507
 ,-0.00920454,-0.02422109,0.56134298,-0.00007807,0.00002532,0.00001773,
 0.00002064,0.00001990,0.00002315,0.00001176,0.00000972,0.00003931,0.00
 003421,-0.00001271,-0.00002847,-0.00001489,0.00001752,0.00005496,0.000
 07723,-0.00008481,-0.00012762,-0.00000116,-0.00000926,0.00001426,-0.00
 000149,-0.00001246,0.00000560,-0.00003507,0.00002301,0.00002021,0.0000
 0739,-0.00002957,-0.00003383,-0.00001246,0.00008416,0.00000619,0.00003
 167,0.00000829,-0.00000317,-0.00001146,0.00001960,-0.00000287,0.000021
 74,0.00000614,0.00001737,0.00001639,0.00004553,-0.00004252,-0.00002190
 ,-0.00042033,-0.00013309,-0.00008605,0.00003807,0.00006146,-0.00000717
 ,0.00000058,-0.00000284,-0.00000172,0.00000383,-0.00000761,-0.00000014
 ,0.00000236,-0.00000489,0.00052807,-0.00021238,-0.00020053,0.00005032,
 -0.00005213,-0.00002250,0.00010700,-0.00017415,-0.00002758,-0.00255304
 ,-0.00403360,0.00527723,-0.00270488,0.00209301,0.00067188,-0.03126479,
 -0.07661242,-0.09892350,-0.03452102,-0.01312202,0.00647610,0.00659918,
 -0.01606056,-0.00991036,0.00168810,0.01557956,0.02199957,-0.02256523,-
 0.00253696,-0.08421167,0.07779942,0.11294623,0.16210249,-0.00000493,0.
 00000201,-0.00000024,0.00000153,0.00000063,0.00000213,0.00000194,0.000
 00016,0.00000138,-0.00000515,0.00000072,0.00000035,0.00000047,0.000001
 55,0.00000253,0.00000265,0.00000309,-0.00000527,-0.00000082,-0.0000009
 3,0.00000119,0.00000032,-0.00000025,-0.00000054,0.00000351,-0.00000024
 ,-0.00000226,0.00000029,-0.00000238,-0.00000024,-0.00000051,-0.0000024
 9,-0.00000258,0.00000818,0.00000028,0.00000140,-0.00000268,0.00000507,
 -0.00000193,0.00000294,0.00000002,0.00000378,-0.00000400,0.00000972,-0
 .00000320,0.00000691,-0.00007540,-0.00002436,-0.00001041,0.00000861,0.
 00000492,-0.00000170,0.00000051,0.00000011,-0.00000069,0.00000127,-0.0
 0000145,0.00000047,0.00000135,-0.00000097,0.00002901,0.00002980,-0.000
 05604,0.00000641,-0.00000907,-0.00000531,0.00000464,-0.00001039,0.0000
 1377,-0.00014176,-0.00019579,0.00066694,-0.00010128,0.00015441,-0.0000
 2901,-0.19680149,0.15351060,-0.01473546,-0.01139514,0.02234277,-0.0008
 9919,-0.00404500,-0.00141022,-0.00424506,0.00002847,-0.00087214,-0.000
 14533,0.00266964,-0.00298659,-0.00372067,0.01186466,-0.01135200,0.0029
 0896,0.19814958,-0.00000736,-0.00000129,0.00000301,-0.00000032,0.00000
 220,-0.00000177,-0.00000890,0.00000343,0.00000987,0.00004718,-0.000010
 22,-0.00002213,-0.00000191,-0.00000081,0.00001536,0.00000410,-0.000024
 78,-0.00002003,0.00000045,-0.00000033,0.00000163,-0.00000030,-0.000001
 81,0.00000292,-0.00003393,0.00001047,0.00001550,0.00000718,0.00000025,
 -0.00000819,-0.00000301,0.00003251,-0.00000194,-0.00000546,0.00000723,
 0.00000415,0.00000320,-0.00001129,0.00000469,0.00000036,0.00000374,0.0
 0000280,0.00001649,-0.00002013,0.00000225,-0.00007659,0.00007697,-0.00
 003937,0.00001575,-0.00002043,0.00000581,0.00000289,-0.00000232,-0.000
 00081,0.00000033,-0.00000296,0.,-0.00000018,-0.00000387,0.00000203,0.0
 0009332,-0.00019874,0.00006709,-0.00000980,0.00000189,-0.00000332,-0.0
 0000359,0.00001343,-0.00005763,-0.00016414,0.00020245,0.00052061,0.000
 04440,-0.00001207,-0.00008664,0.15206399,-0.21616894,0.00805592,-0.004
 46982,0.00840589,-0.00134050,-0.00106404,0.00092742,-0.00194439,0.0000
 1605,-0.00031438,-0.00006565,-0.00010055,-0.00116494,-0.00312374,0.013
 04305,-0.02922597,-0.00187989,-0.15950016,0.23821663,-0.00000861,0.000
 00469,0.00000665,0.00000172,-0.00000197,0.00000094,0.00000255,-0.00000
 244,-0.00000038,-0.00000904,0.00000250,0.00000214,0.00000520,-0.000002
 39,0.00000354,0.00000240,-0.00000597,-0.00000842,-0.00000019,0.0000011
 7,0.00000157,0.00000058,0.00000277,-0.00000137,0.00000746,-0.00000454,
 -0.00000307,0.00000234,0.00000216,0.00000012,-0.00000214,0.00001119,-0
 .00000391,-0.00000160,-0.00000467,-0.00000378,0.00000191,0.00000418,-0
 .00000172,-0.00000050,0.00000118,-0.00000855,-0.00002112,0.00001046,0.
 00000572,0.00006802,0.00004769,0.00003068,0.00000218,0.00000484,-0.000
 00609,-0.00000018,0.00000014,-0.00000016,0.00000080,0.00000015,0.00000
 092,-0.00000125,0.00000266,-0.00000122,-0.00011682,0.00030343,0.000001
 64,-0.00000247,0.00000617,0.00000321,-0.00005593,0.00001632,-0.0000457
 5,0.00056405,0.00038892,-0.00148659,0.00045728,-0.00023993,0.00003931,
 -0.01494215,0.00909148,-0.04417049,-0.00798726,0.00801797,0.00675287,-
 0.00391368,-0.00232379,0.00534049,-0.00031343,-0.00037505,-0.00015852,
 -0.00299707,-0.00400191,0.00866846,0.00902335,-0.01094727,-0.00454206,
 0.01901856,-0.00089068,0.03263905,-0.00001335,0.00000296,0.00000112,0.
 00000583,-0.00000033,0.00000758,0.00000382,0.00000087,0.00000188,0.000
 00619,-0.00000180,-0.00000975,-0.00000795,0.00000127,0.00000428,0.0000
 0945,-0.00000447,-0.00001094,-0.00000023,0.00000004,0.00000145,0.00000
 137,-0.00000153,0.00000067,-0.00000195,0.00000110,0.00000251,0.0000045
 8,0.00000219,-0.00000283,-0.00000615,0.00000848,-0.00000385,0.00000770
 ,0.00000100,0.00000374,-0.00000483,0.00000993,-0.00000446,0.00000902,0
 .00000617,0.00000276,-0.00003063,0.00002978,-0.00000099,0.00004209,-0.
 00007498,-0.00009338,-0.00001170,0.00001920,-0.00000215,-0.00000305,0.
 00000357,0.00000032,-0.00000078,0.00000095,-0.00000184,-0.00000116,0.0
 0000466,-0.00000203,-0.00023626,0.00037485,-0.00011841,0.00000574,-0.0
 0000616,-0.00000509,-0.00002124,0.00000357,0.00003642,0.00111424,0.000
 51800,0.00031013,-0.00025491,-0.00007685,0.00002910,-0.00065253,-0.027
 56037,-0.00749472,-0.08473198,-0.08043964,-0.03661679,0.01034314,0.019
 50248,0.00746862,-0.00161685,0.00403745,-0.00193479,-0.00190408,0.0020
 6134,-0.00011691,-0.00457560,-0.00165474,-0.00471895,0.00028323,0.0003
 0620,0.00125007,0.08182905,0.00001880,-0.00000695,-0.00000382,-0.00000
 644,0.00000388,-0.00000962,-0.00001019,0.00000399,0.00000377,0.0000233
 1,-0.00000444,-0.00000480,0.00000219,-0.00000243,0.00000038,-0.0000105
 6,-0.00001113,0.00000408,0.00000206,-0.00000296,-0.00000085,-0.0000030
 1,-0.00000248,0.00000308,-0.00001975,0.00000557,0.00001018,0.00000029,
 0.00000141,-0.00000155,0.00000393,0.00001269,0.00000271,-0.00001540,0.
 00000689,0.00000136,0.00000761,-0.00002257,0.00001054,-0.00000866,-0.0
 0000361,0.00000215,0.00004709,-0.00004883,0.00000592,-0.00013466,0.000
 17967,0.00003748,0.00003233,-0.00003875,0.00000355,0.00000558,-0.00000
 534,-0.00000130,0.00000065,-0.00000409,0.00000189,0.00000069,-0.000008
 94,0.00000336,0.00026978,-0.00055651,0.00019723,-0.00001888,0.00001450
 ,0.00000257,0.00004049,0.00002162,-0.00007148,-0.00126014,0.00014049,-
 0.00045882,0.00040694,-0.00007294,-0.00001074,0.00133700,0.00144252,0.
 00050701,-0.08011513,-0.30226532,-0.09405620,-0.00886030,-0.01590206,-
 0.00776877,0.00401998,-0.00153396,-0.00101573,0.00090500,0.00045148,0.
 00040837,0.00013791,0.00197437,-0.00135310,-0.00056134,-0.00000934,0.0
 0059427,0.08439671,0.31568201,-0.00000416,0.00000133,0.00000230,-0.000
 00115,-0.00000210,-0.00000311,-0.00000293,-0.00000254,-0.00000128,0.00
 000551,-0.00000022,0.00000046,0.00000151,-0.00000412,-0.00000043,-0.00
 000310,-0.00000111,0.00000510,-0.00000015,0.00000282,-0.00000061,0.000
 00103,0.00000331,-0.00000108,-0.00000174,-0.00000159,-0.00000021,0.000
 00038,0.00000258,0.00000119,0.00000342,-0.00000133,0.00000148,-0.00000
 438,-0.00000441,-0.00000235,0.00000313,-0.00000324,-0.00000039,0.00000
 073,0.00000036,-0.00000603,0.00000628,-0.00000342,-0.00000097,0.000017
 59,0.00001784,0.00001150,0.,-0.00001235,0.00000388,0.00000225,-0.00000
 169,0.00000042,0.00000132,-0.00000036,0.00000166,0.,-0.00000009,0.0000
 0143,0.00003574,-0.00011207,0.00000828,-0.00000012,0.00000042,0.000006
 10,0.00001413,0.00000486,-0.00002275,-0.00012065,0.00011348,0.00032387
 ,0.00002720,-0.00005922,-0.00010729,-0.00052762,-0.00934902,-0.0013883
 5,-0.03617726,-0.09401684,-0.07277683,0.00016684,0.00230711,0.00363635
 ,-0.00238977,-0.00123059,0.00648070,-0.00036771,0.00075203,0.00023647,
 -0.00396910,-0.00203809,0.00577132,0.00104013,0.00088503,-0.00255602,0
 .04040760,0.10167948,0.06497173,0.00001000,-0.00000141,-0.00000346,-0.
 00000129,0.00000716,0.00000078,-0.00000274,0.00000424,0.00000679,0.000
 00150,-0.00000131,-0.00000163,-0.00000167,-0.00000093,0.00000089,-0.00
 000454,-0.00000607,-0.00000851,0.00000181,-0.00000601,0.00000196,-0.00
 000227,-0.00000321,0.00000235,-0.00000366,0.00000187,0.00000406,0.0000
 0271,0.00000167,-0.00000202,-0.00000036,0.00001172,0.00000078,-0.00000
 254,0.00000055,0.00000403,0.00000233,-0.00000601,0.00000184,-0.0000056
 4,-0.00000222,0.00000834,0.00002410,-0.00003392,0.00000410,-0.00009197
 ,0.00001980,0.00001171,0.00002302,-0.00001093,-0.00000552,0.00000106,0
 .00000031,-0.00000020,-0.00000010,-0.00000149,-0.00000008,0.00000036,-
 0.00000420,0.00000140,0.00025426,-0.00059924,0.00021199,-0.00000181,-0
 .00000473,0.00000238,0.00000163,-0.00003563,-0.00008537,-0.00111393,0.
 00064928,0.00164623,0.00032453,0.00021646,-0.00051378,-0.00008691,0.00
 406114,-0.00158644,-0.01203952,-0.00395223,-0.00710467,-0.31853322,-0.
 03155421,-0.10080001,-0.00310486,-0.00010779,-0.00252659,0.00177985,-0
 .00041775,-0.00192780,0.00035169,-0.00002894,0.00104558,-0.00072698,-0
 .00038846,-0.00010803,0.00039728,-0.00044008,0.00133867,0.33268274,-0.
 00003955,0.00001736,0.00000413,0.00001256,0.00000304,0.00001349,0.0000
 1546,0.00000158,0.00000934,-0.00002393,0.00000268,-0.00000431,-0.00000
 777,-0.00000019,0.00000713,0.00002071,-0.00000399,-0.00003536,-0.00000
 182,-0.00000582,0.00001001,0.00000200,-0.00000188,-0.00000072,0.000023
 99,-0.00000504,-0.00000648,0.00001143,0.00000290,-0.00000596,-0.000014
 28,0.00001712,-0.00000987,0.00004412,0.00000238,-0.00000722,-0.0000098
 7,0.00002702,-0.00000787,0.00000828,0.00000061,0.00000879,-0.00002668,
 0.00002978,0.00000867,0.00002925,-0.00026952,-0.00004526,-0.00004242,0
 .00003270,0.00002052,-0.00000714,0.00000152,-0.00000043,-0.00000088,0.
 00000544,-0.00000651,0.00000054,0.00000711,-0.00000604,0.00034715,0.00
 014103,-0.00019698,0.00003756,-0.00003967,-0.00002524,-0.00008142,0.00
 004295,-0.00006959,-0.00327830,0.00020044,0.00146289,0.00111559,0.0007
 1253,0.00006924,0.00375867,-0.00383246,-0.00174743,0.02429985,0.008125
 67,0.00873704,-0.03251751,-0.06237001,-0.01517794,-0.02492766,0.000705
 05,-0.00963155,-0.00022711,-0.00339071,-0.00286353,-0.00007387,-0.0009
 6122,0.00045042,0.00120214,0.00026317,0.00066877,-0.00093012,0.0006165
 2,0.00089013,0.03266105,0.06073577,-0.00002630,0.00001201,0.00000858,0
 .00000841,-0.00000828,0.00000780,0.00000658,-0.00000509,-0.00000401,0.
 00000129,0.00000058,-0.00000641,-0.00000312,-0.00000080,0.00000482,0.0
 0001397,-0.00000354,-0.00000723,-0.00000169,0.00000792,0.00000028,0.00
 000409,0.00000374,-0.00000237,0.00000461,-0.00000300,-0.00000293,0.000
 00372,0.00000235,-0.00000154,-0.00000669,0.00000536,-0.00000413,0.0000
 0372,0.00000020,-0.00001333,-0.00000926,0.00001792,-0.00000380,0.00001
 109,-0.00000322,-0.00001673,-0.00003499,0.00005762,-0.00001086,0.00017
 447,-0.00009263,0.00008416,-0.00004051,0.00002391,-0.00000463,-0.00000
 227,0.00000201,0.00000199,0.00000116,0.00000322,0.00000016,-0.00000076
 ,0.00000748,-0.00000334,-0.00011867,0.00087025,-0.00043401,0.00001306,
 -0.00000118,0.00000635,-0.00011461,0.00005134,-0.00002476,0.00005155,0
 .00083954,-0.00251740,0.00163245,0.00026021,-0.00010553,-0.00213252,-0
 .00178303,0.00704749,-0.00002915,-0.00094229,0.00587396,-0.10039268,-0
 .01534735,-0.07833037,-0.00967879,-0.00087737,0.00141391,-0.00205916,-
 0.00312320,0.00656108,0.00100402,0.00083468,-0.00238838,0.00026765,0.0
 0011375,-0.00056774,0.00131762,0.00102817,-0.00348374,0.11037758,0.018
 20419,0.06730340,-0.00040549,0.00010079,0.00021854,0.00010754,0.000033
 07,0.00005553,0.00003224,0.00001903,0.00007310,0.00008221,-0.00004953,
 -0.00013379,0.00001574,-0.00007209,0.00018374,0.00027703,-0.00034706,-
 0.00024342,0.00000157,-0.00001155,0.00005279,0.00000627,-0.00000763,0.
 00000854,-0.00004956,0.00001136,0.00005446,0.00008590,0.00010714,-0.00
 009069,-0.00002383,0.00039067,-0.00016916,0.00009988,-0.00008955,0.000
 04779,0.00001353,0.00014534,-0.00007202,-0.00001516,0.00001437,-0.0000
 4069,-0.00003838,0.00024569,-0.00002887,0.00078760,-0.00132180,0.00006
 715,-0.00024217,0.00025250,0.00008438,-0.00001800,0.00000614,-0.000004
 34,0.00000605,0.00000218,-0.00000968,-0.00001087,0.00003147,-0.0000207
 6,-0.00460437,0.00136060,-0.00367843,0.00003547,-0.00004782,-0.0000430
 6,-0.00074429,0.00018144,-0.00034527,0.00046682,-0.00293453,-0.0005576
 5,-0.00060885,0.00080792,0.00035241,-0.00190706,0.00144397,-0.00292905
 ,0.00255207,-0.00147609,0.00051657,-0.00427105,0.00555319,-0.00207542,
 -0.00880702,-0.02821619,-0.01310668,-0.06190220,-0.04501725,-0.0263965
 6,0.01182195,0.01122477,0.00765181,0.00017769,0.00017358,0.00007300,0.
 00001248,-0.00019379,0.00049638,-0.00013485,-0.00138004,-0.00024586,0.
 06720113,-0.00042449,0.00001475,0.00015018,0.00010395,0.00011321,0.000
 16169,0.00009137,0.00000789,0.00018727,0.00028964,-0.00000218,-0.00033
 767,-0.00001843,-0.00006074,0.00025191,0.00048617,-0.00140173,-0.00000
 874,0.00000638,0.00000408,0.00008805,0.00000755,-0.00002425,0.00002312
 ,-0.00018210,0.00003816,0.00013584,0.00012866,0.00010889,-0.00022952,-
 0.00019326,-0.00045666,0.00143082,0.00008881,0.00004776,-0.00003612,-0
 .00001234,0.00006010,-0.00000173,0.00009576,0.00006438,-0.00002508,-0.
 00030448,0.00009748,0.00009443,0.00023251,0.00011125,-0.00026393,-0.00
 002092,0.00002635,0.00000520,-0.00000695,-0.00000344,-0.00001029,0.000
 00707,-0.00001209,-0.00002178,-0.00002362,0.00002799,-0.00002471,0.001
 86193,0.00330664,0.00112903,0.00004415,-0.00010532,-0.00006741,-0.0006
 5012,-0.00058443,-0.00085768,0.00243283,-0.00632027,0.00199710,-0.0015
 6080,0.00188971,-0.00003929,0.00100795,0.00337262,-0.00079544,-0.00025
 104,-0.00319944,-0.00087875,-0.00155750,0.00357721,-0.00083477,-0.0088
 2154,-0.01509851,-0.00919644,-0.05645904,-0.12158177,-0.04891338,0.005
 40780,-0.05907972,-0.01476689,-0.00029532,-0.00097305,-0.00038247,-0.0
 0054179,-0.00005498,0.00018362,-0.00002849,-0.00081384,-0.00015546,0.0
 5905970,0.19690398,-0.00020495,0.00018649,0.00039382,0.00018002,-0.000
 08694,-0.00010052,-0.00014437,0.00005376,-0.00002269,0.00011589,-0.000
 06475,0.00013892,-0.00001858,0.00009458,-0.00012554,-0.00009258,0.0008
 7426,-0.00070271,-0.00000027,-0.00002953,0.00003146,0.00000022,-0.0000
 1587,0.00001337,-0.00004433,0.00002470,0.00003918,0.00011491,-0.000056
 87,-0.00002564,-0.00025176,0.00104107,-0.00133888,0.00005386,-0.000082
 04,0.00008053,0.00004839,0.00008420,-0.00007759,-0.00006547,0.00002870
 ,-0.00005364,0.00002159,0.00017436,-0.00007469,0.00046040,-0.00065472,
 -0.00018395,-0.00018523,0.00018496,0.00005806,-0.00001283,0.00000052,-
 0.00000654,0.00000439,0.00000398,0.00000097,-0.00000963,0.00001738,-0.
 00001552,-0.00362524,0.00137210,-0.00192597,0.00000617,-0.00003672,-0.
 00003350,-0.00066589,0.00028566,-0.00048325,0.00090262,-0.00147315,-0.
 00204193,-0.00034200,0.00063055,0.00047433,-0.00313275,-0.00020336,0.0
 0584007,0.00087561,-0.00133191,-0.00036787,-0.00367274,0.00191511,0.00
 361658,-0.00621000,-0.01602442,-0.00240992,-0.03129379,-0.04571936,-0.
 04791146,0.00669313,-0.01250909,-0.00194532,-0.00005465,-0.00022571,0.
 00006852,0.00029204,0.00024923,-0.00111280,0.00000265,-0.00071646,-0.0
 0038075,0.04025520,0.07200928,0.05058485\\-0.00549546,-0.00170165,0.00
 230056,0.00767100,-0.00186529,0.00324856,-0.00196741,0.00149341,0.0015
 6282,-0.01072023,0.00226864,0.00450992,-0.00099710,0.00032642,0.000131
 44,0.00326807,-0.00100995,-0.00752592,-0.00326315,0.00027764,-0.001596
 06,0.00083682,-0.00025957,-0.00331438,0.00788432,-0.00178624,-0.003225
 80,0.00275550,-0.00047438,0.00183273,-0.00088378,0.00040845,0.00318877
 ,0.01025160,-0.00157225,-0.00460309,0.00055276,-0.00119973,-0.00007301
 ,-0.00635788,-0.00531919,0.00553668,-0.00064509,0.00602122,-0.00126847
 ,-0.00647284,0.00367003,0.00210119,-0.00158609,0.00014002,0.00034516,-
 0.00267876,-0.00023745,0.00183375,-0.00076333,0.00303468,-0.00135039,0
 .00406228,0.00049553,-0.00227147,0.00348579,0.01290934,-0.00733738,0.0
 0392516,-0.00639454,0.00114960,0.00552147,-0.00139554,-0.00327603,-0.0
 2329530,-0.00986471,0.01474955,0.00862075,0.00384398,-0.00775621,-0.00
 362627,0.02608535,0.00567003,-0.00127957,0.00802242,0.00195043,0.00993
 660,-0.00152630,0.00433275,0.01003631,0.00050894,0.00288434,0.00877239
 ,-0.04595372,-0.01278107,-0.01870511,0.00959551,-0.00205027,0.00333000
 ,-0.00083937,0.00045529,-0.00008837,-0.00218027,-0.00070726,-0.0023230
 6,0.00325164,-0.00005703,0.00023799,0.00122693,0.00141029\\\@
 The archive entry for this job was punched.


 WE HAVE SEEN THAT MAN ON THE AVERAGE DOES NOT LIVE ABOVE
 TWO-AND-TWENTY YEARS.  DURING THESE TWO AND TWENTY
 YEARS HE IS LIABLE TO TWO AND TWENTY THOUSAND EVILS,
 MANY OF WHICH ARE INCURABLE.  YET EVEN IN THIS DREADFUL STATE
 MEN STILL STRUT AND POSE ON THE STAGE OF LIFE.
 THEY MAKE LOVE AT THE RISK OF DESTRUCTION,
 INTRIGUE, CARRY ON WAR, AND FORM PROJECTS, JUST AS IF THEY
 WERE TO LIVE IN LUXURY AND HAPPINESS FOR A THOUSAND
 AGES.

                                              -- VOLTAIRE
 Job cpu time:       0 days  1 hours 31 minutes 40.9 seconds.
 Elapsed time:       0 days  0 hours  7 minutes 48.8 seconds.
 File lengths (MBytes):  RWF=    748 Int=      0 D2E=      0 Chk=     19 Scr=      1
 Normal termination of Gaussian 16 at Sat Dec  9 19:12:04 2023.
