Unloading slurm/anatra/current
  ERROR: No such file or directory on
    '/cm/local/modulefiles/slurm/anatra/current'
environment: line 0: unalias: gv: not found
environment: line 0: unalias: sl: not found
 Entering Gaussian System, Link 0=g16
 Initial command:
 /apps/gaussian/g16/C.01/g16/l1.exe "/local/jobs/1149258/Gau-2620519.inp" -scrdir="/local/jobs/1149258/"
 Entering Link 1 = /apps/gaussian/g16/C.01/g16/l1.exe PID=   2620520.
  
 Copyright (c) 1988-2019, Gaussian, Inc.  All Rights Reserved.
  
 This is part of the Gaussian(R) 16 program.  It is based on
 the Gaussian(R) 09 system (copyright 2009, Gaussian, Inc.),
 the Gaussian(R) 03 system (copyright 2003, Gaussian, Inc.),
 the Gaussian(R) 98 system (copyright 1998, Gaussian, Inc.),
 the Gaussian(R) 94 system (copyright 1995, Gaussian, Inc.),
 the Gaussian 92(TM) system (copyright 1992, Gaussian, Inc.),
 the Gaussian 90(TM) system (copyright 1990, Gaussian, Inc.),
 the Gaussian 88(TM) system (copyright 1988, Gaussian, Inc.),
 the Gaussian 86(TM) system (copyright 1986, Carnegie Mellon
 University), and the Gaussian 82(TM) system (copyright 1983,
 Carnegie Mellon University). Gaussian is a federally registered
 trademark of Gaussian, Inc.
  
 This software contains proprietary and confidential information,
 including trade secrets, belonging to Gaussian, Inc.
  
 This software is provided under written license and may be
 used, copied, transmitted, or stored only in accord with that
 written license.
  
 The following legend is applicable only to US Government
 contracts under FAR:
  
                    RESTRICTED RIGHTS LEGEND
  
 Use, reproduction and disclosure by the US Government is
 subject to restrictions as set forth in subparagraphs (a)
 and (c) of the Commercial Computer Software - Restricted
 Rights clause in FAR 52.227-19.
  
 Gaussian, Inc.
 340 Quinnipiac St., Bldg. 40, Wallingford CT 06492
  
  
 ---------------------------------------------------------------
 Warning -- This program may not be used in any manner that
 competes with the business of Gaussian, Inc. or will provide
 assistance to any competitor of Gaussian, Inc.  The licensee
 of this program is prohibited from giving any competitor of
 Gaussian, Inc. access to this program.  By using this program,
 the user acknowledges that Gaussian, Inc. is engaged in the
 business of creating and licensing software in the field of
 computational chemistry and represents and warrants to the
 licensee that it is not a competitor of Gaussian, Inc. and that
 it will not use this program in any manner prohibited above.
 ---------------------------------------------------------------
  

 Cite this work as:
 Gaussian 16, Revision C.01,
 M. J. Frisch, G. W. Trucks, H. B. Schlegel, G. E. Scuseria, 
 M. A. Robb, J. R. Cheeseman, G. Scalmani, V. Barone, 
 G. A. Petersson, H. Nakatsuji, X. Li, M. Caricato, A. V. Marenich, 
 J. Bloino, B. G. Janesko, R. Gomperts, B. Mennucci, H. P. Hratchian, 
 J. V. Ortiz, A. F. Izmaylov, J. L. Sonnenberg, D. Williams-Young, 
 F. Ding, F. Lipparini, F. Egidi, J. Goings, B. Peng, A. Petrone, 
 T. Henderson, D. Ranasinghe, V. G. Zakrzewski, J. Gao, N. Rega, 
 G. Zheng, W. Liang, M. Hada, M. Ehara, K. Toyota, R. Fukuda, 
 J. Hasegawa, M. Ishida, T. Nakajima, Y. Honda, O. Kitao, H. Nakai, 
 T. Vreven, K. Throssell, J. A. Montgomery, Jr., J. E. Peralta, 
 F. Ogliaro, M. J. Bearpark, J. J. Heyd, E. N. Brothers, K. N. Kudin, 
 V. N. Staroverov, T. A. Keith, R. Kobayashi, J. Normand, 
 K. Raghavachari, A. P. Rendell, J. C. Burant, S. S. Iyengar, 
 J. Tomasi, M. Cossi, J. M. Millam, M. Klene, C. Adamo, R. Cammi, 
 J. W. Ochterski, R. L. Martin, K. Morokuma, O. Farkas, 
 J. B. Foresman, and D. J. Fox, Gaussian, Inc., Wallingford CT, 2019.
 
 ******************************************
 Gaussian 16:  ES64L-G16RevC.01  3-Jul-2019
                 9-Dec-2023 
 ******************************************
 %chk=segphos_OPLS3e_1_freq.chk
 %nprocshared=12
 Will use up to   12 processors via shared memory.
 %mem=48GB
 -----------------------------------------------------------
 # m062x 6-31g(d) scrf=(iefpcm,solvent=benzene) freq=noraman
 -----------------------------------------------------------
 1/10=4,30=1,38=1/1,3;
 2/12=2,17=6,18=5,40=1/2;
 3/5=1,6=6,7=1,11=2,25=1,30=1,70=2201,71=2,72=12,74=-55,140=1/1,2,3;
 4//1;
 5/5=2,38=5,53=12,98=1/2;
 8/6=4,10=90,11=11/1;
 11/6=1,8=1,9=11,15=111,16=1/1,2,10;
 10/6=1/2;
 6/7=2,8=2,9=2,10=2,28=1/1;
 7/8=1,10=1,25=1/1,2,3,16;
 1/10=4,30=1/3;
 99//99;
 -------------
 Structure1514
 -------------
 Symbolic Z-matrix:
 Charge =  0 Multiplicity = 1
 C                     1.5802    1.2903   -0.2944 
 C                     0.8611    2.0866    0.6193 
 C                    -0.4969    1.8605    0.8743 
 C                    -1.1122    0.8284    0.1817 
 C                    -0.4283    0.0459   -0.705 
 C                     0.9285    0.2369   -0.9726 
 P                     3.3887    1.6721   -0.618 
 H                     1.3643    2.8927    1.1298 
 H                    -1.0419    2.4691    1.5791 
 O                    -2.4004    0.4049    0.2641 
 O                    -1.2741   -0.9005   -1.1991 
 C                     3.0227   -2.3527   -3.7324 
 C                     3.2166   -2.4152   -2.3606 
 C                     2.5482   -1.5924   -1.499 
 C                     1.6328   -0.6365   -1.9432 
 C                     1.4247   -0.5376   -3.3364 
 C                     2.12     -1.3957   -4.2117 
 H                     3.5485   -3.0115   -4.4061 
 O                     4.0177   -3.2576   -1.6574 
 O                     2.9094   -1.9052   -0.2235 
 P                     0.2581    0.7486   -4.0479 
 H                     1.9598   -1.3109   -5.2751 
 C                    -2.5558   -0.5142   -0.7835 
 C                     4.0079   -2.7674   -0.3437 
 H                    -3.0711   -0.0301   -1.6166 
 H                    -3.1354   -1.3799   -0.46 
 H                     4.9262   -2.2043   -0.1604 
 H                     3.9402   -3.5838    0.3767 
 C                     3.3876    5.7865   -2.7896 
 C                     2.189     5.0866   -2.6692 
 C                     2.1706    3.8584   -2.0125 
 C                     3.3457    3.3316   -1.4709 
 C                     4.544     4.0319   -1.615 
 C                     4.5682    5.2628   -2.2667 
 H                     3.4028    6.736    -3.3053 
 H                     1.2793    5.4809   -3.0978 
 H                     1.2452    3.3055   -1.9546 
 H                     5.4546    3.609    -1.217 
 H                     5.4982    5.8019   -2.3728 
 C                     4.7649    2.3537    3.7688 
 C                     4.5547    3.466     2.9559 
 C                     4.1438    3.2877    1.6365 
 C                     3.9453    2.0005    1.1305 
 C                     4.1553    0.8947    1.9533 
 C                     4.5653    1.0667    3.2733 
 H                     5.0823    2.49      4.793 
 H                     4.7066    4.4619    3.3459 
 H                     3.9704    4.1517    1.0148 
 H                     3.9888   -0.0969    1.5577 
 H                     4.7239    0.2062    3.9069 
 C                     3.0013    3.7585   -6.2973 
 C                     3.5794    2.8462   -5.4172 
 C                     2.773     1.9315   -4.7441 
 C                     1.3918    1.9227   -4.9533 
 C                     0.8215    2.8541   -5.8218 
 C                     1.623     3.7685   -6.5015 
 H                     3.6264    4.4726   -6.814 
 H                     4.6448    2.8565   -5.2396 
 H                     3.2239    1.2518   -4.037 
 H                    -0.2494    2.8603   -5.9613 
 H                     1.1765    4.4854   -7.1748 
 C                    -1.8766   -1.904    -7.2116 
 C                    -0.8953   -1.0129   -7.6418 
 C                    -0.2423   -0.2055   -6.7129 
 C                    -0.5708   -0.2873   -5.3573 
 C                    -1.5516   -1.1846   -4.9371 
 C                    -2.2073   -1.9949   -5.861 
 H                    -2.3833   -2.5322   -7.9304 
 H                    -0.6393   -0.9492   -8.6894 
 H                     0.5251    0.4738   -7.0489 
 H                    -1.792    -1.2498   -3.8857 
 H                    -2.9647   -2.6901   -5.5292 
 

 GradGradGradGradGradGradGradGradGradGradGradGradGradGradGradGradGradGrad
 Berny optimization.
 Initialization pass.
 Trust Radius=3.00D-01 FncErr=1.00D-07 GrdErr=1.00D-07 EigMax=2.50D+02 EigMin=1.00D-04
 Number of steps in this run=      2 maximum allowed number of steps=      2.
 GradGradGradGradGradGradGradGradGradGradGradGradGradGradGradGradGradGrad

 Stoichiometry    C38H28O4P2
 Framework group  C1[X(C38H28O4P2)]
 Deg. of freedom   210
 Full point group                 C1      NOp   1
 Largest Abelian subgroup         C1      NOp   1
 Largest concise Abelian subgroup C1      NOp   1
                         Standard orientation:                         
 ---------------------------------------------------------------------
 Center     Atomic      Atomic             Coordinates (Angstroms)
 Number     Number       Type             X           Y           Z
 ---------------------------------------------------------------------
      1          6           0       -1.560679   -0.703470   -0.847949
      2          6           0       -2.199421   -0.741825   -2.103569
      3          6           0       -1.667551   -1.474355   -3.171663
      4          6           0       -0.477968   -2.152039   -2.949954
      5          6           0        0.151821   -2.127013   -1.737930
      6          6           0       -0.358187   -1.416888   -0.649532
      7         15           0       -2.307360    0.329221    0.529432
      8          1           0       -3.114934   -0.190242   -2.249209
      9          1           0       -2.163249   -1.505483   -4.129513
     10          8           0        0.221814   -2.935791   -3.811139
     11          8           0        1.266624   -2.906618   -1.805872
     12          6           0        1.667388   -1.474153    3.171720
     13          6           0        0.477892   -2.151844    2.949967
     14          6           0       -0.151817   -2.126926    1.737961
     15          6           0        0.358286   -1.416884    0.649543
     16          6           0        1.560689   -0.703487    0.847995
     17          6           0        2.199398   -0.741685    2.103591
     18          1           0        2.163067   -1.505121    4.129685
     19          8           0       -0.221999   -2.935553    3.811269
     20          8           0       -1.266655   -2.906490    1.805968
     21         15           0        2.307444    0.329177   -0.529488
     22          1           0        3.114907   -0.190067    2.249312
     23          6           0        1.437934   -3.201345   -3.165465
     24          6           0       -1.438017   -3.201089    3.165522
     25          1           0        2.215465   -2.553054   -3.576692
     26          1           0        1.732614   -4.242775   -3.301889
     27          1           0       -2.215548   -2.552738    3.576670
     28          1           0       -1.732825   -4.242489    3.302056
     29          6           0       -1.837904    4.739967   -0.873802
     30          6           0       -1.126087    3.741804   -1.535607
     31          6           0       -1.263877    2.415084   -1.134486
     32          6           0       -2.115751    2.083497   -0.078044
     33          6           0       -2.808302    3.093768    0.590412
     34          6           0       -2.678274    4.421965    0.191166
     35          1           0       -1.725351    5.769952   -1.180708
     36          1           0       -0.454790    3.992253   -2.343913
     37          1           0       -0.681902    1.651885   -1.628700
     38          1           0       -3.446200    2.835836    1.422877
     39          1           0       -3.219035    5.199605    0.710433
     40          6           0       -6.760290   -0.891011   -0.004387
     41          6           0       -6.346805    0.349329   -0.486870
     42          6           0       -5.017397    0.738834   -0.337184
     43          6           0       -4.104032   -0.108821    0.294929
     44          6           0       -4.527501   -1.348935    0.771043
     45          6           0       -5.854972   -1.744108    0.623588
     46          1           0       -7.790826   -1.195558   -0.120805
     47          1           0       -7.051437    1.005380   -0.976852
     48          1           0       -4.699141    1.694265   -0.723109
     49          1           0       -3.812496   -2.003245    1.248681
     50          1           0       -6.176713   -2.707278    0.992168
     51          6           0        1.838021    4.739995    0.873639
     52          6           0        1.126147    3.741860    1.535476
     53          6           0        1.263917    2.415151    1.134373
     54          6           0        2.115738    2.083537    0.077969
     55          6           0        2.808349    3.093709   -0.590524
     56          6           0        2.678442    4.421960   -0.191281
     57          1           0        1.725521    5.769962    1.180528
     58          1           0        0.454804    3.992354    2.343731
     59          1           0        0.681888    1.652022    1.628508
     60          1           0        3.446272    2.835737   -1.422888
     61          1           0        3.219162    5.199561   -0.710512
     62          6           0        6.760310   -0.891111    0.004465
     63          6           0        6.346740    0.349175    0.486886
     64          6           0        5.017443    0.738688    0.337194
     65          6           0        4.104058   -0.108859   -0.294983
     66          6           0        4.527452   -1.348986   -0.770912
     67          6           0        5.854930   -1.744186   -0.623465
     68          1           0        7.790707   -1.195719    0.120869
     69          1           0        7.051395    1.005211    0.976925
     70          1           0        4.699199    1.694225    0.723092
     71          1           0        3.812513   -2.003288   -1.248651
     72          1           0        6.176668   -2.707350   -0.992041
 ---------------------------------------------------------------------
 Rotational constants (GHZ):           0.0984335           0.0638439           0.0529998
 Standard basis: 6-31G(d) (6D, 7F)
 There are   724 symmetry adapted cartesian basis functions of A   symmetry.
 There are   724 symmetry adapted basis functions of A   symmetry.
   724 basis functions,  1392 primitive gaussians,   724 cartesian basis functions
   159 alpha electrons      159 beta electrons
       nuclear repulsion energy      5726.6718217691 Hartrees.
 NAtoms=   72 NActive=   72 NUniq=   72 SFac= 1.00D+00 NAtFMM=   60 NAOKFM=T Big=T
 Integral buffers will be    131072 words long.
 Raffenetti 2 integral format.
 Two-electron integral symmetry is turned on.
 Force inversion solution in PCM.
 ------------------------------------------------------------------------------
 Polarizable Continuum Model (PCM)
 =================================
 Model                : PCM.
 Atomic radii         : UFF (Universal Force Field).
 Polarization charges : Total charges.
 Charge compensation  : None.
 Solution method      : Matrix inversion.
 Cavity type          : Scaled VdW (van der Waals Surface) (Alpha=1.100).
 Cavity algorithm     : GePol (No added spheres)
                        Default sphere list used, NSphG=   72.
                        Lebedev-Laikov grids with approx.  5.0 points / Ang**2.
                        Smoothing algorithm: York/Karplus (Gamma=1.0000).
                        Polarization charges: spherical gaussians, with
                                              point-specific exponents (IZeta= 3).
                        Self-potential: point-specific (ISelfS= 7).
                        Self-field    : sphere-specific E.n sum rule (ISelfD= 2).
 1st derivatives      : Analytical E(r).r(x)/FMM algorithm (CHGder, D1EAlg=3).
                        Cavity 1st derivative terms included.
 2nd derivatives      : Analytical E(r).r(xy)/FMM algorithm (CHGder, D2EAlg=3).
                        Cavity 2nd derivative terms included.
 Solvent              : Benzene, Eps=   2.270600 Eps(inf)=   2.253301
 ------------------------------------------------------------------------------
 One-electron integrals computed using PRISM.
 NBasis=   724 RedAO= T EigKep=  3.23D-04  NBF=   724
 NBsUse=   724 1.00D-06 EigRej= -1.00D+00 NBFU=   724
 ExpMin= 9.98D-02 ExpMax= 1.94D+04 ExpMxC= 2.91D+03 IAcc=3 IRadAn=         5 AccDes= 0.00D+00
 Harris functional with IExCor= 1009 and IRadAn=       5 diagonalized for initial guess.
 HarFok:  IExCor= 1009 AccDes= 0.00D+00 IRadAn=         5 IDoV= 1 UseB2=F ITyADJ=14
 ICtDFT=  3500011 ScaDFX=  1.000000  1.000000  1.000000  1.000000
 FoFCou: FMM=F IPFlag=           0 FMFlag=      100000 FMFlg1=        2001
         NFxFlg=           0 DoJE=T BraDBF=F KetDBF=T FulRan=T
         wScrn=  0.000000 ICntrl=       500 IOpCl=  0 I1Cent=   200000004 NGrid=           0
         NMat0=    1 NMatS0=      1 NMatT0=    0 NMatD0=    1 NMtDS0=    0 NMtDT0=    0
 Petite list used in FoFCou.
 Requested convergence on RMS density matrix=1.00D-08 within 128 cycles.
 Requested convergence on MAX density matrix=1.00D-06.
 Requested convergence on             energy=1.00D-06.
 No special actions if energy rises.
 Inv3:  Mode=1 IEnd=    78458988.
 Iteration    1 A*A^-1 deviation from unit magnitude is 3.33D-15 for   3828.
 Iteration    1 A*A^-1 deviation from orthogonality  is 2.00D-15 for   3637   1096.
 Iteration    1 A^-1*A deviation from unit magnitude is 3.33D-15 for   3490.
 Iteration    1 A^-1*A deviation from orthogonality  is 2.11D-15 for   2759   1239.
 Error on total polarization charges =  0.00223
 SCF Done:  E(RM062X) =  -2447.68188859     A.U. after   14 cycles
            NFock= 14  Conv=0.44D-08     -V/T= 2.0070
 DoSCS=F DFT=T ScalE2(SS,OS)=  1.000000  1.000000
 Range of M.O.s used for correlation:     1   724
 NBasis=   724 NAE=   159 NBE=   159 NFC=     0 NFV=     0
 NROrb=    724 NOA=   159 NOB=   159 NVA=   565 NVB=   565
 Symmetrizing basis deriv contribution to polar:
 IMax=3 JMax=2 DiffMx= 0.00D+00
 G2DrvN: will do    73 centers at a time, making    1 passes.
 Calling FoFCou, ICntrl=  3107 FMM=T I1Cent=   0 AccDes= 0.00D+00.
 NEqPCM:  Using equilibrium solvation (IEInf=0, Eps=   2.2706, EpsInf=   2.2533)
 G2PCM: DoFxE=T DoFxN=T DoGrad=T DoDP/DQ/DG/TGxP=FFFF NFrqRd=   0 IEInf=0 SqF1=F DoCFld=F IF1Alg=4.
 End of G2Drv F.D. properties file   721 does not exist.
 End of G2Drv F.D. properties file   722 does not exist.
 End of G2Drv F.D. properties file   788 does not exist.
          IDoAtm=11111111111111111111111111111111111111111111111111
          IDoAtm=1111111111111111111111
 NEqPCM:  Using equilibrium solvation (IEInf=0, Eps=   2.2706, EpsInf=   2.2533)
          Differentiating once with respect to electric field.
                with respect to dipole field.
          Differentiating once with respect to nuclear coordinates.
 CalDSu exits because no D1Ps are significant.
          There are   219 degrees of freedom in the 1st order CPHF.  IDoFFX=6 NUNeed=     3.
    216 vectors produced by pass  0 Test12= 8.98D-14 1.00D-09 XBig12= 3.33D+02 3.81D+00.
 AX will form    72 AO Fock derivatives at one time.
    216 vectors produced by pass  1 Test12= 8.98D-14 1.00D-09 XBig12= 3.20D+01 7.48D-01.
    216 vectors produced by pass  2 Test12= 8.98D-14 1.00D-09 XBig12= 5.41D-01 6.14D-02.
    216 vectors produced by pass  3 Test12= 8.98D-14 1.00D-09 XBig12= 4.91D-03 7.22D-03.
    216 vectors produced by pass  4 Test12= 8.98D-14 1.00D-09 XBig12= 3.93D-05 7.06D-04.
    216 vectors produced by pass  5 Test12= 8.98D-14 1.00D-09 XBig12= 1.86D-07 3.29D-05.
    146 vectors produced by pass  6 Test12= 8.98D-14 1.00D-09 XBig12= 6.81D-10 2.04D-06.
     16 vectors produced by pass  7 Test12= 8.98D-14 1.00D-09 XBig12= 2.22D-12 9.02D-08.
      3 vectors produced by pass  8 Test12= 8.98D-14 1.00D-09 XBig12= 7.61D-15 5.48D-09.
      3 vectors produced by pass  9 Test12= 8.98D-14 1.00D-09 XBig12= 1.38D-15 1.56D-09.
      3 vectors produced by pass 10 Test12= 8.98D-14 1.00D-09 XBig12= 2.72D-15 2.50D-09.
      3 vectors produced by pass 11 Test12= 8.98D-14 1.00D-09 XBig12= 2.72D-15 1.90D-09.
      2 vectors produced by pass 12 Test12= 8.98D-14 1.00D-09 XBig12= 1.41D-15 1.47D-09.
 InvSVY:  IOpt=1 It=  1 EMax= 2.49D-14
 Solved reduced A of dimension  1472 with   219 vectors.
 Isotropic polarizability for W=    0.000000      501.81 Bohr**3.
 End of Minotr F.D. properties file   721 does not exist.
 End of Minotr F.D. properties file   722 does not exist.
 End of Minotr F.D. properties file   788 does not exist.

 **********************************************************************

            Population analysis using the SCF Density.

 **********************************************************************

 Orbital symmetries:
       Occupied  (A) (A) (A) (A) (A) (A) (A) (A) (A) (A) (A) (A)
                 (A) (A) (A) (A) (A) (A) (A) (A) (A) (A) (A) (A)
                 (A) (A) (A) (A) (A) (A) (A) (A) (A) (A) (A) (A)
                 (A) (A) (A) (A) (A) (A) (A) (A) (A) (A) (A) (A)
                 (A) (A) (A) (A) (A) (A) (A) (A) (A) (A) (A) (A)
                 (A) (A) (A) (A) (A) (A) (A) (A) (A) (A) (A) (A)
                 (A) (A) (A) (A) (A) (A) (A) (A) (A) (A) (A) (A)
                 (A) (A) (A) (A) (A) (A) (A) (A) (A) (A) (A) (A)
                 (A) (A) (A) (A) (A) (A) (A) (A) (A) (A) (A) (A)
                 (A) (A) (A) (A) (A) (A) (A) (A) (A) (A) (A) (A)
                 (A) (A) (A) (A) (A) (A) (A) (A) (A) (A) (A) (A)
                 (A) (A) (A) (A) (A) (A) (A) (A) (A) (A) (A) (A)
                 (A) (A) (A) (A) (A) (A) (A) (A) (A) (A) (A) (A)
                 (A) (A) (A)
       Virtual   (A) (A) (A) (A) (A) (A) (A) (A) (A) (A) (A) (A)
                 (A) (A) (A) (A) (A) (A) (A) (A) (A) (A) (A) (A)
                 (A) (A) (A) (A) (A) (A) (A) (A) (A) (A) (A) (A)
                 (A) (A) (A) (A) (A) (A) (A) (A) (A) (A) (A) (A)
                 (A) (A) (A) (A) (A) (A) (A) (A) (A) (A) (A) (A)
                 (A) (A) (A) (A) (A) (A) (A) (A) (A) (A) (A) (A)
                 (A) (A) (A) (A) (A) (A) (A) (A) (A) (A) (A) (A)
                 (A) (A) (A) (A) (A) (A) (A) (A) (A) (A) (A) (A)
                 (A) (A) (A) (A) (A) (A) (A) (A) (A) (A) (A) (A)
                 (A) (A) (A) (A) (A) (A) (A) (A) (A) (A) (A) (A)
                 (A) (A) (A) (A) (A) (A) (A) (A) (A) (A) (A) (A)
                 (A) (A) (A) (A) (A) (A) (A) (A) (A) (A) (A) (A)
                 (A) (A) (A) (A) (A) (A) (A) (A) (A) (A) (A) (A)
                 (A) (A) (A) (A) (A) (A) (A) (A) (A) (A) (A) (A)
                 (A) (A) (A) (A) (A) (A) (A) (A) (A) (A) (A) (A)
                 (A) (A) (A) (A) (A) (A) (A) (A) (A) (A) (A) (A)
                 (A) (A) (A) (A) (A) (A) (A) (A) (A) (A) (A) (A)
                 (A) (A) (A) (A) (A) (A) (A) (A) (A) (A) (A) (A)
                 (A) (A) (A) (A) (A) (A) (A) (A) (A) (A) (A) (A)
                 (A) (A) (A) (A) (A) (A) (A) (A) (A) (A) (A) (A)
                 (A) (A) (A) (A) (A) (A) (A) (A) (A) (A) (A) (A)
                 (A) (A) (A) (A) (A) (A) (A) (A) (A) (A) (A) (A)
                 (A) (A) (A) (A) (A) (A) (A) (A) (A) (A) (A) (A)
                 (A) (A) (A) (A) (A) (A) (A) (A) (A) (A) (A) (A)
                 (A) (A) (A) (A) (A) (A) (A) (A) (A) (A) (A) (A)
                 (A) (A) (A) (A) (A) (A) (A) (A) (A) (A) (A) (A)
                 (A) (A) (A) (A) (A) (A) (A) (A) (A) (A) (A) (A)
                 (A) (A) (A) (A) (A) (A) (A) (A) (A) (A) (A) (A)
                 (A) (A) (A) (A) (A) (A) (A) (A) (A) (A) (A) (A)
                 (A) (A) (A) (A) (A) (A) (A) (A) (A) (A) (A) (A)
                 (A) (A) (A) (A) (A) (A) (A) (A) (A) (A) (A) (A)
                 (A) (A) (A) (A) (A) (A) (A) (A) (A) (A) (A) (A)
                 (A) (A) (A) (A) (A) (A) (A) (A) (A) (A) (A) (A)
                 (A) (A) (A) (A) (A) (A) (A) (A) (A) (A) (A) (A)
                 (A) (A) (A) (A) (A) (A) (A) (A) (A) (A) (A) (A)
                 (A) (A) (A) (A) (A) (A) (A) (A) (A) (A) (A) (A)
                 (A) (A) (A) (A) (A) (A) (A) (A) (A) (A) (A) (A)
                 (A) (A) (A) (A) (A) (A) (A) (A) (A) (A) (A) (A)
                 (A) (A) (A) (A) (A) (A) (A) (A) (A) (A) (A) (A)
                 (A) (A) (A) (A) (A) (A) (A) (A) (A) (A) (A) (A)
                 (A) (A) (A) (A) (A) (A) (A) (A) (A) (A) (A) (A)
                 (A) (A) (A) (A) (A) (A) (A) (A) (A) (A) (A) (A)
                 (A) (A) (A) (A) (A) (A) (A) (A) (A) (A) (A) (A)
                 (A) (A) (A) (A) (A) (A) (A) (A) (A) (A) (A) (A)
                 (A) (A) (A) (A) (A) (A) (A) (A) (A) (A) (A) (A)
                 (A) (A) (A) (A) (A) (A) (A) (A) (A) (A) (A) (A)
                 (A) (A) (A) (A) (A) (A) (A) (A) (A) (A) (A) (A)
                 (A)
 The electronic state is 1-A.
 Alpha  occ. eigenvalues --  -78.05344 -78.05344 -19.68732 -19.68731 -19.68648
 Alpha  occ. eigenvalues --  -19.68647 -10.66310 -10.66309 -10.61351 -10.61350
 Alpha  occ. eigenvalues --  -10.61248 -10.61248 -10.57604 -10.57558 -10.56346
 Alpha  occ. eigenvalues --  -10.56346 -10.55914 -10.55913 -10.55867 -10.55866
 Alpha  occ. eigenvalues --  -10.55858 -10.55858 -10.55647 -10.55646 -10.55212
 Alpha  occ. eigenvalues --  -10.55211 -10.55170 -10.55169 -10.55108 -10.55107
 Alpha  occ. eigenvalues --  -10.55084 -10.55083 -10.55035 -10.55034 -10.55025
 Alpha  occ. eigenvalues --  -10.55024 -10.54984 -10.54983 -10.54862 -10.54862
 Alpha  occ. eigenvalues --  -10.54834 -10.54833 -10.54727 -10.54726  -6.85548
 Alpha  occ. eigenvalues --   -6.85547  -4.97065  -4.97064  -4.97048  -4.97048
 Alpha  occ. eigenvalues --   -4.96762  -4.96762  -1.27126  -1.27103  -1.16653
 Alpha  occ. eigenvalues --   -1.16604  -0.98339  -0.96347  -0.95957  -0.95736
 Alpha  occ. eigenvalues --   -0.95496  -0.95341  -0.88581  -0.87234  -0.86957
 Alpha  occ. eigenvalues --   -0.84998  -0.84927  -0.84172  -0.84152  -0.83946
 Alpha  occ. eigenvalues --   -0.83835  -0.83436  -0.83377  -0.82479  -0.77123
 Alpha  occ. eigenvalues --   -0.77034  -0.73811  -0.73003  -0.72289  -0.70121
 Alpha  occ. eigenvalues --   -0.69712  -0.68942  -0.68777  -0.68670  -0.68357
 Alpha  occ. eigenvalues --   -0.68223  -0.67427  -0.67369  -0.63869  -0.63829
 Alpha  occ. eigenvalues --   -0.61779  -0.61341  -0.60739  -0.60255  -0.59803
 Alpha  occ. eigenvalues --   -0.58963  -0.58907  -0.58110  -0.57553  -0.56828
 Alpha  occ. eigenvalues --   -0.54867  -0.54793  -0.52325  -0.52265  -0.51563
 Alpha  occ. eigenvalues --   -0.51541  -0.51281  -0.51263  -0.51189  -0.51187
 Alpha  occ. eigenvalues --   -0.51141  -0.50231  -0.50099  -0.48900  -0.48778
 Alpha  occ. eigenvalues --   -0.48775  -0.48580  -0.48340  -0.48245  -0.47198
 Alpha  occ. eigenvalues --   -0.47170  -0.46828  -0.46698  -0.45930  -0.45694
 Alpha  occ. eigenvalues --   -0.44618  -0.44485  -0.44275  -0.43941  -0.43697
 Alpha  occ. eigenvalues --   -0.43635  -0.43388  -0.43381  -0.42363  -0.40699
 Alpha  occ. eigenvalues --   -0.40275  -0.40259  -0.40095  -0.40011  -0.38695
 Alpha  occ. eigenvalues --   -0.38512  -0.38060  -0.37636  -0.36716  -0.36644
 Alpha  occ. eigenvalues --   -0.33148  -0.32584  -0.31163  -0.30776  -0.30615
 Alpha  occ. eigenvalues --   -0.30595  -0.30452  -0.30235  -0.29684  -0.29230
 Alpha  occ. eigenvalues --   -0.26898  -0.26069  -0.25082  -0.24994
 Alpha virt. eigenvalues --    0.00494   0.01051   0.01780   0.02231   0.02582
 Alpha virt. eigenvalues --    0.02615   0.02928   0.03340   0.03460   0.03966
 Alpha virt. eigenvalues --    0.04132   0.04658   0.09370   0.09493   0.10487
 Alpha virt. eigenvalues --    0.11397   0.13286   0.13924   0.14573   0.14737
 Alpha virt. eigenvalues --    0.15364   0.15847   0.16089   0.16260   0.16877
 Alpha virt. eigenvalues --    0.16893   0.18802   0.18812   0.19199   0.19389
 Alpha virt. eigenvalues --    0.19628   0.19689   0.20090   0.20266   0.20321
 Alpha virt. eigenvalues --    0.20706   0.20746   0.21036   0.21109   0.21256
 Alpha virt. eigenvalues --    0.21582   0.22068   0.22437   0.22688   0.23125
 Alpha virt. eigenvalues --    0.23319   0.23519   0.23704   0.24138   0.24270
 Alpha virt. eigenvalues --    0.24459   0.24581   0.24905   0.25062   0.25829
 Alpha virt. eigenvalues --    0.26286   0.26547   0.27639   0.29190   0.29640
 Alpha virt. eigenvalues --    0.30281   0.30382   0.32051   0.32090   0.32439
 Alpha virt. eigenvalues --    0.32688   0.33913   0.34008   0.34670   0.34822
 Alpha virt. eigenvalues --    0.35052   0.35105   0.35560   0.36007   0.36131
 Alpha virt. eigenvalues --    0.36523   0.36633   0.37667   0.37795   0.38304
 Alpha virt. eigenvalues --    0.40326   0.40782   0.41563   0.42485   0.42876
 Alpha virt. eigenvalues --    0.42905   0.44116   0.44624   0.44631   0.45994
 Alpha virt. eigenvalues --    0.46089   0.48080   0.48290   0.49247   0.49836
 Alpha virt. eigenvalues --    0.50228   0.51459   0.52809   0.53879   0.54328
 Alpha virt. eigenvalues --    0.54499   0.54926   0.55066   0.56652   0.56863
 Alpha virt. eigenvalues --    0.57045   0.57452   0.57985   0.58082   0.58454
 Alpha virt. eigenvalues --    0.58490   0.58840   0.59228   0.59524   0.59918
 Alpha virt. eigenvalues --    0.60043   0.61083   0.61175   0.61267   0.61554
 Alpha virt. eigenvalues --    0.61662   0.62010   0.62326   0.62649   0.63021
 Alpha virt. eigenvalues --    0.63357   0.63713   0.63816   0.63999   0.64269
 Alpha virt. eigenvalues --    0.64308   0.64544   0.64576   0.65022   0.65228
 Alpha virt. eigenvalues --    0.65386   0.65547   0.65828   0.65841   0.65851
 Alpha virt. eigenvalues --    0.66416   0.66461   0.66520   0.66690   0.66760
 Alpha virt. eigenvalues --    0.67516   0.67603   0.67799   0.67857   0.68343
 Alpha virt. eigenvalues --    0.68435   0.69268   0.69618   0.69697   0.70411
 Alpha virt. eigenvalues --    0.70903   0.71659   0.71761   0.72259   0.73103
 Alpha virt. eigenvalues --    0.74166   0.74183   0.74969   0.75451   0.76061
 Alpha virt. eigenvalues --    0.76291   0.76575   0.77297   0.77631   0.78876
 Alpha virt. eigenvalues --    0.80276   0.80322   0.81200   0.81856   0.82023
 Alpha virt. eigenvalues --    0.82125   0.83619   0.84548   0.85086   0.85723
 Alpha virt. eigenvalues --    0.86161   0.86570   0.86656   0.87323   0.87936
 Alpha virt. eigenvalues --    0.88774   0.88796   0.89298   0.89689   0.90588
 Alpha virt. eigenvalues --    0.90909   0.91089   0.91165   0.91407   0.91543
 Alpha virt. eigenvalues --    0.91725   0.91847   0.91893   0.91893   0.92613
 Alpha virt. eigenvalues --    0.92667   0.93081   0.93302   0.93539   0.93933
 Alpha virt. eigenvalues --    0.93963   0.94729   0.95150   0.95289   0.95699
 Alpha virt. eigenvalues --    0.96411   0.97039   0.97780   0.97795   0.98114
 Alpha virt. eigenvalues --    0.98298   0.98333   0.98878   0.99204   0.99672
 Alpha virt. eigenvalues --    0.99822   1.00174   1.00347   1.00865   1.01123
 Alpha virt. eigenvalues --    1.01197   1.01343   1.02282   1.02574   1.02815
 Alpha virt. eigenvalues --    1.03242   1.03275   1.04101   1.04558   1.05248
 Alpha virt. eigenvalues --    1.05668   1.06168   1.06649   1.07216   1.07371
 Alpha virt. eigenvalues --    1.08137   1.09102   1.09725   1.09981   1.10556
 Alpha virt. eigenvalues --    1.11500   1.12759   1.12995   1.13710   1.14243
 Alpha virt. eigenvalues --    1.14618   1.14805   1.15762   1.16222   1.17132
 Alpha virt. eigenvalues --    1.17301   1.17934   1.17972   1.19419   1.19836
 Alpha virt. eigenvalues --    1.19958   1.20412   1.20874   1.21595   1.22542
 Alpha virt. eigenvalues --    1.22922   1.23648   1.23826   1.25306   1.25847
 Alpha virt. eigenvalues --    1.26892   1.27608   1.28163   1.29013   1.29374
 Alpha virt. eigenvalues --    1.30717   1.30877   1.31495   1.31892   1.32235
 Alpha virt. eigenvalues --    1.33335   1.33473   1.33555   1.33748   1.34277
 Alpha virt. eigenvalues --    1.34532   1.35805   1.36662   1.36988   1.38462
 Alpha virt. eigenvalues --    1.39024   1.40424   1.40902   1.42905   1.43943
 Alpha virt. eigenvalues --    1.44403   1.44920   1.46193   1.46210   1.46857
 Alpha virt. eigenvalues --    1.47511   1.47914   1.48401   1.49183   1.49266
 Alpha virt. eigenvalues --    1.49970   1.50433   1.51040   1.52109   1.52286
 Alpha virt. eigenvalues --    1.52784   1.53098   1.53220   1.53574   1.53904
 Alpha virt. eigenvalues --    1.54313   1.54411   1.55095   1.55149   1.55446
 Alpha virt. eigenvalues --    1.55843   1.56103   1.56190   1.56330   1.56557
 Alpha virt. eigenvalues --    1.56804   1.56901   1.57215   1.57995   1.59723
 Alpha virt. eigenvalues --    1.61034   1.61240   1.62237   1.63115   1.63433
 Alpha virt. eigenvalues --    1.65294   1.67372   1.67520   1.68045   1.74837
 Alpha virt. eigenvalues --    1.76552   1.78075   1.80035   1.80542   1.81365
 Alpha virt. eigenvalues --    1.82010   1.82462   1.84136   1.84173   1.84609
 Alpha virt. eigenvalues --    1.85208   1.85323   1.86948   1.87296   1.87865
 Alpha virt. eigenvalues --    1.87991   1.88898   1.89205   1.89357   1.89574
 Alpha virt. eigenvalues --    1.91888   1.93292   1.93961   1.94570   1.95483
 Alpha virt. eigenvalues --    1.95727   1.95935   1.96237   1.96716   1.97379
 Alpha virt. eigenvalues --    1.97479   1.98302   1.99984   2.00655   2.01853
 Alpha virt. eigenvalues --    2.02864   2.03533   2.04069   2.04471   2.04698
 Alpha virt. eigenvalues --    2.04929   2.04986   2.05706   2.05826   2.06019
 Alpha virt. eigenvalues --    2.06170   2.07823   2.08526   2.08829   2.11378
 Alpha virt. eigenvalues --    2.11595   2.12045   2.12436   2.12545   2.13297
 Alpha virt. eigenvalues --    2.13549   2.14776   2.15472   2.16028   2.16574
 Alpha virt. eigenvalues --    2.16944   2.17034   2.18256   2.18528   2.18830
 Alpha virt. eigenvalues --    2.18916   2.19064   2.19132   2.19391   2.19431
 Alpha virt. eigenvalues --    2.19519   2.19779   2.20070   2.20190   2.20192
 Alpha virt. eigenvalues --    2.20810   2.20867   2.20943   2.22746   2.22807
 Alpha virt. eigenvalues --    2.23185   2.24149   2.25864   2.27452   2.28443
 Alpha virt. eigenvalues --    2.30014   2.31212   2.32261   2.33464   2.33564
 Alpha virt. eigenvalues --    2.33653   2.33951   2.34051   2.34253   2.34344
 Alpha virt. eigenvalues --    2.34632   2.35031   2.35739   2.36644   2.37047
 Alpha virt. eigenvalues --    2.37393   2.37529   2.37704   2.38000   2.40336
 Alpha virt. eigenvalues --    2.43304   2.46777   2.48292   2.50959   2.53126
 Alpha virt. eigenvalues --    2.53618   2.56794   2.57727   2.57910   2.58200
 Alpha virt. eigenvalues --    2.58881   2.59192   2.59907   2.61178   2.61904
 Alpha virt. eigenvalues --    2.61967   2.62672   2.63896   2.64404   2.67225
 Alpha virt. eigenvalues --    2.67603   2.67615   2.67708   2.67798   2.68629
 Alpha virt. eigenvalues --    2.69380   2.69660   2.70557   2.70950   2.71663
 Alpha virt. eigenvalues --    2.71945   2.72901   2.73468   2.73621   2.74297
 Alpha virt. eigenvalues --    2.74329   2.74713   2.75799   2.75930   2.76934
 Alpha virt. eigenvalues --    2.77058   2.77498   2.78036   2.78424   2.78469
 Alpha virt. eigenvalues --    2.78846   2.79492   2.80379   2.80437   2.81404
 Alpha virt. eigenvalues --    2.81509   2.82223   2.82579   2.82916   2.87427
 Alpha virt. eigenvalues --    2.92265   2.92908   2.94061   2.94291   2.97197
 Alpha virt. eigenvalues --    3.05234   3.05319   3.05674   3.06188   3.06938
 Alpha virt. eigenvalues --    3.07347   3.07995   3.13132   3.24798   3.29598
 Alpha virt. eigenvalues --    3.37874   3.38300   3.40849   3.41394   3.43202
 Alpha virt. eigenvalues --    3.47792   3.65587   3.65800   4.02331   4.03650
 Alpha virt. eigenvalues --    4.09939   4.12422   4.12550   4.14172   4.14349
 Alpha virt. eigenvalues --    4.15219   4.15228   4.15967   4.17000   4.19655
 Alpha virt. eigenvalues --    4.21003   4.21569   4.23944   4.25629   4.26231
 Alpha virt. eigenvalues --    4.29372   4.33033   4.33308   4.36030   4.36175
 Alpha virt. eigenvalues --    4.36699   4.37736   4.38292   4.39564   4.39946
 Alpha virt. eigenvalues --    4.41075   4.41445   4.42189   4.43350   4.44780
 Alpha virt. eigenvalues --    4.53871   4.60820   4.61272   4.68112   4.70288
 Alpha virt. eigenvalues --    4.70858   4.71018   4.72310   5.02478   5.11105
          Condensed to atoms (all electrons):
 Mulliken charges:
               1
     1  C   -0.166237
     2  C   -0.182425
     3  C   -0.186814
     4  C    0.313071
     5  C    0.330966
     6  C   -0.035933
     7  P    0.350429
     8  H    0.181420
     9  H    0.190930
    10  O   -0.549821
    11  O   -0.548448
    12  C   -0.186855
    13  C    0.313068
    14  C    0.330990
    15  C   -0.035912
    16  C   -0.166235
    17  C   -0.182427
    18  H    0.190935
    19  O   -0.549840
    20  O   -0.548432
    21  P    0.350427
    22  H    0.181431
    23  C    0.179438
    24  C    0.179446
    25  H    0.173502
    26  H    0.194334
    27  H    0.173467
    28  H    0.194309
    29  C   -0.175769
    30  C   -0.146743
    31  C   -0.183178
    32  C   -0.117308
    33  C   -0.209005
    34  C   -0.157293
    35  H    0.168464
    36  H    0.173514
    37  H    0.184582
    38  H    0.177029
    39  H    0.172814
    40  C   -0.177563
    41  C   -0.156780
    42  C   -0.195993
    43  C   -0.127232
    44  C   -0.190995
    45  C   -0.157393
    46  H    0.170739
    47  H    0.173731
    48  H    0.178618
    49  H    0.177644
    50  H    0.173714
    51  C   -0.175781
    52  C   -0.146739
    53  C   -0.183175
    54  C   -0.117287
    55  C   -0.209017
    56  C   -0.157287
    57  H    0.168460
    58  H    0.173517
    59  H    0.184575
    60  H    0.177026
    61  H    0.172819
    62  C   -0.177535
    63  C   -0.156782
    64  C   -0.195980
    65  C   -0.127211
    66  C   -0.190990
    67  C   -0.157418
    68  H    0.170754
    69  H    0.173717
    70  H    0.178611
    71  H    0.177637
    72  H    0.173705
 Sum of Mulliken charges =  -0.00000
 Mulliken charges with hydrogens summed into heavy atoms:
               1
     1  C   -0.166237
     2  C   -0.001005
     3  C    0.004116
     4  C    0.313071
     5  C    0.330966
     6  C   -0.035933
     7  P    0.350429
    10  O   -0.549821
    11  O   -0.548448
    12  C    0.004080
    13  C    0.313068
    14  C    0.330990
    15  C   -0.035912
    16  C   -0.166235
    17  C   -0.000997
    19  O   -0.549840
    20  O   -0.548432
    21  P    0.350427
    23  C    0.547274
    24  C    0.547221
    29  C   -0.007305
    30  C    0.026771
    31  C    0.001404
    32  C   -0.117308
    33  C   -0.031976
    34  C    0.015521
    40  C   -0.006824
    41  C    0.016951
    42  C   -0.017375
    43  C   -0.127232
    44  C   -0.013351
    45  C    0.016321
    51  C   -0.007321
    52  C    0.026778
    53  C    0.001399
    54  C   -0.117287
    55  C   -0.031991
    56  C    0.015533
    62  C   -0.006780
    63  C    0.016935
    64  C   -0.017369
    65  C   -0.127211
    66  C   -0.013353
    67  C    0.016287
 APT charges:
               1
     1  C   -0.299301
     2  C   -0.138057
     3  C   -0.057552
     4  C    0.609743
     5  C    0.341411
     6  C    0.157302
     7  P    0.753736
     8  H    0.056004
     9  H    0.051709
    10  O   -0.996284
    11  O   -0.937794
    12  C   -0.057465
    13  C    0.609532
    14  C    0.341503
    15  C    0.157215
    16  C   -0.299149
    17  C   -0.138144
    18  H    0.051692
    19  O   -0.996124
    20  O   -0.937848
    21  P    0.753684
    22  H    0.056011
    23  C    1.047733
    24  C    1.047800
    25  H   -0.079769
    26  H   -0.051358
    27  H   -0.079817
    28  H   -0.051398
    29  C   -0.040154
    30  C   -0.021484
    31  C   -0.110447
    32  C   -0.142995
    33  C   -0.075654
    34  C   -0.018247
    35  H    0.022988
    36  H    0.028961
    37  H    0.062919
    38  H    0.050525
    39  H    0.020623
    40  C   -0.049017
    41  C   -0.009336
    42  C   -0.134332
    43  C   -0.121733
    44  C   -0.094800
    45  C   -0.007799
    46  H    0.019200
    47  H    0.016088
    48  H    0.061673
    49  H    0.066353
    50  H    0.019144
    51  C   -0.040146
    52  C   -0.021487
    53  C   -0.110454
    54  C   -0.142941
    55  C   -0.075685
    56  C   -0.018266
    57  H    0.022987
    58  H    0.028967
    59  H    0.062921
    60  H    0.050535
    61  H    0.020645
    62  C   -0.049076
    63  C   -0.009293
    64  C   -0.134309
    65  C   -0.121739
    66  C   -0.094806
    67  C   -0.007783
    68  H    0.019252
    69  H    0.016058
    70  H    0.061658
    71  H    0.066343
    72  H    0.019130
 Sum of APT charges =   0.00000
 APT charges with hydrogens summed into heavy atoms:
               1
     1  C   -0.299301
     2  C   -0.082053
     3  C   -0.005843
     4  C    0.609743
     5  C    0.341411
     6  C    0.157302
     7  P    0.753736
    10  O   -0.996284
    11  O   -0.937794
    12  C   -0.005772
    13  C    0.609532
    14  C    0.341503
    15  C    0.157215
    16  C   -0.299149
    17  C   -0.082133
    19  O   -0.996124
    20  O   -0.937848
    21  P    0.753684
    23  C    0.916605
    24  C    0.916585
    29  C   -0.017165
    30  C    0.007477
    31  C   -0.047528
    32  C   -0.142995
    33  C   -0.025130
    34  C    0.002375
    40  C   -0.029817
    41  C    0.006751
    42  C   -0.072659
    43  C   -0.121733
    44  C   -0.028448
    45  C    0.011345
    51  C   -0.017159
    52  C    0.007480
    53  C   -0.047532
    54  C   -0.142941
    55  C   -0.025150
    56  C    0.002378
    62  C   -0.029824
    63  C    0.006764
    64  C   -0.072651
    65  C   -0.121739
    66  C   -0.028463
    67  C    0.011347
 Electronic spatial extent (au):  <R**2>=          22198.3237
 Charge=             -0.0000 electrons
 Dipole moment (field-independent basis, Debye):
    X=              0.0012    Y=              0.6204    Z=             -0.0011  Tot=              0.6204
 Quadrupole moment (field-independent basis, Debye-Ang):
   XX=           -236.3781   YY=           -238.6284   ZZ=           -257.5554
   XY=             -0.0024   XZ=             -4.2541   YZ=              0.0043
 Traceless Quadrupole moment (field-independent basis, Debye-Ang):
   XX=              7.8092   YY=              5.5589   ZZ=            -13.3681
   XY=             -0.0024   XZ=             -4.2541   YZ=              0.0043
 Octapole moment (field-independent basis, Debye-Ang**2):
  XXX=              0.0306  YYY=             20.2427  ZZZ=             -0.0189  XYY=              0.0100
  XXY=            -48.0484  XXZ=             -0.0035  XZZ=              0.0108  YZZ=            -28.7854
  YYZ=             -0.0194  XYZ=             41.1434
 Hexadecapole moment (field-independent basis, Debye-Ang**3):
 XXXX=         -14999.5518 YYYY=          -8142.5385 ZZZZ=          -4661.5372 XXXY=             -0.0826
 XXXZ=            163.6993 YYYX=             -0.0167 YYYZ=              0.0633 ZZZX=            -47.0481
 ZZZY=              0.0744 XXYY=          -3955.6256 XXZZ=          -3536.9164 YYZZ=          -2157.1797
 XXYZ=             -0.0071 YYXZ=           -282.4011 ZZXY=             -0.0131
 N-N= 5.726671821769D+03 E-N=-1.717836964227D+04  KE= 2.430740419247D+03
  Exact polarizability:     583.303       0.001     530.704     -36.702       0.004     391.416
 Approx polarizability:     592.375       0.001     592.229     -36.067       0.004     496.265
 D2PCM: PCM CHGder 2nd derivatives, FixD1E=F FixD2E=F DoIter=F DoCFld=F I1PDM=0
 Calling FoFJK, ICntrl=    100127 FMM=F ISym2X=0 I1Cent= 0 IOpClX= 0 NMat=1 NMatS=1 NMatT=0.
 Full mass-weighted force constant matrix:
 Low frequencies --- -123.4391 -122.1065  -63.6181  -62.1937  -52.9460  -42.2184
 Low frequencies ---  -31.3078  -28.0698  -17.5979
 ******    9 imaginary frequencies (negative Signs) ****** 
 Diagonal vibrational polarizability:
      340.9140930     140.0141416      46.7438275
 Harmonic frequencies (cm**-1), IR intensities (KM/Mole), Raman scattering
 activities (A**4/AMU), depolarization ratios for plane and unpolarized
 incident light, reduced masses (AMU), force constants (mDyne/A),
 and normal coordinates:
                      1                      2                      3
                      A                      A                      A
 Frequencies --   -122.9962              -122.1007               -63.5902
 Red. masses --      2.0744                 2.0485                 3.7410
 Frc consts  --      0.0185                 0.0180                 0.0089
 IR Inten    --      0.7445                24.8633                 0.3850
  Atom  AN      X      Y      Z        X      Y      Z        X      Y      Z
     1   6     0.00   0.00  -0.00     0.00  -0.01   0.00    -0.01   0.02   0.00
     2   6     0.00   0.01  -0.00    -0.00  -0.01   0.00     0.01   0.04  -0.01
     3   6     0.01   0.02  -0.01    -0.01  -0.02   0.00     0.03   0.05  -0.01
     4   6     0.01   0.02  -0.01    -0.01  -0.02   0.00     0.02   0.04  -0.00
     5   6     0.01   0.01  -0.01    -0.01  -0.02   0.00    -0.01   0.00   0.01
     6   6     0.00   0.00  -0.00    -0.00  -0.01   0.00    -0.02   0.00   0.01
     7  15    -0.00  -0.00   0.00     0.00  -0.00  -0.00    -0.02   0.01   0.00
     8   1     0.00   0.00   0.00     0.00  -0.00  -0.00     0.02   0.05  -0.02
     9   1     0.01   0.02  -0.01    -0.01  -0.02   0.01     0.05   0.08  -0.03
    10   8     0.02   0.05  -0.02    -0.02  -0.05   0.02     0.03   0.05  -0.01
    11   8     0.02   0.04  -0.01    -0.02  -0.05   0.00    -0.03  -0.02   0.02
    12   6     0.01  -0.02  -0.01     0.01  -0.01  -0.00     0.03  -0.05  -0.01
    13   6     0.01  -0.03  -0.01     0.01  -0.02  -0.00     0.02  -0.04  -0.00
    14   6     0.01  -0.02  -0.01     0.01  -0.02  -0.00    -0.01  -0.00   0.01
    15   6     0.00  -0.01  -0.00     0.00  -0.01  -0.00    -0.02  -0.00   0.01
    16   6     0.00  -0.00  -0.00    -0.00  -0.01   0.00    -0.01  -0.02   0.00
    17   6     0.00  -0.01  -0.00    -0.00  -0.01  -0.00     0.01  -0.04  -0.01
    18   1     0.02  -0.03  -0.01     0.01  -0.02  -0.00     0.05  -0.08  -0.03
    19   8     0.02  -0.06  -0.03     0.01  -0.04  -0.01     0.03  -0.05  -0.01
    20   8     0.03  -0.05  -0.01     0.02  -0.04   0.00    -0.03   0.02   0.02
    21  15    -0.00   0.00   0.00    -0.00  -0.00   0.00    -0.02  -0.01   0.00
    22   1    -0.00  -0.00   0.00    -0.00  -0.00   0.00     0.02  -0.05  -0.02
    23   6    -0.05  -0.16   0.02     0.06   0.20  -0.04     0.01   0.02   0.02
    24   6    -0.06   0.20   0.03    -0.05   0.16   0.03     0.01  -0.02   0.02
    25   1     0.11  -0.41  -0.05    -0.14   0.51   0.06     0.03   0.02   0.06
    26   1    -0.29  -0.25   0.15     0.37   0.31  -0.20    -0.00   0.02  -0.00
    27   1     0.14   0.51  -0.06     0.11   0.41  -0.04     0.03  -0.02   0.06
    28   1    -0.37   0.31   0.19    -0.29   0.25   0.16    -0.00  -0.02  -0.00
    29   6    -0.01  -0.00   0.01     0.00  -0.00  -0.00     0.03  -0.00  -0.01
    30   6    -0.00  -0.00   0.01     0.00  -0.00  -0.00     0.13   0.00   0.10
    31   6    -0.00  -0.00   0.00     0.00  -0.00  -0.00     0.11   0.01   0.10
    32   6    -0.00  -0.00   0.00     0.00  -0.00  -0.00    -0.01   0.01   0.00
    33   6    -0.00  -0.00   0.01     0.00  -0.00  -0.00    -0.12   0.00  -0.10
    34   6    -0.00  -0.00   0.01     0.00  -0.00  -0.00    -0.09  -0.00  -0.11
    35   1    -0.01  -0.00   0.01     0.00  -0.00  -0.00     0.05  -0.00  -0.01
    36   1    -0.00   0.00   0.01    -0.00  -0.00  -0.00     0.24   0.00   0.18
    37   1    -0.00  -0.00   0.00     0.00  -0.00  -0.00     0.19   0.01   0.19
    38   1    -0.00  -0.01   0.01     0.00  -0.00   0.00    -0.23   0.00  -0.19
    39   1    -0.01  -0.00   0.01     0.00  -0.00   0.00    -0.18  -0.00  -0.19
    40   6    -0.00  -0.01  -0.00     0.00   0.00   0.00    -0.01  -0.02  -0.01
    41   6    -0.00  -0.00   0.00     0.00   0.00   0.00    -0.01  -0.04  -0.05
    42   6    -0.00  -0.00   0.00     0.00   0.00   0.00    -0.01  -0.03  -0.05
    43   6    -0.00  -0.01   0.00     0.00  -0.00  -0.00    -0.01   0.00  -0.00
    44   6     0.00  -0.01  -0.01     0.00  -0.00  -0.00    -0.02   0.02   0.04
    45   6     0.00  -0.01  -0.01     0.00  -0.00  -0.00    -0.01   0.01   0.04
    46   1     0.00  -0.01  -0.00     0.00   0.00   0.00    -0.01  -0.02  -0.00
    47   1    -0.00  -0.00   0.01     0.00   0.00   0.00    -0.00  -0.06  -0.09
    48   1    -0.00  -0.00   0.01     0.00   0.00   0.00    -0.01  -0.05  -0.09
    49   1     0.00  -0.01  -0.01     0.00  -0.01  -0.01    -0.02   0.05   0.09
    50   1     0.00  -0.01  -0.01     0.00  -0.00  -0.01    -0.02   0.02   0.08
    51   6    -0.01   0.00   0.01     0.00  -0.00  -0.00     0.03   0.00  -0.01
    52   6    -0.00   0.00   0.01     0.00  -0.00   0.00     0.13  -0.00   0.10
    53   6    -0.00   0.00   0.00    -0.00  -0.00   0.00     0.11  -0.01   0.10
    54   6    -0.00   0.00   0.00    -0.00  -0.00  -0.00    -0.01  -0.01   0.00
    55   6    -0.00   0.00   0.01    -0.00  -0.00  -0.00    -0.12  -0.00  -0.10
    56   6    -0.01   0.00   0.01    -0.00  -0.00  -0.00    -0.09   0.00  -0.11
    57   1    -0.01   0.00   0.01     0.00  -0.00  -0.00     0.05   0.00  -0.01
    58   1    -0.00  -0.00   0.01     0.00  -0.00   0.00     0.24  -0.00   0.18
    59   1    -0.00  -0.00   0.00    -0.00  -0.00   0.00     0.19  -0.01   0.19
    60   1    -0.00   0.00   0.01    -0.00  -0.00  -0.00    -0.23  -0.00  -0.19
    61   1    -0.01   0.00   0.01    -0.00  -0.00  -0.00    -0.18   0.00  -0.19
    62   6    -0.00   0.01  -0.00    -0.00  -0.00   0.00    -0.01   0.02  -0.00
    63   6    -0.00   0.00   0.00    -0.00   0.00  -0.00    -0.01   0.04  -0.05
    64   6    -0.00   0.00   0.00    -0.00  -0.00  -0.00    -0.01   0.03  -0.05
    65   6    -0.00   0.01   0.00    -0.00  -0.00   0.00    -0.01  -0.00  -0.00
    66   6     0.00   0.01  -0.01    -0.00  -0.01   0.01    -0.02  -0.02   0.04
    67   6     0.00   0.01  -0.01    -0.00  -0.00   0.00    -0.01  -0.01   0.04
    68   1    -0.00   0.01  -0.00    -0.00   0.00  -0.00    -0.01   0.03  -0.00
    69   1    -0.00   0.00   0.01    -0.00   0.00  -0.01    -0.00   0.06  -0.09
    70   1    -0.00   0.00   0.01    -0.00   0.00  -0.01    -0.00   0.05  -0.09
    71   1     0.00   0.01  -0.01    -0.00  -0.01   0.01    -0.02  -0.05   0.09
    72   1     0.00   0.01  -0.01    -0.00  -0.00   0.01    -0.02  -0.03   0.08
                      4                      5                      6
                      A                      A                      A
 Frequencies --    -60.3121               -47.7682               -41.7617
 Red. masses --      6.8068                 5.9467                 4.9591
 Frc consts  --      0.0146                 0.0080                 0.0051
 IR Inten    --      1.1491                 0.1899                 0.0021
  Atom  AN      X      Y      Z        X      Y      Z        X      Y      Z
     1   6    -0.05   0.01   0.01     0.01   0.05   0.01     0.01   0.01  -0.00
     2   6    -0.10  -0.10   0.04     0.06   0.10  -0.02     0.01   0.02  -0.01
     3   6    -0.12  -0.17   0.07     0.10   0.15  -0.03     0.01   0.02  -0.01
     4   6    -0.08  -0.09   0.06     0.07   0.10   0.00     0.01   0.02  -0.00
     5   6     0.01   0.08   0.01    -0.02  -0.00   0.05    -0.00   0.00  -0.00
     6   6     0.00   0.09   0.00    -0.03   0.00   0.04     0.00   0.00  -0.00
     7  15    -0.05   0.02  -0.00    -0.00   0.05  -0.00     0.00   0.02  -0.01
     8   1    -0.13  -0.16   0.04     0.08   0.14  -0.04     0.02   0.03  -0.01
     9   1    -0.19  -0.30   0.11     0.16   0.22  -0.06     0.02   0.03  -0.01
    10   8    -0.11  -0.17   0.10     0.11   0.14  -0.01     0.01   0.02  -0.01
    11   8     0.08   0.18   0.00    -0.07  -0.07   0.09    -0.01  -0.01   0.00
    12   6     0.12  -0.17  -0.07     0.10  -0.15  -0.03    -0.01   0.02   0.01
    13   6     0.08  -0.10  -0.06     0.07  -0.10   0.00    -0.01   0.02   0.00
    14   6    -0.01   0.08  -0.01    -0.02   0.00   0.05     0.00   0.00   0.00
    15   6    -0.00   0.09   0.00    -0.03  -0.01   0.04    -0.00   0.00   0.00
    16   6     0.05   0.01  -0.01     0.01  -0.05   0.01    -0.01   0.01   0.00
    17   6     0.10  -0.10  -0.04     0.06  -0.10  -0.02    -0.01   0.02   0.01
    18   1     0.19  -0.30  -0.11     0.15  -0.22  -0.06    -0.02   0.03   0.01
    19   8     0.11  -0.17  -0.10     0.11  -0.14  -0.00    -0.00   0.02   0.01
    20   8    -0.08   0.18  -0.00    -0.07   0.07   0.09     0.01  -0.01  -0.00
    21  15     0.05   0.02   0.00    -0.00  -0.05  -0.00    -0.00   0.02   0.01
    22   1     0.13  -0.16  -0.04     0.08  -0.14  -0.04    -0.02   0.03   0.01
    23   6    -0.03  -0.01   0.03     0.04   0.04   0.08     0.00   0.01  -0.00
    24   6     0.03  -0.01  -0.03     0.04  -0.04   0.08    -0.00   0.01   0.00
    25   1    -0.11  -0.02  -0.14     0.10   0.06   0.21     0.00   0.02   0.01
    26   1     0.02  -0.01   0.15     0.02   0.05   0.00     0.01   0.02  -0.02
    27   1     0.11  -0.02   0.14     0.10  -0.06   0.21    -0.00   0.02  -0.01
    28   1    -0.02  -0.01  -0.15     0.02  -0.05   0.01    -0.01   0.02   0.02
    29   6     0.01   0.00  -0.04    -0.09   0.04  -0.06    -0.18  -0.00  -0.14
    30   6     0.00  -0.01  -0.02    -0.12   0.04  -0.10    -0.11   0.01  -0.08
    31   6    -0.01  -0.00  -0.01    -0.09   0.04  -0.08    -0.03   0.02  -0.03
    32   6    -0.03   0.01  -0.01    -0.02   0.05  -0.02    -0.04   0.01  -0.03
    33   6    -0.03   0.03  -0.03     0.02   0.05   0.01    -0.11  -0.00  -0.09
    34   6    -0.01   0.02  -0.04    -0.02   0.05  -0.01    -0.17  -0.01  -0.14
    35   1     0.02  -0.00  -0.04    -0.12   0.04  -0.08    -0.24  -0.01  -0.18
    36   1     0.02  -0.02  -0.01    -0.19   0.04  -0.15    -0.11   0.02  -0.08
    37   1    -0.02  -0.02   0.01    -0.12   0.04  -0.11     0.02   0.03   0.02
    38   1    -0.05   0.04  -0.04     0.07   0.05   0.06    -0.12  -0.01  -0.10
    39   1    -0.01   0.03  -0.06     0.02   0.05   0.03    -0.23  -0.02  -0.18
    40   6    -0.03   0.01  -0.05     0.01  -0.00   0.01     0.01  -0.05   0.05
    41   6    -0.03   0.00  -0.06     0.00  -0.01  -0.01     0.01  -0.07  -0.03
    42   6    -0.03   0.01  -0.03    -0.00   0.01  -0.02     0.00  -0.06  -0.05
    43   6    -0.04   0.02  -0.01     0.00   0.03   0.00     0.01  -0.01   0.01
    44   6    -0.05   0.03   0.00     0.01   0.04   0.03     0.01   0.02   0.09
    45   6    -0.04   0.02  -0.02     0.02   0.02   0.03     0.02  -0.00   0.10
    46   1    -0.03   0.00  -0.07     0.02  -0.02   0.01     0.02  -0.06   0.06
    47   1    -0.02  -0.01  -0.08    -0.00  -0.03  -0.03     0.00  -0.11  -0.07
    48   1    -0.03   0.01  -0.04    -0.01   0.01  -0.03    -0.00  -0.08  -0.11
    49   1    -0.05   0.04   0.03     0.02   0.06   0.05     0.01   0.06   0.14
    50   1    -0.05   0.02  -0.01     0.03   0.02   0.05     0.02   0.02   0.16
    51   6    -0.01   0.00   0.04    -0.09  -0.04  -0.06     0.18  -0.00   0.14
    52   6    -0.01  -0.01   0.02    -0.13  -0.04  -0.10     0.11   0.01   0.08
    53   6     0.01  -0.00   0.01    -0.09  -0.04  -0.08     0.03   0.02   0.03
    54   6     0.03   0.01   0.01    -0.02  -0.05  -0.02     0.04   0.01   0.03
    55   6     0.03   0.03   0.03     0.02  -0.05   0.01     0.11  -0.00   0.09
    56   6     0.01   0.02   0.04    -0.02  -0.05  -0.01     0.17  -0.01   0.13
    57   1    -0.02  -0.00   0.04    -0.12  -0.04  -0.08     0.24  -0.01   0.18
    58   1    -0.02  -0.02   0.01    -0.19  -0.04  -0.15     0.11   0.02   0.08
    59   1     0.01  -0.02  -0.01    -0.12  -0.04  -0.11    -0.02   0.03  -0.02
    60   1     0.05   0.04   0.04     0.07  -0.05   0.06     0.12  -0.01   0.10
    61   1     0.01   0.03   0.06     0.01  -0.05   0.02     0.23  -0.02   0.18
    62   6     0.03   0.01   0.05     0.01   0.00   0.01    -0.01  -0.05  -0.05
    63   6     0.03   0.00   0.06     0.00   0.01  -0.02    -0.01  -0.07   0.03
    64   6     0.03   0.01   0.04    -0.00  -0.01  -0.02    -0.00  -0.06   0.05
    65   6     0.04   0.02   0.01     0.00  -0.03   0.00    -0.01  -0.01  -0.01
    66   6     0.05   0.03  -0.01     0.01  -0.04   0.03    -0.01   0.02  -0.09
    67   6     0.04   0.02   0.02     0.02  -0.02   0.03    -0.02  -0.00  -0.10
    68   1     0.03   0.00   0.07     0.02   0.02   0.01    -0.02  -0.06  -0.06
    69   1     0.02  -0.01   0.08    -0.00   0.03  -0.03    -0.00  -0.11   0.07
    70   1     0.03   0.01   0.04    -0.01  -0.01  -0.03     0.00  -0.08   0.11
    71   1     0.05   0.04  -0.03     0.02  -0.06   0.05    -0.01   0.06  -0.14
    72   1     0.05   0.03   0.01     0.03  -0.02   0.05    -0.02   0.02  -0.16
                      7                      8                      9
                      A                      A                      A
 Frequencies --    -30.6291               -24.4367                -6.8750
 Red. masses --      3.8640                 4.1855                 5.6601
 Frc consts  --      0.0021                 0.0015                 0.0002
 IR Inten    --      0.0025                 0.8276                 0.4523
  Atom  AN      X      Y      Z        X      Y      Z        X      Y      Z
     1   6    -0.00   0.02  -0.00     0.00   0.03   0.01     0.03   0.02  -0.03
     2   6    -0.01   0.01   0.00    -0.00   0.04   0.01    -0.00   0.02  -0.02
     3   6    -0.01  -0.00   0.01    -0.02   0.03   0.01    -0.04   0.01  -0.02
     4   6    -0.00   0.00   0.01    -0.03   0.02   0.00    -0.04  -0.00  -0.05
     5   6     0.00   0.02   0.00    -0.03   0.00   0.00     0.00   0.01  -0.07
     6   6     0.00   0.02  -0.00    -0.01   0.01   0.00     0.03   0.01  -0.06
     7  15    -0.00   0.02  -0.00     0.01   0.04   0.00     0.05   0.02  -0.01
     8   1    -0.01   0.00   0.00     0.01   0.06   0.01    -0.00   0.03   0.00
     9   1    -0.01  -0.01   0.01    -0.02   0.04   0.01    -0.07  -0.00  -0.01
    10   8    -0.01  -0.00   0.01    -0.05   0.00  -0.00    -0.08  -0.03  -0.06
    11   8     0.00   0.02   0.01    -0.04  -0.03  -0.01    -0.01   0.00  -0.10
    12   6     0.01  -0.00  -0.01    -0.02  -0.03   0.01    -0.04  -0.01  -0.02
    13   6     0.01   0.00  -0.01    -0.03  -0.01   0.00    -0.04   0.00  -0.05
    14   6     0.00   0.02  -0.00    -0.03   0.00  -0.00     0.00  -0.01  -0.07
    15   6    -0.00   0.02  -0.00    -0.01  -0.01   0.00     0.03  -0.01  -0.06
    16   6     0.00   0.02  -0.00     0.00  -0.03   0.01     0.03  -0.02  -0.03
    17   6     0.01   0.01  -0.00    -0.00  -0.04   0.01    -0.00  -0.02  -0.02
    18   1     0.01  -0.01  -0.01    -0.02  -0.04   0.01    -0.07   0.00  -0.01
    19   8     0.01  -0.00  -0.01    -0.05  -0.00  -0.00    -0.08   0.03  -0.06
    20   8    -0.00   0.02  -0.01    -0.04   0.03  -0.01    -0.01  -0.00  -0.10
    21  15     0.00   0.02   0.00     0.01  -0.04   0.00     0.05  -0.02  -0.01
    22   1     0.01   0.00  -0.00     0.01  -0.06   0.01    -0.00  -0.03   0.00
    23   6    -0.00  -0.00   0.01    -0.04   0.00  -0.01    -0.05  -0.01  -0.10
    24   6     0.01   0.00  -0.01    -0.04  -0.00  -0.01    -0.05   0.01  -0.10
    25   1    -0.00  -0.01  -0.00    -0.05   0.02  -0.00    -0.07  -0.01  -0.14
    26   1    -0.01  -0.00   0.02    -0.03   0.01  -0.03    -0.05  -0.01  -0.10
    27   1     0.01  -0.01   0.00    -0.05  -0.02  -0.00    -0.07   0.01  -0.13
    28   1     0.01  -0.00  -0.02    -0.03  -0.01  -0.03    -0.05   0.01  -0.10
    29   6    -0.08   0.01  -0.04     0.01   0.02  -0.06    -0.07   0.02  -0.02
    30   6    -0.09   0.02  -0.05     0.04   0.01  -0.02    -0.04   0.04  -0.02
    31   6    -0.05   0.02  -0.03     0.03   0.02   0.00    -0.00   0.04  -0.02
    32   6    -0.01   0.02  -0.00     0.00   0.03  -0.02     0.01   0.02  -0.02
    33   6     0.00   0.01   0.02    -0.02   0.04  -0.05    -0.02   0.00  -0.02
    34   6    -0.03   0.01  -0.00    -0.01   0.04  -0.07    -0.06   0.00  -0.02
    35   1    -0.11   0.01  -0.06     0.02   0.01  -0.07    -0.11   0.03  -0.03
    36   1    -0.13   0.02  -0.08     0.06  -0.00  -0.00    -0.06   0.06  -0.03
    37   1    -0.06   0.02  -0.05     0.05   0.01   0.03     0.02   0.06  -0.02
    38   1     0.04   0.01   0.05    -0.04   0.06  -0.06    -0.01  -0.02  -0.02
    39   1    -0.02   0.01   0.02    -0.03   0.04  -0.10    -0.08  -0.01  -0.02
    40   6     0.02  -0.06  -0.02     0.04  -0.07   0.05     0.04  -0.00   0.18
    41   6    -0.03   0.01   0.11    -0.03  -0.01   0.16     0.03  -0.04   0.07
    42   6    -0.04   0.03   0.11    -0.04   0.03   0.15     0.04  -0.04   0.00
    43   6     0.00  -0.01  -0.01     0.02   0.00   0.02     0.05   0.00   0.05
    44   6     0.06  -0.08  -0.14     0.09  -0.07  -0.10     0.05   0.05   0.16
    45   6     0.07  -0.10  -0.14     0.10  -0.10  -0.08     0.05   0.04   0.22
    46   1     0.03  -0.08  -0.03     0.04  -0.10   0.06     0.03  -0.00   0.23
    47   1    -0.07   0.04   0.20    -0.08   0.02   0.26     0.03  -0.08   0.03
    48   1    -0.09   0.09   0.22    -0.10   0.09   0.24     0.04  -0.07  -0.09
    49   1     0.10  -0.12  -0.25     0.14  -0.10  -0.22     0.06   0.08   0.19
    50   1     0.11  -0.16  -0.25     0.15  -0.16  -0.18     0.05   0.08   0.31
    51   6     0.08   0.01   0.04     0.02  -0.02  -0.06    -0.07  -0.02  -0.02
    52   6     0.09   0.02   0.05     0.04  -0.01  -0.02    -0.05  -0.04  -0.02
    53   6     0.05   0.02   0.03     0.03  -0.02   0.00    -0.00  -0.04  -0.02
    54   6     0.01   0.02   0.00     0.00  -0.03  -0.02     0.01  -0.02  -0.02
    55   6    -0.00   0.02  -0.02    -0.02  -0.04  -0.05    -0.02  -0.00  -0.02
    56   6     0.03   0.01   0.00    -0.01  -0.03  -0.07    -0.06  -0.00  -0.02
    57   1     0.11   0.01   0.06     0.02  -0.01  -0.07    -0.11  -0.03  -0.03
    58   1     0.12   0.02   0.08     0.07   0.00   0.00    -0.06  -0.06  -0.03
    59   1     0.06   0.02   0.05     0.05  -0.01   0.04     0.02  -0.06  -0.02
    60   1    -0.04   0.02  -0.05    -0.04  -0.06  -0.06    -0.01   0.02  -0.01
    61   1     0.02   0.01  -0.01    -0.03  -0.04  -0.10    -0.08   0.01  -0.02
    62   6    -0.02  -0.06   0.02     0.03   0.07   0.05     0.04   0.00   0.18
    63   6     0.03   0.01  -0.11    -0.03   0.01   0.16     0.03   0.04   0.07
    64   6     0.04   0.04  -0.12    -0.04  -0.03   0.14     0.04   0.04   0.00
    65   6    -0.00  -0.01   0.00     0.02  -0.00   0.02     0.05  -0.00   0.05
    66   6    -0.06  -0.08   0.14     0.08   0.06  -0.09     0.05  -0.04   0.15
    67   6    -0.07  -0.11   0.15     0.09   0.10  -0.08     0.05  -0.04   0.22
    68   1    -0.03  -0.09   0.03     0.04   0.10   0.06     0.03   0.00   0.23
    69   1     0.07   0.04  -0.21    -0.08  -0.02   0.26     0.02   0.08   0.03
    70   1     0.09   0.09  -0.23    -0.10  -0.09   0.23     0.04   0.07  -0.08
    71   1    -0.10  -0.12   0.26     0.14   0.09  -0.20     0.06  -0.08   0.19
    72   1    -0.12  -0.17   0.26     0.15   0.15  -0.17     0.05  -0.07   0.31
                     10                     11                     12
                      A                      A                      A
 Frequencies --     20.0061                23.2251                31.4002
 Red. masses --      5.2394                 5.6919                 6.3455
 Frc consts  --      0.0012                 0.0018                 0.0037
 IR Inten    --      0.0320                 0.8477                 0.1044
  Atom  AN      X      Y      Z        X      Y      Z        X      Y      Z
     1   6     0.01   0.01  -0.01     0.02  -0.02  -0.00    -0.04  -0.05  -0.01
     2   6     0.01   0.01  -0.01     0.02  -0.01  -0.00    -0.03  -0.05  -0.01
     3   6     0.01  -0.01  -0.00    -0.00  -0.03   0.00     0.02   0.01  -0.03
     4   6     0.00  -0.02   0.00    -0.02  -0.06   0.00     0.04   0.05  -0.03
     5   6    -0.00  -0.01   0.01    -0.02  -0.08   0.01     0.01   0.02  -0.02
     6   6     0.00   0.00  -0.00    -0.00  -0.05   0.00    -0.02  -0.01  -0.01
     7  15     0.02   0.04  -0.03     0.04   0.01  -0.01    -0.04  -0.04  -0.01
     8   1     0.02   0.02  -0.02     0.03   0.02  -0.01    -0.05  -0.08  -0.01
     9   1     0.01  -0.02  -0.01    -0.00  -0.02   0.00     0.04   0.02  -0.04
    10   8    -0.01  -0.04   0.02    -0.05  -0.09   0.01     0.10   0.12  -0.05
    11   8    -0.01  -0.03   0.02    -0.05  -0.12   0.01     0.05   0.07  -0.02
    12   6    -0.01  -0.01   0.00     0.00  -0.03  -0.00     0.02  -0.01  -0.03
    13   6    -0.00  -0.02  -0.00     0.02  -0.06  -0.00     0.04  -0.05  -0.03
    14   6     0.00  -0.01  -0.01     0.02  -0.08  -0.01     0.01  -0.03  -0.02
    15   6    -0.00   0.00   0.00     0.00  -0.05  -0.00    -0.02   0.01  -0.01
    16   6    -0.01   0.01   0.01    -0.02  -0.02   0.00    -0.04   0.05  -0.01
    17   6    -0.01   0.01   0.01    -0.02  -0.01   0.00    -0.03   0.05  -0.01
    18   1    -0.01  -0.02   0.01     0.01  -0.02  -0.00     0.04  -0.02  -0.04
    19   8     0.00  -0.04  -0.02     0.05  -0.09  -0.01     0.10  -0.12  -0.05
    20   8     0.01  -0.03  -0.02     0.05  -0.12  -0.01     0.05  -0.08  -0.02
    21  15    -0.02   0.04   0.03    -0.04   0.01   0.01    -0.04   0.04  -0.01
    22   1    -0.02   0.02   0.02    -0.03   0.02   0.01    -0.05   0.08  -0.01
    23   6    -0.00  -0.02   0.02    -0.04  -0.08   0.01     0.07   0.07  -0.01
    24   6     0.00  -0.02  -0.02     0.04  -0.08  -0.00     0.07  -0.07  -0.01
    25   1    -0.01  -0.01   0.02    -0.06  -0.06   0.02     0.11   0.03   0.01
    26   1     0.01  -0.02   0.02    -0.02  -0.07  -0.02     0.03   0.06  -0.01
    27   1     0.01  -0.01  -0.02     0.06  -0.06  -0.02     0.11  -0.03   0.01
    28   1    -0.01  -0.02  -0.02     0.02  -0.07   0.02     0.03  -0.06  -0.01
    29   6     0.15   0.00  -0.11    -0.05  -0.01  -0.11     0.10  -0.07  -0.06
    30   6     0.17  -0.03  -0.04    -0.09  -0.02  -0.14     0.05  -0.10  -0.05
    31   6     0.11  -0.01  -0.02    -0.03  -0.01  -0.10    -0.00  -0.09  -0.04
    32   6     0.03   0.03  -0.07     0.05   0.00  -0.02    -0.01  -0.05  -0.03
    33   6     0.01   0.05  -0.14     0.10   0.01   0.02     0.04  -0.02  -0.04
    34   6     0.07   0.04  -0.16     0.05   0.00  -0.03     0.09  -0.03  -0.05
    35   1     0.20  -0.00  -0.12    -0.10  -0.02  -0.15     0.14  -0.08  -0.06
    36   1     0.24  -0.06   0.01    -0.17  -0.03  -0.21     0.06  -0.14  -0.06
    37   1     0.13  -0.04   0.04    -0.07  -0.02  -0.13    -0.03  -0.12  -0.04
    38   1    -0.06   0.09  -0.18     0.18   0.02   0.08     0.03   0.01  -0.03
    39   1     0.05   0.07  -0.22     0.09   0.01   0.00     0.12  -0.00  -0.05
    40   6     0.03  -0.03   0.10     0.00   0.15  -0.00    -0.09   0.06   0.16
    41   6    -0.01  -0.02   0.10     0.04   0.14  -0.00    -0.08   0.05   0.14
    42   6    -0.01   0.01   0.06     0.06   0.09  -0.00    -0.06   0.01   0.07
    43   6     0.03   0.02   0.01     0.03   0.05  -0.01    -0.05  -0.02   0.01
    44   6     0.07  -0.00  -0.00    -0.01   0.06  -0.02    -0.06  -0.02   0.02
    45   6     0.07  -0.03   0.04    -0.03   0.11  -0.01    -0.08   0.02   0.09
    46   1     0.03  -0.05   0.14    -0.01   0.19   0.00    -0.11   0.09   0.23
    47   1    -0.05  -0.02   0.15     0.07   0.16   0.01    -0.09   0.08   0.20
    48   1    -0.05   0.02   0.06     0.09   0.08  -0.00    -0.05   0.00   0.06
    49   1     0.11   0.00  -0.05    -0.04   0.03  -0.02    -0.05  -0.04  -0.03
    50   1     0.11  -0.04   0.03    -0.06   0.12  -0.02    -0.08   0.03   0.10
    51   6    -0.15   0.00   0.11     0.05  -0.01   0.11     0.10   0.07  -0.06
    52   6    -0.17  -0.03   0.04     0.09  -0.02   0.14     0.05   0.10  -0.05
    53   6    -0.11  -0.01   0.02     0.03  -0.01   0.10    -0.00   0.09  -0.04
    54   6    -0.03   0.03   0.07    -0.05   0.00   0.02    -0.01   0.05  -0.03
    55   6    -0.01   0.05   0.14    -0.10   0.01  -0.02     0.04   0.02  -0.04
    56   6    -0.07   0.04   0.16    -0.05   0.00   0.03     0.09   0.03  -0.05
    57   1    -0.20  -0.00   0.12     0.10  -0.02   0.15     0.14   0.08  -0.06
    58   1    -0.24  -0.06  -0.01     0.17  -0.03   0.21     0.06   0.14  -0.06
    59   1    -0.13  -0.04  -0.04     0.07  -0.02   0.13    -0.03   0.12  -0.04
    60   1     0.06   0.09   0.18    -0.18   0.02  -0.08     0.03  -0.01  -0.03
    61   1    -0.05   0.07   0.21    -0.09   0.01  -0.00     0.12   0.00  -0.05
    62   6    -0.03  -0.03  -0.10    -0.00   0.15   0.00    -0.09  -0.06   0.16
    63   6     0.01  -0.01  -0.10    -0.04   0.14   0.00    -0.08  -0.05   0.15
    64   6     0.01   0.01  -0.06    -0.06   0.09   0.00    -0.06  -0.01   0.07
    65   6    -0.03   0.02  -0.01    -0.03   0.05   0.01    -0.05   0.02   0.01
    66   6    -0.07  -0.00   0.00     0.01   0.06   0.02    -0.06   0.02   0.02
    67   6    -0.07  -0.03  -0.04     0.03   0.11   0.01    -0.08  -0.02   0.09
    68   1    -0.03  -0.05  -0.14     0.01   0.19  -0.00    -0.11  -0.09   0.23
    69   1     0.05  -0.02  -0.15    -0.07   0.16  -0.01    -0.09  -0.08   0.20
    70   1     0.05   0.02  -0.06    -0.09   0.08   0.00    -0.05  -0.00   0.06
    71   1    -0.10   0.00   0.05     0.03   0.03   0.02    -0.05   0.05  -0.03
    72   1    -0.11  -0.04  -0.04     0.06   0.12   0.02    -0.08  -0.03   0.10
                     13                     14                     15
                      A                      A                      A
 Frequencies --     35.1257                43.9226                50.3636
 Red. masses --      6.7751                 5.9200                 5.9618
 Frc consts  --      0.0049                 0.0067                 0.0089
 IR Inten    --      0.4292                 0.0117                 1.4329
  Atom  AN      X      Y      Z        X      Y      Z        X      Y      Z
     1   6    -0.03  -0.06   0.01    -0.03  -0.01   0.06     0.00  -0.01   0.09
     2   6    -0.02  -0.07   0.00    -0.06   0.03   0.07    -0.04   0.00   0.11
     3   6     0.02  -0.02  -0.01    -0.08   0.07   0.04    -0.06   0.03   0.08
     4   6     0.06   0.05  -0.02    -0.08   0.07  -0.01    -0.04   0.06   0.03
     5   6     0.04   0.05  -0.01    -0.05   0.01  -0.02     0.01   0.06   0.00
     6   6     0.00   0.00  -0.00    -0.02  -0.02   0.01     0.02   0.02   0.04
     7  15    -0.04  -0.06  -0.00    -0.01  -0.01   0.07     0.02  -0.00   0.10
     8   1    -0.05  -0.11   0.01    -0.06   0.04   0.11    -0.05  -0.01   0.15
     9   1     0.03  -0.02  -0.02    -0.09   0.12   0.04    -0.09   0.03   0.10
    10   8     0.12   0.13  -0.04    -0.10   0.11  -0.07    -0.05   0.10  -0.02
    11   8     0.09   0.12  -0.02    -0.06   0.01  -0.09     0.04   0.11  -0.06
    12   6    -0.02  -0.02   0.01     0.08   0.07  -0.04    -0.06  -0.03   0.08
    13   6    -0.06   0.05   0.02     0.08   0.07   0.01    -0.03  -0.06   0.03
    14   6    -0.04   0.05   0.01     0.05   0.01   0.02     0.01  -0.06   0.00
    15   6    -0.00   0.00   0.00     0.02  -0.02  -0.01     0.02  -0.02   0.04
    16   6     0.03  -0.06  -0.01     0.03  -0.01  -0.06     0.00   0.01   0.09
    17   6     0.02  -0.07  -0.00     0.06   0.03  -0.08    -0.04  -0.00   0.11
    18   1    -0.03  -0.02   0.01     0.10   0.12  -0.04    -0.09  -0.03   0.10
    19   8    -0.12   0.12   0.04     0.10   0.12   0.07    -0.05  -0.10  -0.02
    20   8    -0.09   0.12   0.02     0.06   0.01   0.09     0.04  -0.11  -0.06
    21  15     0.04  -0.06   0.00     0.01  -0.01  -0.07     0.02   0.00   0.10
    22   1     0.05  -0.11  -0.01     0.06   0.04  -0.12    -0.05   0.01   0.14
    23   6     0.10   0.08  -0.01    -0.10   0.04  -0.10    -0.03   0.07  -0.07
    24   6    -0.09   0.08   0.01     0.10   0.04   0.10    -0.03  -0.07  -0.07
    25   1     0.14   0.02  -0.01    -0.07   0.02  -0.09    -0.03   0.03  -0.12
    26   1     0.04   0.06   0.02    -0.14   0.03  -0.14    -0.07   0.06  -0.05
    27   1    -0.14   0.02   0.01     0.07   0.02   0.09    -0.02  -0.03  -0.12
    28   1    -0.04   0.06  -0.02     0.14   0.04   0.14    -0.07  -0.06  -0.05
    29   6     0.00  -0.08  -0.08     0.03  -0.06  -0.10    -0.07  -0.06  -0.15
    30   6    -0.02  -0.11  -0.07     0.04  -0.10  -0.04    -0.03  -0.09  -0.08
    31   6    -0.02  -0.10  -0.04     0.03  -0.08   0.03     0.02  -0.06   0.02
    32   6    -0.01  -0.06  -0.02     0.02  -0.02   0.03     0.03  -0.01   0.05
    33   6     0.02  -0.04  -0.02     0.02   0.01  -0.03     0.02   0.01  -0.01
    34   6     0.03  -0.05  -0.06     0.02  -0.01  -0.09    -0.03  -0.01  -0.11
    35   1     0.00  -0.09  -0.12     0.04  -0.08  -0.16    -0.12  -0.08  -0.24
    36   1    -0.04  -0.13  -0.10     0.05  -0.14  -0.04    -0.06  -0.12  -0.11
    37   1    -0.04  -0.11  -0.03     0.04  -0.10   0.07     0.04  -0.08   0.07
    38   1     0.04  -0.01   0.00     0.00   0.06  -0.02     0.03   0.05   0.02
    39   1     0.05  -0.03  -0.06     0.02   0.02  -0.14    -0.06   0.01  -0.16
    40   6    -0.10   0.10   0.10     0.02  -0.03  -0.14     0.04   0.02  -0.11
    41   6    -0.07   0.09   0.11     0.03  -0.01  -0.09     0.06   0.02  -0.07
    42   6    -0.04   0.03   0.06     0.02   0.01   0.01     0.05   0.03   0.02
    43   6    -0.05  -0.02   0.00    -0.01   0.01   0.04     0.02   0.02   0.07
    44   6    -0.08  -0.02  -0.02    -0.02  -0.01  -0.00    -0.01   0.02   0.03
    45   6    -0.10   0.04   0.03    -0.01  -0.02  -0.10     0.00   0.02  -0.05
    46   1    -0.12   0.15   0.15     0.04  -0.04  -0.23     0.05   0.01  -0.19
    47   1    -0.06   0.14   0.16     0.06  -0.01  -0.12     0.10   0.02  -0.12
    48   1    -0.02   0.03   0.07     0.03   0.02   0.04     0.07   0.03   0.04
    49   1    -0.09  -0.06  -0.07    -0.04  -0.01   0.03    -0.04   0.02   0.07
    50   1    -0.13   0.05   0.02    -0.02  -0.04  -0.14    -0.02   0.01  -0.08
    51   6    -0.00  -0.08   0.08    -0.03  -0.06   0.10    -0.07   0.06  -0.15
    52   6     0.02  -0.11   0.07    -0.04  -0.10   0.04    -0.03   0.08  -0.08
    53   6     0.02  -0.09   0.04    -0.03  -0.08  -0.03     0.02   0.06   0.02
    54   6     0.01  -0.06   0.01    -0.02  -0.02  -0.03     0.03   0.01   0.05
    55   6    -0.02  -0.04   0.02    -0.02   0.01   0.03     0.02  -0.01  -0.01
    56   6    -0.03  -0.05   0.06    -0.02  -0.01   0.09    -0.03   0.01  -0.11
    57   1    -0.00  -0.09   0.12    -0.03  -0.08   0.16    -0.12   0.08  -0.24
    58   1     0.04  -0.13   0.10    -0.05  -0.15   0.05    -0.06   0.12  -0.11
    59   1     0.04  -0.11   0.03    -0.04  -0.10  -0.07     0.04   0.08   0.07
    60   1    -0.04  -0.01  -0.00    -0.00   0.06   0.02     0.03  -0.05   0.02
    61   1    -0.05  -0.03   0.06    -0.02   0.02   0.14    -0.06  -0.01  -0.16
    62   6     0.10   0.10  -0.10    -0.02  -0.03   0.14     0.04  -0.02  -0.11
    63   6     0.07   0.09  -0.11    -0.03  -0.01   0.09     0.06  -0.02  -0.07
    64   6     0.04   0.03  -0.06    -0.02   0.01  -0.01     0.05  -0.03   0.02
    65   6     0.05  -0.02  -0.00     0.01   0.01  -0.04     0.02  -0.02   0.07
    66   6     0.08  -0.02   0.02     0.02  -0.01   0.00    -0.01  -0.02   0.03
    67   6     0.10   0.04  -0.03     0.01  -0.02   0.10     0.00  -0.02  -0.05
    68   1     0.12   0.15  -0.15    -0.04  -0.04   0.23     0.05  -0.01  -0.18
    69   1     0.06   0.14  -0.16    -0.06  -0.01   0.13     0.10  -0.02  -0.12
    70   1     0.02   0.03  -0.07    -0.03   0.02  -0.04     0.07  -0.03   0.04
    71   1     0.09  -0.06   0.07     0.04  -0.01  -0.03    -0.04  -0.02   0.07
    72   1     0.13   0.05  -0.02     0.02  -0.04   0.14    -0.02  -0.02  -0.08
                     16                     17                     18
                      A                      A                      A
 Frequencies --     54.4293                59.6798                94.6348
 Red. masses --      4.8240                 4.5343                 7.9936
 Frc consts  --      0.0084                 0.0095                 0.0422
 IR Inten    --      0.0069                 0.1928                 0.3427
  Atom  AN      X      Y      Z        X      Y      Z        X      Y      Z
     1   6    -0.04   0.00   0.01     0.00   0.00  -0.00    -0.03   0.02   0.02
     2   6    -0.04   0.02   0.01    -0.01  -0.02   0.00    -0.04  -0.05   0.03
     3   6    -0.04   0.03   0.00     0.00  -0.02   0.00    -0.05  -0.09   0.05
     4   6    -0.04   0.02  -0.00     0.02   0.01   0.00     0.00  -0.01   0.04
     5   6    -0.05  -0.00   0.00     0.03   0.04  -0.00     0.03   0.09   0.02
     6   6    -0.04   0.00   0.00     0.01   0.02  -0.00    -0.02   0.03   0.03
     7  15    -0.02   0.01   0.01     0.03   0.02   0.00    -0.03   0.10  -0.04
     8   1    -0.04   0.02   0.02    -0.02  -0.04   0.00    -0.06  -0.09   0.02
     9   1    -0.04   0.05  -0.00    -0.00  -0.04   0.01    -0.08  -0.16   0.07
    10   8    -0.04   0.04  -0.01     0.04   0.03  -0.00     0.04   0.02   0.04
    11   8    -0.06  -0.02  -0.00     0.06   0.08  -0.01     0.15   0.26  -0.00
    12   6    -0.04  -0.03   0.00    -0.00  -0.02  -0.00    -0.05   0.09   0.05
    13   6    -0.04  -0.03  -0.00    -0.02   0.01  -0.00     0.00   0.01   0.04
    14   6    -0.05   0.00   0.00    -0.03   0.04   0.00     0.03  -0.09   0.02
    15   6    -0.04  -0.00   0.00    -0.01   0.02   0.00    -0.02  -0.03   0.03
    16   6    -0.04  -0.00   0.01    -0.00   0.00   0.00    -0.03  -0.02   0.02
    17   6    -0.04  -0.02   0.01     0.01  -0.02  -0.00    -0.04   0.05   0.03
    18   1    -0.04  -0.05  -0.00     0.00  -0.04  -0.01    -0.08   0.16   0.07
    19   8    -0.04  -0.04  -0.01    -0.04   0.03   0.00     0.04  -0.02   0.04
    20   8    -0.06   0.02  -0.00    -0.06   0.08   0.01     0.15  -0.26  -0.00
    21  15    -0.02  -0.01   0.01    -0.03   0.02   0.00    -0.03  -0.10  -0.04
    22   1    -0.04  -0.02   0.02     0.02  -0.04  -0.00    -0.06   0.09   0.02
    23   6    -0.05   0.01  -0.01     0.04   0.04  -0.00     0.07   0.08   0.02
    24   6    -0.05  -0.01  -0.01    -0.04   0.04   0.00     0.07  -0.08   0.02
    25   1    -0.04   0.00   0.01     0.05   0.02  -0.03     0.07  -0.01  -0.10
    26   1    -0.07   0.00  -0.03     0.03   0.03   0.03     0.03   0.05   0.15
    27   1    -0.04  -0.00   0.01    -0.05   0.02   0.03     0.07   0.01  -0.10
    28   1    -0.07  -0.00  -0.02    -0.03   0.03  -0.03     0.03  -0.05   0.15
    29   6     0.15  -0.01   0.02     0.04   0.00  -0.03     0.03   0.12   0.03
    30   6     0.06  -0.05  -0.02    -0.06  -0.01  -0.11     0.01   0.13   0.00
    31   6    -0.02  -0.04  -0.04    -0.06  -0.01  -0.10    -0.03   0.11  -0.05
    32   6    -0.01  -0.00  -0.01     0.03   0.01  -0.02    -0.05   0.10  -0.06
    33   6     0.07   0.04   0.01     0.13   0.03   0.05    -0.04   0.10  -0.05
    34   6     0.16   0.03   0.03     0.14   0.02   0.05     0.00   0.11   0.00
    35   1     0.23  -0.01   0.04     0.04   0.00  -0.04     0.08   0.13   0.08
    36   1     0.05  -0.08  -0.04    -0.14  -0.03  -0.18     0.03   0.14   0.02
    37   1    -0.08  -0.07  -0.06    -0.13  -0.03  -0.16    -0.04   0.12  -0.07
    38   1     0.09   0.07   0.03     0.22   0.04   0.13    -0.06   0.08  -0.07
    39   1     0.23   0.06   0.06     0.22   0.04   0.11     0.01   0.10   0.02
    40   6     0.03  -0.14  -0.04     0.07  -0.09  -0.01     0.01  -0.04  -0.00
    41   6     0.00  -0.15  -0.08     0.05  -0.10  -0.05    -0.04  -0.03  -0.02
    42   6    -0.02  -0.08  -0.04     0.03  -0.05  -0.03    -0.06   0.02  -0.03
    43   6    -0.01  -0.02   0.03     0.04  -0.00   0.03    -0.03   0.07  -0.01
    44   6     0.01  -0.01   0.08     0.06   0.01   0.08     0.02   0.06   0.01
    45   6     0.04  -0.07   0.05     0.08  -0.04   0.06     0.04   0.00   0.02
[...]
 1,-0.00000279,-0.00000036,0.00004338,-0.00004288,0.00006416,0.00002728
 ,-0.00003023,0.00007592,0.00111343,0.00154757,-0.00025535,-0.00003251,
 0.00020228,-0.00000683,0.00002682,0.00003597,0.00008483,-0.00001528,0.
 00001826,-0.00003172,-0.00001396,0.00001827,-0.00000182,-0.00000660,-0
 .00000233,0.00000203,0.00000457,0.00000138,0.00000324,0.00000170,-0.00
 000352,0.00000682,-0.00000822,-0.00001563,0.00001471,0.00000925,0.0000
 0999,0.00003158,0.00000803,0.00001261,0.00002217,-0.00001402,0.0000189
 8,0.00000225,-0.00000260,-0.00000150,0.00000628,-0.00000702,0.00000091
 ,0.00000782,0.00000024,-0.00000212,-0.00000552,0.00000683,-0.00001353,
 -0.00001141,0.00001355,0.00000044,-0.00002056,0.00000225,-0.00000213,-
 0.00000188,0.00000290,-0.00000156,-0.00000237,0.00000056,0.00000038,0.
 00000299,0.00000168,-0.00000113,-0.00000052,0.00000185,0.00000075,0.00
 001008,-0.00002184,0.00000058,0.00000015,0.00000129,0.00000529,0.00000
 963,0.00000052,-0.00000055,-0.00000051,0.00000080,0.00000016,0.0000019
 7,0.00000074,0.00000150,0.00000138,-0.00000017,-0.00000301,-0.00000431
 ,0.00000002,0.,-0.00000387,0.00000090,-0.00000104,0.00000223,0.0002131
 7,-0.00007222,-0.00000204,0.00002960,0.00008737,-0.00018406,-0.0005674
 6,-0.00001380,0.00014511,-0.00014011,-0.00021145,-0.00044355,-0.000086
 18,-0.00067978,0.00010622,-0.00010913,-0.00016750,0.00006110,0.0000296
 8,0.00003967,0.00000662,0.00003078,0.00000940,-0.00000318,0.00003740,0
 .00000670,0.00001584,0.00009003,-0.00010045,0.00001295,-0.00000353,0.0
 0006666,-0.00002002,-0.00148833,-0.00323257,-0.00245383,-0.01609369,-0
 .01444023,0.01091623,0.06936139,0.05817066,-0.08607118,0.02128283,0.01
 911680,-0.00555285,0.00128882,-0.00098454,-0.00578682,-0.00034444,-0.0
 0051268,-0.00116960,-0.00082894,-0.00081220,0.00041200,-0.00005296,0.0
 0085960,0.00072891,-0.07474288,-0.06000975,0.08971624,-0.00002847,-0.0
 0001033,0.00002837,0.00005802,0.00002619,0.00000808,-0.00007090,-0.000
 01890,-0.00000478,0.00020088,0.00014955,0.00002399,-0.00038723,-0.0003
 5559,-0.00015698,0.00000591,-0.00001251,-0.00006814,-0.00003178,-0.000
 01797,-0.00000011,-0.00000389,0.00000558,0.00000063,0.00000720,0.00000
 996,0.00001176,-0.00035192,0.00001091,-0.00006508,-0.00032312,0.000287
 26,0.00037649,0.00001193,0.00000536,0.00004044,-0.00011537,0.00010741,
 -0.00006836,0.00001039,-0.00002749,-0.00018439,-0.00009839,0.00015035,
 -0.00018352,0.00010598,0.00003924,-0.00034549,-0.00003049,0.00013579,0
 .00012823,0.00000043,-0.00000875,0.00000082,0.00011024,-0.00011027,0.0
 0012814,0.00004287,-0.00002495,0.00009973,-0.00198357,0.00036372,0.001
 10429,0.00005081,-0.00001619,0.00000525,0.00109930,-0.00016515,0.00037
 781,-0.00005634,0.00001440,-0.00008868,-0.00027158,0.00032132,0.000070
 25,-0.00008656,-0.00002350,0.00002160,0.00001515,0.00001024,0.00000903
 ,0.00000390,-0.00000413,0.00001025,-0.00000141,0.00000312,-0.00000153,
 0.00000915,-0.00000159,0.00000456,-0.00000739,0.00000521,-0.00000211,0
 .00000836,0.00000143,0.00001440,-0.00000616,0.00000982,-0.00000601,0.0
 0000167,0.00000077,0.00000035,0.00000127,0.00000263,-0.00000148,-0.000
 00107,0.00000151,-0.00000166,0.00000460,-0.00001294,-0.00000636,-0.000
 00051,-0.00000214,0.00000039,0.00000151,0.00000215,-0.00000088,0.00000
 086,0.00000168,0.00000313,0.00000074,-0.00000042,-0.00000018,0.0000051
 8,-0.00000553,0.00000922,0.00000043,0.00001483,-0.00000695,0.00000222,
 -0.00000093,0.00000302,0.00000016,0.00000333,-0.00000307,0.00000069,0.
 00000055,0.00000221,0.00000052,0.00000216,0.00000219,-0.00000129,-0.00
 000050,-0.00000077,-0.00000314,0.00000041,-0.00000396,-0.00000003,-0.0
 0000114,0.00000096,0.00001693,0.00001418,-0.00001253,0.00000799,0.0000
 1416,0.00002751,0.00005393,0.00007965,-0.00006880,0.00004632,-0.000180
 60,-0.00007206,0.00011497,0.00000307,-0.00001517,-0.00001875,0.0000296
 4,-0.00001231,-0.00000022,0.00000069,-0.00000448,0.00000809,0.00000818
 ,-0.00000457,-0.00000624,-0.00000897,-0.00001140,-0.00003153,0.0000051
 7,0.00000574,0.00000561,0.00001453,-0.00000732,0.00233654,-0.00542166,
 -0.00124477,-0.00070395,-0.00028024,-0.00033660,0.00048215,-0.00663899
 ,0.00093039,-0.00220469,-0.00025052,0.02206960,-0.06232672,-0.01394188
 ,0.06687449,0.00751203,0.00097388,-0.01546575,0.00027473,0.00001660,-0
 .00080762,-0.00057302,0.00079768,-0.00007633,-0.00001714,-0.00007352,0
 .00124437,0.05878403,0.00001359,-0.00000942,0.00001041,0.00002301,0.00
 000859,0.00000187,0.00001096,-0.00002064,-0.00002103,-0.00008843,-0.00
 002658,0.00001579,-0.00003353,-0.00019925,-0.00022393,-0.00000642,0.00
 001169,0.00001022,-0.00003805,0.00000833,-0.00000773,0.00000043,0.0000
 0149,-0.00000209,-0.00000340,0.00000278,-0.00000376,0.00008174,0.00002
 029,0.00012225,0.00007641,-0.00011453,0.00049072,0.00002971,-0.0000541
 3,-0.00000433,0.00000247,0.00001995,-0.00002280,-0.00001017,0.00002576
 ,0.00000621,0.00005837,-0.00006510,0.00003622,-0.00019545,-0.00008412,
 0.00012472,-0.00005138,-0.00004633,0.00004226,0.00001732,-0.00000437,0
 .00000150,0.00001835,-0.00004234,0.00001345,0.00001746,-0.00003882,0.0
 0001679,0.00061305,-0.00022014,0.00109175,0.00002460,-0.00000634,0.000
 00394,-0.00009071,0.00020717,-0.00057665,0.00000311,0.00002629,0.00000
 435,0.00025200,-0.00004397,0.00002538,0.00000729,-0.00007030,0.0001110
 7,-0.00000232,-0.00000368,0.00000130,0.00000423,-0.00000418,0.00000435
 ,0.00000043,-0.00000424,0.00000307,0.00000472,0.00000525,0.00000573,-0
 .00001427,-0.00001286,0.00000545,0.00001508,0.00001090,-0.00000362,-0.
 00000094,0.00000135,-0.00000073,0.00000176,0.00000223,0.00000119,0.000
 00064,0.00000129,-0.00000184,-0.00000042,-0.00000645,0.00000038,0.0000
 0189,-0.00000793,-0.00001265,0.00000266,-0.00000079,0.00000033,0.00000
 231,0.00000106,-0.00000057,0.00000101,0.00000130,0.00000275,0.00000052
 ,-0.00000200,0.00000049,0.00000387,-0.00000316,0.00000495,0.00000089,-
 0.00000033,-0.00000652,0.00000314,0.00000859,0.00000844,-0.00000052,-0
 .00000069,-0.00000266,0.00000036,0.00000022,0.00000150,-0.00000031,0.0
 0000085,0.00000111,-0.00000129,-0.00000231,-0.00000175,-0.00000068,0.0
 0000107,-0.00000213,0.00000082,-0.00000094,0.00000270,0.00000932,0.000
 02331,-0.00002579,0.00002079,0.00002296,0.00006755,0.00007744,0.000135
 67,-0.00011908,0.00036892,-0.00039619,-0.00033861,0.00005234,0.0000144
 6,-0.00002297,0.00000847,0.00002418,0.00000534,0.00000366,0.00000244,-
 0.00000589,0.00001856,0.00001620,-0.00000363,0.00001446,-0.00001808,-0
 .00001472,-0.00002265,0.00000780,0.00001835,0.00000267,0.00001218,-0.0
 0000858,-0.00550409,0.00162597,-0.00298260,-0.00048750,-0.00098338,-0.
 00017541,-0.00636361,0.00097678,0.00012264,-0.00400129,0.00151986,0.02
 071177,-0.01448268,-0.04932619,0.01561577,0.00490110,0.00580675,-0.018
 66132,0.00027403,0.00012460,-0.00101386,0.00079145,-0.00056306,0.00016
 120,-0.00031406,0.00027218,0.00112063,0.02138912,0.04304909,0.00001821
 ,0.00000437,0.00000863,0.00007080,0.00003206,0.00000035,-0.00005685,-0
 .00002094,-0.00002466,0.00005327,0.00015912,0.00014749,-0.00055924,-0.
 00058330,-0.00005223,0.00002755,0.00002324,0.00004899,-0.00005539,-0.0
 0000183,0.00000637,0.00000312,0.00000092,-0.00000096,0.00000670,0.0000
 1195,0.00001046,-0.00001523,0.00011599,0.00015598,0.00029639,0.0005461
 8,0.00031020,0.00001553,-0.00002443,0.00000972,0.00001596,0.00000009,-
 0.00000244,-0.00002370,0.00001562,-0.00001245,0.00004649,0.00004261,0.
 00012398,0.00000267,0.00009987,0.00008214,0.00001791,-0.00003449,-0.00
 004198,0.00000679,0.00000276,-0.00000304,0.00000567,-0.00002146,-0.000
 00155,0.00001302,-0.00002315,0.00000284,-0.00010807,-0.00034181,0.0000
 7616,-0.00001580,0.00001570,-0.00001306,0.00048348,-0.00023581,-0.0005
 5751,-0.00000927,0.00001972,0.00000421,0.00005524,-0.00001128,0.000348
 08,-0.00001695,0.00001380,0.00003601,-0.00000014,-0.00000197,0.0000000
 2,0.00000245,-0.00000276,0.00000201,-0.00000031,0.00000274,-0.00000057
 ,0.00000980,-0.00000177,0.00000620,-0.00000703,0.00000203,-0.00000471,
 0.00001754,0.00000130,0.00000419,-0.00000682,0.00000712,-0.00000459,0.
 00000130,0.00000250,0.00000032,0.00000123,0.00000142,-0.00000160,0.000
 00007,0.00000130,-0.00000227,0.00000565,-0.00000944,0.00000338,0.00000
 033,-0.00000137,0.00000013,0.00000098,0.00000175,-0.00000103,0.0000009
 0,0.00000177,0.00000249,-0.00000032,-0.00000170,0.00000032,0.00000471,
 -0.00000543,0.00000544,0.00000803,0.00000570,-0.00000844,0.00000342,0.
 00000601,0.00000494,-0.00000043,0.00000055,-0.00000314,0.00000044,0.00
 000022,0.00000154,0.00000011,0.00000133,0.00000158,-0.00000099,-0.0000
 0142,-0.00000092,-0.00000191,0.00000143,-0.00000115,0.00000017,-0.0000
 0081,0.00000173,0.00002729,0.00000929,-0.00000773,-0.00005041,0.000019
 91,-0.00004789,-0.00012141,-0.00010708,0.00007970,-0.00020026,0.000248
 44,-0.00011471,0.00002167,-0.00000194,0.00002983,0.00001259,-0.0000262
 1,0.00002843,0.00000101,0.00000033,0.00000158,-0.00000420,-0.00000781,
 0.00000750,-0.00000172,-0.00000217,0.00001359,0.00001678,-0.00000993,-
 0.00001136,-0.00000335,-0.00000239,-0.00000183,-0.00210795,-0.00327821
 ,-0.00040627,-0.00032918,-0.00016239,0.00069350,0.00152422,0.00064944,
 0.00112611,0.00175019,0.00051965,-0.00480307,0.06769431,0.01525697,-0.
 34183536,0.00587499,0.00313702,-0.01471131,0.00041309,0.00013308,-0.00
 081068,-0.00004457,0.00013353,-0.00008844,-0.00010706,-0.00010150,-0.0
 0022310,-0.07430013,-0.01663000,0.35960817,0.00001053,0.00001635,-0.00
 000154,0.00000781,0.00000054,-0.00000319,-0.00000328,-0.00000389,-0.00
 000571,-0.00004150,0.00001166,0.00002569,-0.00004274,-0.00005862,-0.00
 003184,-0.00001053,0.00000393,0.00000034,0.00000034,-0.00000212,0.0000
 1640,0.00000140,-0.00000160,0.00000011,0.00000077,-0.00000125,0.000001
 14,0.00004776,0.00003209,0.00000558,0.00004234,0.00005555,-0.00001497,
 0.00000728,0.00001707,-0.00000333,0.00003851,-0.00006232,0.00000648,-0
 .00001599,0.00001953,0.00004141,-0.00003358,0.00001879,0.00005637,-0.0
 0006430,-0.00004134,-0.00007576,-0.00000053,0.00000198,-0.00002373,-0.
 00002021,0.00000121,0.00000218,-0.00004357,0.00007130,-0.00005661,-0.0
 0001886,0.00003677,-0.00005240,0.00016692,-0.00012650,0.00065030,0.000
 01679,-0.00002740,0.00000444,-0.00003017,-0.00005605,-0.00000077,0.000
 00567,-0.00002043,0.00002288,0.00000312,-0.00000202,-0.00000345,0.0000
 1112,0.00000668,-0.00001354,-0.00000139,-0.00000042,-0.00000334,-0.000
 00471,0.00000414,-0.00000716,0.00000112,0.00000300,-0.00000283,-0.0000
 0373,-0.00000382,-0.00000629,0.00000733,0.00000334,-0.00000703,-0.0000
 0244,-0.00000624,0.00000047,0.00000051,0.00000118,-0.00000232,0.000000
 95,-0.00000098,-0.00000145,-0.00000035,0.00000030,0.00000176,-0.000001
 10,0.00000381,0.00000171,-0.00000224,0.00000456,0.00000985,-0.00000147
 ,0.00000064,0.00000056,-0.00000107,0.00000011,0.00000077,-0.00000044,-
 0.00000041,-0.00000198,-0.00000077,0.00000050,-0.00000014,-0.00000166,
 0.00000090,-0.00000475,0.00000732,-0.00000115,0.00000168,-0.00000103,-
 0.00000390,-0.00000564,0.00000028,0.00000005,0.00000120,-0.00000039,-0
 .00000023,-0.00000088,-0.00000017,-0.00000049,-0.00000065,0.00000037,0
 .00000135,0.00000147,0.00000003,-0.00000015,0.00000240,-0.00000080,0.0
 0000059,-0.00000166,-0.00003825,-0.00000454,-0.00000614,-0.00002325,-0
 .00000492,0.00002224,0.00002973,-0.00009311,0.00005719,-0.00017466,-0.
 00001264,-0.00021491,-0.00007188,-0.00001526,-0.00000641,0.00002473,0.
 00001633,-0.00001992,-0.00000447,-0.00000253,0.00000458,-0.00001323,-0
 .00000605,0.00000864,0.00000014,0.00000159,-0.00000788,0.00000779,0.00
 002826,0.00000871,-0.00000038,-0.00000684,0.00000624,-0.00110287,-0.00
 430246,0.00021911,0.00427504,-0.00270863,0.00178356,0.00012279,0.00042
 737,-0.00039241,0.00322495,-0.00464024,-0.00189508,-0.00604985,-0.0083
 0021,0.00614058,-0.19596506,-0.14694259,0.06680607,-0.00171396,0.00239
 173,-0.00027012,-0.00009336,-0.00029084,-0.00002996,-0.00068890,0.0006
 1912,-0.00008527,-0.00166081,0.00248761,-0.00038340,0.19988651,0.00002
 524,0.00002302,0.00000155,0.00001287,-0.00000295,-0.00000701,-0.000000
 71,-0.00000880,-0.00000670,-0.00009463,0.00001230,0.00004081,-0.000043
 20,-0.00007791,-0.00004921,-0.00002769,0.00000807,0.00000599,-0.000006
 07,0.00000549,0.00002073,0.00000169,-0.00000152,-0.00000162,0.00000008
 ,-0.00000151,-0.00000140,0.00011673,0.00004872,0.00003219,0.00012418,0
 .00003844,-0.00001407,-0.00001211,-0.00000272,-0.00000924,0.00003756,-
 0.00004907,0.00002162,0.00000410,0.00000195,0.00003951,-0.00003190,0.0
 0005575,0.00003137,0.00000871,-0.00008377,-0.00001800,-0.00001490,0.00
 003776,-0.00003212,-0.00000462,0.00000500,-0.00000014,-0.00003973,0.00
 004585,-0.00006211,-0.00002919,0.00002952,-0.00006619,-0.00024080,-0.0
 0002183,0.00059697,0.00002331,-0.00000499,-0.00001810,-0.00014868,-0.0
 0002043,-0.00006311,0.00002008,-0.00000661,0.00003732,0.00000238,-0.00
 002309,0.00002769,0.00000711,0.00001098,-0.00001474,-0.00000601,-0.000
 00320,-0.00000359,-0.00000337,0.00000352,-0.00000575,0.00000210,0.0000
 0203,-0.00000264,-0.00000677,-0.00000201,-0.00000910,0.00000774,-0.000
 00039,-0.00000622,0.00000091,-0.00000643,-0.00000414,0.00000170,-0.000
 00021,-0.00000246,0.00000171,-0.00000101,-0.00000153,-0.00000098,-0.00
 000013,0.00000235,-0.00000113,0.00000306,0.00000322,-0.00000441,0.0000
 0722,0.00001097,-0.00000078,0.00000105,0.00000112,-0.00000109,0.000000
 22,0.00000113,-0.00000013,-0.00000047,-0.00000187,-0.00000072,0.000000
 09,0.00000022,-0.00000171,0.00000100,-0.00000663,0.00001017,-0.0000049
 9,0.00000129,-0.00000023,-0.00000060,-0.00000410,0.00000004,-0.0000009
 2,0.00000055,-0.00000070,-0.00000021,-0.00000119,-0.00000070,-0.000001
 12,-0.00000101,0.00000011,0.00000097,0.00000171,0.00000037,0.00000006,
 0.00000280,-0.00000065,0.00000071,-0.00000076,0.00001388,-0.00002868,0
 .00002606,-0.00000429,0.00004426,0.00000265,-0.00003060,-0.00009415,0.
 00007627,-0.00000642,-0.00007871,-0.00029013,-0.00002158,0.00003524,0.
 00000915,-0.00003729,-0.00000141,0.00001969,-0.00000295,-0.00000878,-0
 .00000027,-0.00001276,-0.00000837,0.00000329,0.00000488,-0.00000716,-0
 .00000968,0.00000183,-0.00000388,-0.00001867,-0.00000310,-0.00000911,0
 .00001125,-0.00040084,0.00268072,-0.00106890,-0.00278906,0.00445890,-0
 .00049815,0.00044036,-0.00001868,-0.00050905,-0.00442781,0.00235304,-0
 .00346245,-0.01217737,-0.00752820,0.00724292,-0.14712129,-0.17244366,0
 .05792170,0.00229762,-0.00176061,0.00063603,-0.00007548,0.00008759,-0.
 00011247,0.00062085,-0.00068415,0.00019608,0.00258392,-0.00161804,0.00
 040598,0.16146224,0.17461790,0.00001180,0.00001241,0.00000320,0.000013
 59,0.00000386,-0.00000085,-0.00000223,-0.00000482,-0.00000695,-0.00005
 618,0.00001490,0.00003454,-0.00006487,-0.00008883,-0.00004681,-0.00000
 770,0.00000565,0.00000279,-0.00001242,-0.00000258,0.00000963,0.0000013
 5,-0.00000018,0.00000010,0.00000058,0.00000018,0.00000109,0.00007400,0
 .00005391,0.00003487,0.00008575,0.00007400,0.00003567,-0.00001089,0.00
 000679,-0.00000276,0.00000408,-0.00000914,0.00001107,-0.00000011,-0.00
 000299,0.00000045,-0.00001537,0.00002774,0.00000519,0.00003658,-0.0000
 0796,-0.00000550,0.00000720,0.00000798,-0.00002005,-0.00000413,0.00000
 315,-0.00000146,-0.00000702,0.00001447,-0.00001536,-0.00000144,0.00000
 714,-0.00001201,-0.00033252,-0.00043302,0.00058130,-0.00000180,-0.0000
 0698,-0.00000917,-0.00005510,-0.00006562,-0.00006397,-0.00000677,-0.00
 000142,0.00000611,0.00000823,-0.00001857,0.00000837,0.00000845,0.00000
 897,-0.00002012,0.00000085,0.00000039,-0.00000101,-0.00000128,0.000000
 97,-0.00000166,0.00000082,0.00000182,-0.00000136,-0.00000197,-0.000001
 28,-0.00000347,0.00000334,0.00000151,-0.00000421,0.00000282,-0.0000031
 9,0.00000173,-0.00000066,0.00000270,-0.00000238,0.00000094,-0.00000023
 ,-0.00000030,-0.00000021,0.00000031,0.00000056,-0.00000074,0.00000165,
 0.00000070,-0.00000165,0.00000175,0.00000630,-0.00000070,-0.00000014,0
 .00000039,-0.00000023,0.00000041,0.00000008,0.00000010,0.00000014,-0.0
 0000047,-0.00000023,-0.00000014,0.00000001,0.00000031,-0.00000072,-0.0
 0000107,0.00000533,0.00000104,-0.00000103,0.00000035,-0.00000101,-0.00
 000167,0.00000027,0.00000044,-0.00000032,-0.00000019,0.,0.00000005,-0.
 00000021,0.00000012,0.00000004,-0.00000019,0.00000040,0.00000057,-0.00
 000070,0.00000018,0.00000066,-0.00000056,0.00000008,-0.00000033,-0.000
 01059,-0.00001658,0.00000924,-0.00001897,0.00002690,0.00001498,-0.0000
 1429,-0.00008305,0.00006878,-0.00013998,-0.00009976,-0.00030022,-0.000
 03907,0.00002077,0.00000891,-0.00000621,0.00000683,0.00001190,-0.00000
 109,-0.00000452,-0.00000031,-0.00000954,-0.00000713,0.00000496,0.00000
 237,-0.00000766,-0.00001204,0.00001332,-0.00000100,-0.00000968,-0.0000
 0105,-0.00000862,0.00000433,0.02228957,0.02096285,-0.00370346,0.001139
 14,-0.00110710,-0.00552918,-0.00033997,-0.00053403,-0.00120888,-0.0015
 8789,-0.00320655,-0.00216746,-0.01582708,-0.01440349,0.01081957,0.0667
 8582,0.05764217,-0.08705191,-0.00077518,0.00011020,0.00104572,0.001204
 90,0.00107598,-0.00033303,-0.00007788,0.00017382,0.00016851,0.00000260
 ,0.00090139,0.00080579,-0.07226765,-0.06104766,0.08683232\\-0.00215218
 ,-0.01179079,-0.00598935,0.00477049,0.01154655,0.00841508,-0.00170862,
 0.00136010,0.00201634,-0.00227621,-0.01862206,-0.01460121,-0.02173084,
 0.00137005,0.00711484,0.00362324,0.00119886,0.00003620,0.00333171,0.00
 920528,0.00256402,-0.00235553,-0.00355119,-0.00265234,0.00282394,-0.00
 155355,-0.00207681,0.00591131,-0.00622840,-0.01377924,-0.01273363,0.01
 343795,0.00950078,0.00143277,-0.00206048,-0.00145431,-0.00304392,0.005
 08673,0.02301418,0.01601327,-0.01626393,0.00208287,-0.00234537,0.00215
 229,-0.00218039,-0.00226718,0.00013263,0.01325594,-0.00071586,-0.00085
 602,-0.01501461,-0.00238210,0.00259058,0.00136527,-0.00354691,0.012187
 32,0.01012466,0.01410595,-0.01002166,-0.01164215,0.00109708,0.00238425
 ,-0.00978382,0.00094441,-0.00011877,0.00490706,0.01611920,0.00348913,0
 .00924105,-0.01418248,0.00169170,-0.01248248,0.00171022,-0.00344516,0.
 00385553,-0.00297383,0.00133205,-0.00349878,-0.00430991,-0.00331542,0.
 00033398,0.00416442,0.00173837,0.00159655,0.00114149,0.00002827,0.0005
 1512,-0.00705259,0.00350025,-0.00037038,-0.00229552,-0.00286377,0.0023
 9566,0.00706521,0.00928774,-0.01351223,0.00111085,-0.00284080,0.002728
 48,0.00483622,0.00434995,-0.00049232,-0.00028041,-0.00362433,0.0015420
 7,0.00311151,-0.00152927,0.00151093,0.00464454,0.00261919,-0.00266528,
 -0.00539225,0.00105521,-0.00228285,-0.00332249,-0.00191628,0.00020398,
 -0.00016712,-0.00088665,-0.00035381,0.00003537,0.00703828,0.00151430,-
 0.00127628,0.00296090,-0.00543737,0.00592201,-0.01007655,0.01230958,-0
 .00214680,-0.00105213,-0.00297012,0.00209007,-0.00466259,0.00502800,-0
 .00122996,-0.00047825,-0.00345794,-0.00045257,-0.00349989,-0.00147744,
 0.00090768,-0.00401028,0.00419410,0.00086357,0.00516402,0.00171758,-0.
 00060614,0.00281129,-0.00228658,-0.00106373,0.00019008,-0.00064493,0.0
 0756924,-0.00220010,-0.00043513,-0.00035447,-0.00398188,0.00184276,0.0
 0323975,0.01734137,-0.00299843,-0.00321979,-0.00254472,0.00063134,-0.0
 0158258,0.00419658,-0.00484310,-0.00208661,-0.00250637,0.00226197,-0.0
 0374828,-0.00012570,-0.00048165,-0.00162074,0.00531624,-0.00226550,0.0
 0562985,-0.00053882,0.00196249,0.00167980,-0.00244333,0.00251541,-0.00
 021353,-0.00009097,0.00083593,0.00303324,0.00096172,-0.00634147,0.0041
 2822,0.00456135,0.00069967,-0.01371473,-0.01006302,0.00018427,0.002196
 74,0.00103548,0.00298632,-0.00559079,-0.00443535,0.00063017,0.00186339
 ,0.00207750,0.00255292,-0.00093006,-0.00010099,0.00368948,-0.00401348,
 -0.00412271,0.00085956,0.00135427,0.00061698,-0.00530845,0.00261445,0.
 00240593,-0.00095599\\\@
 The archive entry for this job was punched.


 CONFIDENCE: THAT QUIET ASSURED FEELING YOU HAVE
 JUST BEFORE YOU FALL FLAT ON YOUR FACE.
 Job cpu time:       0 days 11 hours 35 minutes 52.8 seconds.
 Elapsed time:       0 days  0 hours 58 minutes 31.5 seconds.
 File lengths (MBytes):  RWF=   4486 Int=      0 D2E=      0 Chk=     55 Scr=      1
 Normal termination of Gaussian 16 at Sat Dec  9 20:52:13 2023.
